      -----------------------------------------------------------      
     |                   =====================                   |     
     |                           x T B                           |     
     |                   =====================                   |     
     |                         S. Grimme                         |     
     |          Mulliken Center for Theoretical Chemistry        |     
     |                    University of Bonn                     |     
     |                 Version 6.0.1 (SAW181210)                 |     
      -----------------------------------------------------------      

   This program is distributed in the hope that it will be useful,
   but WITHOUT ANY WARRANTY; without even the implied warranty of
   MERCHANTABILITY or FITNESS FOR A PARTICULAR PURPOSE.
   
   FOR NON-COMMERCIAL, ACADEMIA USE ONLY.
   
   Cite this work as:
   S. Grimme, C. Bannwarth, P. Shushkov, J. Comput. Theory Chem., 2017,
   13, 1989-2009.
   C. Bannwarth, S. Ehlert and S. Grimme., ChemRxiv, 2018, preprint.
   http://doi.org/10.26434/chemrxiv.7246238.v1
   
   for sTDA-xTB:
   S. Grimme and C. Bannwarth, J. Chem. Phys., 2016, 145, 054103.
   
   in the mass-spec context:
   V. Asgeirsson, C. Bauer and S. Grimme, Chem. Sci., 2017, 8, 4879.
   
   if GBSA is used:
   P. Shushkov, F. März and S. Grimme, unpublished.
   
   for ANC optimizer:
   S. Grimme, unpublished.
   Rational Function algorithm used in ANCopt:
   F. Eckert, P. Pulay, H.-J. Werner, J. Comput. Chem., 1997, 18, 1473.
   
   with help from (in alphabetical order)
   C. Bannwarth, F. Bohle, G. Brandenburg, E. Caldeweyher, M. Checinski,
   S. Dohm, S. Ehlert, S. Ehrlich, F. März, H. Neugebauer, J. Pisarek,
   P. Pracht, P. Shushkov, and S. Spicher.
   
 * started run on 2019/09/16 at 12:00:47.397     
========================================================================
 # omp threads = 1
========================================================================
number of atoms            : 26
number of electrons        : 80
charge                     : 0
spin                       : .0
first test random number   : .9412

########################################################################
# WARNING! Please study the warnings concerning your input carefully
#  - XTBPATH is not set, using XTBHOME instead
#  - the use of '-opt' is discouraged, please use '--opt' next time
#  - the use of '-chrg' is discouraged, please use '--chrg' next time
#  - the use of '-uhf' is discouraged, please use '--uhf' next time
########################################################################

           ------------------------------------------------- 
          |                 G F N 2 - x T B                 |
          | Geometry, Frequencies, Noncovalent interactions |
          |            JCTC 2018 parametrisation            |
           ------------------------------------------------- 
      method parameters     
 k(s)        :  1.8500
 k(p)        :  2.2300
 k(d)        :  2.2300
 k(f)        :  2.0000
 kEN (H0ij)  : -2.0000
 D4 a1       :  0.5200
 D4 a2       :  5.0000
 D4 s6       :  1.0000
 D4 s8       :  2.7000
 D4 s9       :  5.0000
 alphaj      :  2.0000


            Z     q(EN)     CN     RAES       Cart. coordinates
     1  S   6.0    0.67    4.11    3.89     1.03671     0.28372     0.62853
     2  O   6.0   -0.33    1.22    1.80     0.39273    -0.82352     3.13600
     3  O   6.0   -0.30    1.22    1.80     3.78547     0.88860     0.54765
     4  O   6.0   -0.34    1.28    1.80     0.42328    -1.56900    -1.40106
     5  O   6.0   -0.32    1.20    1.80    -0.45464     2.63880     0.23153
     6  O   6.0   -0.29    2.04    1.83     2.23951     0.20705    -5.86558
     7  H   1.0    0.17    1.05    1.44     1.52833    -0.60356    -4.39870
     8  H   1.0    0.15    0.97    1.43     1.73930    -0.82779    -7.27750
     9  O   6.0   -0.29    2.05    1.83     0.79861     6.88989    -2.05919
    10  H   1.0    0.18    1.05    1.44     0.09167     5.49222    -1.13108
    11  H   1.0    0.15    0.97    1.43    -0.20920     8.33387    -1.59673
    12  O   6.0   -0.29    2.04    1.83     0.39775    -5.55507     4.74880
    13  H   1.0    0.17    1.04    1.43     0.61664    -3.76171     4.52391
    14  H   1.0    0.15    0.97    1.43     1.59121    -6.02760     6.03992
    15  O   6.0   -0.22    2.91    2.57    -2.49500    -4.85237     0.84398
    16  H   1.0    0.12    1.05    1.44    -3.89012    -3.77991     1.47113
    17  H   1.0    0.15    1.07    1.44    -1.41672    -3.95023    -0.38625
    18  H   1.0    0.14    1.05    1.44    -1.49602    -5.58796     2.24128
    19  O   6.0   -0.22    2.91    2.57     4.39736     3.79935    -3.29695
    20  H   1.0    0.15    1.07    1.44     4.72667     2.87049    -1.70993
    21  H   1.0    0.14    1.04    1.43     3.79611     2.66956    -4.65786
    22  H   1.0    0.14    1.05    1.44     3.24797     5.24878    -3.03320
    23  N   5.0   -0.22    3.03    1.93    -5.23729    -1.01324     2.87754
    24  H   1.0    0.11    0.99    1.43    -5.78327     0.36346     1.64560
    25  H   1.0    0.12    1.02    1.43    -3.46354    -0.52812     3.45158
    26  H   1.0    0.10    0.99    1.43    -6.36353    -0.80572     4.42660

  Z AO/shell   Hii/eV     exponent
  1     Wed Apr 25 08:07:45 CEST 2018   EN: 2.200 GM2: 0.406  GM3: 0.0800  RAES: 1.40
     1s    -10.707211    1.230000
  7     Wed Apr 25 08:07:45 CEST 2018   EN: 3.040 GM2: 0.461  GM3:-0.0640  RAES: 1.90
     2s    -16.686243    2.339881
     2p    -12.523956    2.014332
  8     Wed Apr 25 08:07:45 CEST 2018   EN: 3.440 GM2: 0.452  GM3:-0.0517  RAES: 1.80
     2s    -20.229985    2.439742
     2p    -15.503117    2.137023
 16     Tue Apr 24 11:44:34 CEST 2018   EN: 2.580 GM2: 0.340  GM3:-0.0502  RAES: 3.10
     3s    -20.029654    1.981333
     3p    -11.377694    2.025643
     3d     -0.420282    1.702555
 no old-style atom pair restraining (fixing) potential

molecular fragmentation (1/2 indicates fragments):
11111222222222222222222222
# atoms in fragment 1/2:     5    21
 fragment masses (1/2) :       96.06      109.12
CMA distance (Bohr)    :   1.502
constraining FC (au)   :  0.0500
           ------------------------------------------------- 
          |        Self-Consistent Charge Iterations        |
           ------------------------------------------------- 

 Ncao       : 65
 Nao        : 64
 Nshell     : 38
 Nel        : 80
 T(el)      :   300.0
 intcut     :    25.0
 scfconv/Eh :  0.100E-05
   qconv/e  :  0.100E-03
 intneglect :  0.100E-07
 broydamp   :      0.250
 iter      E             dE          RMSdq      gap      omega  full diag
   1    -50.6056983 -0.506057E+02  0.696E+00   10.14       0.0  T
   2    -50.6436797 -0.379813E-01  0.500E+00    9.93       1.0  T
   3    -50.6745649 -0.308852E-01  0.108E+00    8.31       1.0  T
   4    -50.6790244 -0.445949E-02  0.484E-01    8.22       1.0  T
   5    -50.6796248 -0.600432E-03  0.241E-01    8.12       1.0  T
   6    -50.6798853 -0.260538E-03  0.120E-01    8.16       1.0  T
   7    -50.6799697 -0.843258E-04  0.439E-02    8.20       1.0  T
   8    -50.6799780 -0.831924E-05  0.268E-02    8.20       1.0  T
   9    -50.6799827 -0.468395E-05  0.911E-03    8.19       2.2  T
  10    -50.6799830 -0.360148E-06  0.196E-03    8.19      10.0  T
  11    -50.6799830 -0.165637E-07  0.828E-04    8.19      23.7  T
  12    -50.6799830 -0.343424E-08  0.318E-04    8.19      61.6  T
speedup  0.97
cpu  time for SCC    0.01 s
wall time for SCC    0.01 s

   *** convergence criteria satisfied after 12 iterations ***

          eigenvalues
 #    :          28         29         30         31         32         33         34         35
 occ. :        2.000      2.000      2.000      2.000      2.000      2.000      2.000      2.000
 eps  :       -12.093    -12.057    -11.951    -11.824    -11.196    -10.792    -10.640    -10.025
 #    :          36         37         38         39         40         41         42         43
 occ. :        2.000      2.000      2.000      2.000      2.000      0.000      0.000      0.000
 eps  :        -9.893     -9.851     -9.631     -9.466     -9.434     -1.242     -0.765      0.555
 #    :          44         45         46         47         48         49         50         51
 occ. :        0.000      0.000      0.000      0.000      0.000      0.000      0.000      0.000
 eps  :         1.834      2.021      2.452      2.583      3.010      3.969      4.683      5.302


   #   Z            q   n(s)   n(p)   n(d)      C6AA      α(0)
   1  16 S      1.501  1.604  1.897  0.998    93.437    16.269
   2   8 O     -0.794  1.778  5.016  0.000    31.396     7.512
   3   8 O     -0.781  1.779  5.002  0.000    31.021     7.468
   4   8 O     -0.808  1.779  5.029  0.000    31.824     7.563
   5   8 O     -0.797  1.783  5.014  0.000    31.504     7.525
   6   8 O     -0.619  1.728  4.891  0.000    25.635     6.833
   7   1 H      0.336  0.664  0.000  0.000     0.622     1.238
   8   1 H      0.286  0.714  0.000  0.000     0.765     1.374
   9   8 O     -0.627  1.728  4.899  0.000    25.845     6.861
  10   1 H      0.343  0.657  0.000  0.000     0.605     1.222
  11   1 H      0.286  0.714  0.000  0.000     0.764     1.373
  12   8 O     -0.628  1.729  4.899  0.000    25.863     6.864
  13   1 H      0.340  0.660  0.000  0.000     0.612     1.229
  14   1 H      0.289  0.711  0.000  0.000     0.757     1.366
  15   8 O     -0.414  1.635  4.779  0.000    21.070     6.199
  16   1 H      0.396  0.604  0.000  0.000     0.492     1.102
  17   1 H      0.410  0.590  0.000  0.000     0.468     1.074
  18   1 H      0.418  0.582  0.000  0.000     0.453     1.058
  19   8 O     -0.421  1.640  4.780  0.000    21.195     6.218
  20   1 H      0.414  0.586  0.000  0.000     0.461     1.066
  21   1 H      0.411  0.589  0.000  0.000     0.465     1.071
  22   1 H      0.415  0.585  0.000  0.000     0.458     1.063
  23   7 N     -0.463  1.381  4.082  0.000    32.213     8.429
  24   1 H      0.159  0.841  0.000  0.000     1.344     1.816
  25   1 H      0.202  0.798  0.000  0.000     1.098     1.642
  26   1 H      0.148  0.852  0.000  0.000     1.412     1.862

 Mol. C6AA /au·bohr⁶  :       5521.945369
 Mol. C8AA /au·bohr⁸  :     119949.502766
 Mol. α(0) /au        :        107.299876

 
 Wiberg/Mayer (AO) data. WBOs > 0.1 written file <wbo>
 largest (>0.05) Wiberg bond orders for each atom
           total WBO             WBO to atom ...
     1  S   5.002    O    5 1.266    O    2 1.260    O    3 1.252    O    4 1.187
     2  O   1.661    S    1 1.260    O    4 0.093    O    5 0.091    O    3 0.087    H   13 0.058
     3  O   1.684    S    1 1.252    H   20 0.106    O    5 0.103    O    4 0.090    O    2 0.087
     4  O   1.678    S    1 1.187    H   17 0.100    O    2 0.093    O    5 0.092    O    3 0.090    H    7 0.055
     5  O   1.647    S    1 1.266    O    3 0.103    O    4 0.092    O    2 0.091    H   10 0.063
     6  O   1.851    H    8 0.906    H    7 0.828    H   21 0.067
     7  H   0.887    O    6 0.828    O    4 0.055
     8  H   0.918    O    6 0.906
     9  O   1.845    H   11 0.903    H   10 0.815    H   22 0.071
    10  H   0.882    O    9 0.815    O    5 0.063
    11  H   0.918    O    9 0.903
    12  O   1.839    H   14 0.901    H   13 0.821    H   18 0.065
    13  H   0.884    O   12 0.821    O    2 0.058
    14  H   0.917    O   12 0.901
    15  O   2.333    H   18 0.751    H   16 0.750    H   17 0.724
    16  H   0.843    O   15 0.750    N   23 0.088
    17  H   0.832    O   15 0.724    O    4 0.100
    18  H   0.825    O   15 0.751    O   12 0.065
    19  O   2.326    H   21 0.757    H   22 0.748    H   20 0.715
    20  H   0.829    O   19 0.715    O    3 0.106
    21  H   0.831    O   19 0.757    O    6 0.067
    22  H   0.828    O   19 0.748    O    9 0.071
    23  N   3.018    H   26 0.973    H   24 0.972    H   25 0.932    H   16 0.088
    24  H   0.975    N   23 0.972
    25  H   0.959    N   23 0.932
    26  H   0.978    N   23 0.973
 MOs/occ written to file <molden.input>
 
molecular dipole:
                 x           y           z       tot (Debye)
 q only:       -1.007      -0.876      -1.415
   full:       -1.228      -0.533      -0.856       4.040
molecular quadrupole (traceless):
                xx          xy          yy          xz          yz          zz
 q only:       -4.454      11.054       7.998     -11.210     -10.158      -3.544
  q+dip:       -6.205       1.413       5.033      -8.210      -5.958       1.172
   full:       -6.456       1.447       5.089      -8.214      -6.203       1.367

SCC energy    :     -50.6799830
rep           :       0.2898498
ES            :       0.3405286
AES           :      -0.0842992
AXC           :      -0.0085881
disp          :      -0.0183681
XB            :       0.0000000
fix           :       0.0000000
total E       :     -50.3899957
atomizationE  :       4.9202999     3087.53
(atE without considering molecular charge,
 total energy contains solvation terms)
H-L gap (eV)  :          8.1912
           ------------------------------------------------- 
          |                 ===============                 |
          |                   A N C O P T                   |
          |                 ===============                 |
          |          Approximate Normal Coordinate          |
          |           Rational Function Optimizer           |
           ------------------------------------------------- 
dumping coords to <xtbopt.coord> and <xtbopt.log>
 optlevel               2
 Maxcycle             520
 Maxmicro              25
 Econv         1.000000000000000E-007
 Gconv         2.000000000000000E-004
 Maxdispl       1.00000000000000     
 Hlow          5.000000000000000E-003
 S6             20.0000000000000     
 Nvar               72

generating ANC from model Hessian ...
 Shifting diagonal of input Hessian by   4.928728246306150E-003
 Lowest  eigenvalues of input Hessian
   -0.000000    0.000000    0.000000    0.000000    0.000000    0.000000
    0.005000    0.005072    0.005166    0.005192    0.005312    0.005614
    0.006408    0.006625    0.006752    0.007194    0.007546    0.008247
 Highest eigenvalues
    1.555698    1.557827    1.559460    3.081332    3.086016    3.093405
 
cpu  time for ANC gen    0.01 s
wall time for ANC gen    0.01 s
................................................................................
.............................. CYCLE    1 ......................................
................................................................................
   1    -50.6799830 -0.506800E+02  0.519E-05    8.19       0.0  T
   2    -50.6799830 -0.750333E-11  0.397E-05    8.19     494.2  T
   3    -50.6799830 -0.489564E-11  0.207E-05    8.19     946.3  T
speedup  0.69
cpu  time for SCC    0.00 s
wall time for SCC    0.00 s
speedup  1.00
cpu  time for grad    0.01 s
wall time for grad    0.01 s
 E :    -50.38999572  G :  0.124785    pred/act E change:  0.000D+00  0.141D-07
Maxdispl :   0.2973   ||displ|| :   0.5172   Lambda : -0.305D-01
Largest |displ|/coords:  0.2973 (  26)  0.2325 (  30)  0.1527 (  35)
................................................................................
.............................. CYCLE    2 ......................................
................................................................................
   1    -50.6865646 -0.506866E+02  0.363E-01    8.44       0.0  T
   2    -50.6867451 -0.180483E-03  0.274E-01    8.52       1.0  T
   3    -50.6868412 -0.960277E-04  0.656E-02    8.67       1.0  T
   4    -50.6868624 -0.212455E-04  0.219E-02    8.67       1.0  T
   5    -50.6868633 -0.874229E-06  0.767E-03    8.66       2.6  T
   6    -50.6868634 -0.121272E-06  0.404E-03    8.66       4.8  T
   7    -50.6868634 -0.534506E-07  0.160E-03    8.66      12.2  T
speedup  0.97
cpu  time for SCC    0.01 s
wall time for SCC    0.01 s
speedup  1.01
cpu  time for grad    0.01 s
wall time for grad    0.01 s
 E :    -50.41645457  G :  0.078309    pred/act E change:  0.000D+00 -0.265D-01
Maxdispl :   0.2949   ||displ|| :   0.5557   Lambda : -0.214D-01
Largest |displ|/coords:  0.2949 (  26)  0.2630 (  30)  0.1950 (  35)
................................................................................
.............................. CYCLE    3 ......................................
................................................................................
   1    -50.6918794 -0.506919E+02  0.339E-01    8.82       0.0  T
   2    -50.6922963 -0.416918E-03  0.249E-01    8.87       1.0  T
   3    -50.6924963 -0.199986E-03  0.956E-02    8.95       1.0  T
   4    -50.6925156 -0.193234E-04  0.299E-02    8.96       1.0  T
   5    -50.6925171 -0.150226E-05  0.100E-02    8.96       2.0  T
   6    -50.6925173 -0.214677E-06  0.507E-03    8.96       3.9  T
   7    -50.6925174 -0.839851E-07  0.202E-03    8.96       9.7  T
speedup  1.13
cpu  time for SCC    0.01 s
wall time for SCC    0.01 s
speedup  1.00
cpu  time for grad    0.01 s
wall time for grad    0.01 s
 E :    -50.43349613  G :  0.049070    pred/act E change: -0.194D-01 -0.170D-01
Maxdispl :   0.2254   ||displ|| :   0.6027   Lambda : -0.133D-01
Largest |displ|/coords:  0.2254 (  11)  0.2161 (  35)  0.1942 (  26)
................................................................................
.............................. CYCLE    4 ......................................
................................................................................
   1    -50.6924220 -0.506924E+02  0.428E-01    9.08       0.0  T
   2    -50.6932223 -0.800356E-03  0.312E-01    9.11       1.0  T
   3    -50.6935932 -0.370878E-03  0.127E-01    9.17       1.0  T
   4    -50.6936239 -0.306598E-04  0.397E-02    9.19       1.0  T
   5    -50.6936263 -0.240724E-05  0.132E-02    9.18       1.5  T
   6    -50.6936266 -0.307629E-06  0.658E-03    9.18       3.0  T
   7    -50.6936267 -0.123461E-06  0.235E-03    9.18       8.3  T
   8    -50.6936267 -0.302457E-07  0.862E-04    9.18      22.8  T
speedup  0.99
cpu  time for SCC    0.01 s
wall time for SCC    0.01 s
speedup  0.99
cpu  time for grad    0.01 s
wall time for grad    0.02 s
 E :    -50.44160628  G :  0.043445    pred/act E change: -0.140D-01 -0.811D-02
Maxdispl :   0.2117   ||displ|| :   0.4461   Lambda : -0.419D-02
Largest |displ|/coords:  0.2117 (  11)  0.1651 (   9)  0.1569 (  12)
................................................................................
.............................. CYCLE    5 ......................................
................................................................................
   1    -50.6969966 -0.506970E+02  0.274E-01    9.27       0.0  T
   2    -50.6970790 -0.823552E-04  0.205E-01    9.29       1.0  T
   3    -50.6971158 -0.368614E-04  0.467E-02    9.32       1.0  T
   4    -50.6971260 -0.101243E-04  0.163E-02    9.32       1.2  T
   5    -50.6971267 -0.764216E-06  0.426E-03    9.32       4.6  T
   6    -50.6971268 -0.320142E-07  0.238E-03    9.32       8.3  T
speedup  1.11
cpu  time for SCC    0.01 s
wall time for SCC    0.01 s
speedup  1.06
cpu  time for grad    0.01 s
wall time for grad    0.01 s
 E :    -50.44465869  G :  0.036659    pred/act E change: -0.909D-02 -0.305D-02
Maxdispl :   0.2562   ||displ|| :   0.5549   Lambda : -0.481D-02
Largest |displ|/coords:  0.2562 (  11)  0.1848 (  12)  0.1647 (   2)
................................................................................
.............................. CYCLE    6 ......................................
................................................................................
   1    -50.7099789 -0.507100E+02  0.372E-01    9.41       0.0  T
   2    -50.7101622 -0.183222E-03  0.275E-01    9.43       1.0  T
   3    -50.7102475 -0.853511E-04  0.737E-02    9.48       1.0  T
   4    -50.7102669 -0.193877E-04  0.221E-02    9.47       1.0  T
   5    -50.7102677 -0.829569E-06  0.666E-03    9.47       2.9  T
   6    -50.7102678 -0.575479E-07  0.386E-03    9.47       5.1  T
   7    -50.7102678 -0.298122E-07  0.123E-03    9.47      16.0  T
speedup  0.97
cpu  time for SCC    0.01 s
wall time for SCC    0.01 s
speedup  1.00
cpu  time for grad    0.01 s
wall time for grad    0.01 s
 E :    -50.44730464  G :  0.030734    pred/act E change: -0.251D-02 -0.265D-02
Maxdispl :   0.2232   ||displ|| :   0.5161   Lambda : -0.416D-02
Largest |displ|/coords:  0.2232 (  12)  0.1593 (   9)  0.1437 (  14)
................................................................................
.............................. CYCLE    7 ......................................
................................................................................
   1    -50.7245722 -0.507246E+02  0.571E-01    9.50       0.0  T
   2    -50.7248209 -0.248710E-03  0.426E-01    9.51       1.0  T
   3    -50.7249491 -0.128173E-03  0.963E-02    9.53       1.0  T
   4    -50.7249817 -0.325521E-04  0.274E-02    9.53       1.0  T
   5    -50.7249832 -0.155242E-05  0.867E-03    9.53       2.3  T
   6    -50.7249833 -0.571435E-07  0.503E-03    9.53       3.9  T
   7    -50.7249833 -0.371331E-07  0.145E-03    9.53      13.6  T
speedup  1.09
cpu  time for SCC    0.01 s
wall time for SCC    0.01 s
speedup  1.05
cpu  time for grad    0.01 s
wall time for grad    0.01 s
 E :    -50.44681269  G :  0.060904    pred/act E change: -0.315D-02  0.492D-03
Maxdispl :   0.2152   ||displ|| :   0.4690   Lambda : -0.973D-02
Largest |displ|/coords:  0.2152 (  14)  0.1323 (   5)  0.1312 (   8)
................................................................................
.............................. CYCLE    8 ......................................
................................................................................
   1    -50.6999606 -0.507000E+02  0.759E-01    9.43       0.0  T
   2    -50.7003665 -0.405953E-03  0.567E-01    9.44       1.0  T
   3    -50.7005881 -0.221596E-03  0.113E-01    9.42       1.0  T
   4    -50.7006445 -0.563310E-04  0.242E-02    9.42       1.0  T
   5    -50.7006455 -0.990629E-06  0.103E-02    9.42       1.9  T
   6    -50.7006457 -0.213976E-06  0.574E-03    9.42       3.4  T
   7    -50.7006457 -0.557507E-07  0.114E-03    9.42      17.1  T
speedup  0.97
cpu  time for SCC    0.01 s
wall time for SCC    0.01 s
speedup  0.99
cpu  time for grad    0.01 s
wall time for grad    0.01 s
 E :    -50.44531551  G :  0.075320    pred/act E change: -0.263D-02  0.150D-02
Maxdispl :   0.2292   ||displ|| :   0.4961   Lambda : -0.184D-01
Largest |displ|/coords:  0.2292 (  15)  0.2211 (  14)  0.1592 (   2)
................................................................................
.............................. CYCLE    9 ......................................
................................................................................
   1    -50.7291108 -0.507291E+02  0.785E-01    9.56       0.0  T
   2    -50.7296033 -0.492466E-03  0.589E-01    9.55       1.0  T
   3    -50.7299108 -0.307524E-03  0.128E-01    9.54       1.0  T
   4    -50.7299741 -0.633469E-04  0.297E-02    9.55       1.0  T
   5    -50.7299761 -0.198400E-05  0.137E-02    9.55       1.4  T
   6    -50.7299762 -0.111371E-06  0.688E-03    9.55       2.8  T
   7    -50.7299764 -0.117464E-06  0.124E-03    9.55      15.8  T
   8    -50.7299764 -0.440397E-08  0.451E-04    9.55      43.5  T
speedup  0.99
cpu  time for SCC    0.01 s
wall time for SCC    0.01 s
speedup  0.94
cpu  time for grad    0.01 s
wall time for grad    0.01 s
 E :    -50.44692886  G :  0.075623    pred/act E change: -0.593D-02 -0.161D-02
Maxdispl :   0.1432   ||displ|| :   0.3086   Lambda : -0.698D-02
Largest |displ|/coords:  0.1432 (  17)  0.1084 (  12)  0.1020 (  15)
................................................................................
.............................. CYCLE   10 ......................................
................................................................................
   1    -50.7121488 -0.507121E+02  0.483E-01    9.42       0.0  T
   2    -50.7122704 -0.121681E-03  0.363E-01    9.43       1.0  T
   3    -50.7123471 -0.766609E-04  0.634E-02    9.44       1.0  T
   4    -50.7123634 -0.163011E-04  0.146E-02    9.43       1.3  T
   5    -50.7123639 -0.460587E-06  0.524E-03    9.43       3.7  T
   6    -50.7123639 -0.310506E-07  0.308E-03    9.43       6.4  T
speedup  0.94
cpu  time for SCC    0.00 s
wall time for SCC    0.01 s
speedup  0.99
cpu  time for grad    0.01 s
wall time for grad    0.01 s
 E :    -50.44914805  G :  0.044204    pred/act E change: -0.115D-01 -0.222D-02
Maxdispl :   0.2221   ||displ|| :   0.3785   Lambda : -0.568D-02
Largest |displ|/coords:  0.2221 (  17)  0.1607 (  12)  0.1103 (   3)
................................................................................
.............................. CYCLE   11 ......................................
................................................................................
   1    -50.7128511 -0.507129E+02  0.595E-01    9.41       0.0  T
   2    -50.7130317 -0.180665E-03  0.449E-01    9.40       1.0  T
   3    -50.7131550 -0.123289E-03  0.763E-02    9.38       1.0  T
   4    -50.7131805 -0.254191E-04  0.177E-02    9.39       1.1  T
   5    -50.7131810 -0.581951E-06  0.812E-03    9.39       2.4  T
   6    -50.7131811 -0.348533E-07  0.392E-03    9.39       5.0  T
   7    -50.7131811 -0.322860E-07  0.795E-04    9.39      24.7  T
speedup  1.11
cpu  time for SCC    0.01 s
wall time for SCC    0.01 s
speedup  1.06
cpu  time for grad    0.01 s
wall time for grad    0.01 s
 E :    -50.44778533  G :  0.066505    pred/act E change: -0.382D-02  0.136D-02
Maxdispl :   0.1521   ||displ|| :   0.4124   Lambda : -0.936D-02
Largest |displ|/coords:  0.1521 (   5)  0.1351 (  17)  0.1298 (   4)
................................................................................
.............................. CYCLE   12 ......................................
................................................................................
   1    -50.7220577 -0.507221E+02  0.634E-01    9.51       0.0  T
   2    -50.7222838 -0.226007E-03  0.477E-01    9.52       1.0  T
   3    -50.7224329 -0.149121E-03  0.859E-02    9.53       1.0  T
   4    -50.7224637 -0.308503E-04  0.200E-02    9.52       1.0  T
   5    -50.7224645 -0.814011E-06  0.890E-03    9.53       2.2  T
   6    -50.7224646 -0.557877E-07  0.479E-03    9.53       4.1  T
   7    -50.7224646 -0.442344E-07  0.941E-04    9.53      20.8  T
speedup  0.97
cpu  time for SCC    0.01 s
wall time for SCC    0.01 s
speedup  1.00
cpu  time for grad    0.01 s
wall time for grad    0.01 s
 E :    -50.44863873  G :  0.057067    pred/act E change: -0.325D-02 -0.853D-03
Maxdispl :   0.2943   ||displ|| :   0.4587   Lambda : -0.905D-02
Largest |displ|/coords:  0.2943 (   5)  0.1991 (   4)  0.1111 (  11)
................................................................................
.............................. CYCLE   13 ......................................
................................................................................
   1    -50.7251429 -0.507251E+02  0.761E-01    9.51       0.0  T
   2    -50.7253500 -0.207132E-03  0.577E-01    9.51       1.0  T
   3    -50.7255063 -0.156330E-03  0.802E-02    9.50       1.0  T
   4    -50.7255352 -0.288993E-04  0.193E-02    9.51       1.0  T
   5    -50.7255362 -0.100013E-05  0.824E-03    9.51       2.4  T
   6    -50.7255363 -0.211276E-07  0.437E-03    9.51       4.5  T
   7    -50.7255363 -0.309993E-07  0.629E-04    9.51      31.2  T
speedup  0.97
cpu  time for SCC    0.01 s
wall time for SCC    0.01 s
speedup  1.00
cpu  time for grad    0.01 s
wall time for grad    0.01 s
 E :    -50.44926646  G :  0.046025    pred/act E change: -0.548D-02 -0.628D-03
Maxdispl :   0.1982   ||displ|| :   0.2732   Lambda : -0.259D-02
Largest |displ|/coords:  0.1982 (   6)  0.0964 (   8)  0.0683 (   1)
................................................................................
.............................. CYCLE   14 ......................................
................................................................................
   1    -50.7245112 -0.507245E+02  0.287E-01    9.48       0.0  T
   2    -50.7245233 -0.121018E-04  0.217E-01    9.48       1.0  T
   3    -50.7245357 -0.124224E-04  0.189E-02    9.48       1.0  T
   4    -50.7245368 -0.110050E-05  0.686E-03    9.48       2.9  T
   5    -50.7245369 -0.514079E-07  0.280E-03    9.48       7.0  T
   6    -50.7245369 -0.643416E-08  0.117E-03    9.48      16.7  T
speedup  1.13
cpu  time for SCC    0.01 s
wall time for SCC    0.01 s
speedup  0.98
cpu  time for grad    0.01 s
wall time for grad    0.01 s
 E :    -50.45086536  G :  0.028748    pred/act E change: -0.548D-02 -0.160D-02
Maxdispl :   0.0712   ||displ|| :   0.2061   Lambda : -0.164D-02
Largest |displ|/coords:  0.0712 (   2)  0.0711 (   3)  0.0700 (  17)
................................................................................
.............................. CYCLE   15 ......................................
................................................................................
   1    -50.7245318 -0.507245E+02  0.217E-01    9.50       0.0  T
   2    -50.7245688 -0.370350E-04  0.163E-01    9.50       1.0  T
   3    -50.7245900 -0.211293E-04  0.356E-02    9.51       1.0  T
   4    -50.7245950 -0.506694E-05  0.114E-02    9.51       1.7  T
   5    -50.7245953 -0.258787E-06  0.340E-03    9.51       5.8  T
   6    -50.7245953 -0.109360E-07  0.215E-03    9.51       9.1  T
speedup  0.93
cpu  time for SCC    0.00 s
wall time for SCC    0.01 s
speedup  0.98
cpu  time for grad    0.01 s
wall time for grad    0.01 s
 E :    -50.45129967  G :  0.025395    pred/act E change: -0.139D-02 -0.434D-03
Maxdispl :   0.0500   ||displ|| :   0.1310   Lambda : -0.912D-03
Largest |displ|/coords:  0.0500 (   7)  0.0487 (  12)  0.0455 (   9)
................................................................................
.............................. CYCLE   16 ......................................
................................................................................
   1    -50.7229241 -0.507229E+02  0.131E-01    9.46       0.0  T
   2    -50.7229328 -0.872572E-05  0.980E-02    9.46       1.0  T
   3    -50.7229389 -0.611057E-05  0.168E-02    9.46       1.2  T
   4    -50.7229400 -0.116034E-05  0.357E-03    9.46       5.5  T
   5    -50.7229401 -0.155946E-07  0.190E-03    9.46      10.3  T
speedup  1.11
cpu  time for SCC    0.00 s
wall time for SCC    0.00 s
speedup  1.05
cpu  time for grad    0.01 s
wall time for grad    0.01 s
 E :    -50.45182581  G :  0.017099    pred/act E change: -0.853D-03 -0.526D-03
Maxdispl :   0.0746   ||displ|| :   0.1754   Lambda : -0.575D-03
Largest |displ|/coords:  0.0746 (   3)  0.0677 (  11)  0.0669 (   7)
................................................................................
.............................. CYCLE   17 ......................................
................................................................................
   1    -50.7239501 -0.507240E+02  0.122E-01    9.46       0.0  T
   2    -50.7239546 -0.447444E-05  0.907E-02    9.46       1.0  T
   3    -50.7239568 -0.216487E-05  0.128E-02    9.46       1.5  T
   4    -50.7239575 -0.767892E-06  0.396E-03    9.46       5.0  T
   5    -50.7239576 -0.242074E-07  0.146E-03    9.46      13.4  T
   6    -50.7239576 -0.278582E-08  0.941E-04    9.46      20.8  T
speedup  0.94
cpu  time for SCC    0.00 s
wall time for SCC    0.01 s
speedup  0.97
cpu  time for grad    0.01 s
wall time for grad    0.01 s
 E :    -50.45218275  G :  0.017158    pred/act E change: -0.464D-03 -0.357D-03
Maxdispl :   0.1122   ||displ|| :   0.2400   Lambda : -0.911D-03
Largest |displ|/coords:  0.1122 (   7)  0.1076 (  13)  0.0885 (   4)
................................................................................
.............................. CYCLE   18 ......................................
................................................................................
   1    -50.7277651 -0.507278E+02  0.136E-01    9.48       0.0  T
   2    -50.7277794 -0.142844E-04  0.103E-01    9.48       1.0  T
   3    -50.7277862 -0.681507E-05  0.221E-02    9.47       1.0  T
   4    -50.7277885 -0.225112E-05  0.760E-03    9.47       2.6  T
   5    -50.7277886 -0.100464E-06  0.212E-03    9.47       9.2  T
   6    -50.7277886 -0.537102E-08  0.136E-03    9.47      14.5  T
speedup  0.93
cpu  time for SCC    0.01 s
wall time for SCC    0.01 s
speedup  0.98
cpu  time for grad    0.01 s
wall time for grad    0.01 s
 E :    -50.45278535  G :  0.016884    pred/act E change: -0.296D-03 -0.603D-03
Maxdispl :   0.1901   ||displ|| :   0.3890   Lambda : -0.125D-02
Largest |displ|/coords:  0.1901 (   7)  0.1313 (   4)  0.1241 (  13)
................................................................................
.............................. CYCLE   19 ......................................
................................................................................
   1    -50.7313442 -0.507313E+02  0.263E-01    9.42       0.0  T
   2    -50.7314189 -0.746945E-04  0.199E-01    9.40       1.0  T
   3    -50.7314602 -0.413063E-04  0.525E-02    9.33       1.0  T
   4    -50.7314705 -0.102654E-04  0.162E-02    9.34       1.2  T
   5    -50.7314709 -0.415665E-06  0.596E-03    9.34       3.3  T
   6    -50.7314709 -0.345227E-07  0.339E-03    9.34       5.8  T
   7    -50.7314709 -0.209632E-07  0.628E-04    9.34      31.3  T
   8    -50.7314709 -0.127066E-08  0.161E-04    9.34     122.0  T
speedup  1.00
cpu  time for SCC    0.01 s
wall time for SCC    0.01 s
speedup  0.94
cpu  time for grad    0.01 s
wall time for grad    0.01 s
 E :    -50.45320479  G :  0.023275    pred/act E change: -0.482D-03 -0.419D-03
Maxdispl :   0.1066   ||displ|| :   0.2706   Lambda : -0.137D-02
Largest |displ|/coords:  0.1066 (   7)  0.0821 (   3)  0.0713 (  35)
................................................................................
.............................. CYCLE   20 ......................................
................................................................................
   1    -50.7261193 -0.507261E+02  0.173E-01    9.34       0.0  T
   2    -50.7261375 -0.182005E-04  0.129E-01    9.34       1.0  T
   3    -50.7261489 -0.113756E-04  0.222E-02    9.34       1.0  T
   4    -50.7261511 -0.228648E-05  0.778E-03    9.34       2.5  T
   5    -50.7261513 -0.132134E-06  0.281E-03    9.34       7.0  T
   6    -50.7261513 -0.868037E-08  0.155E-03    9.34      12.7  T
speedup  0.93
cpu  time for SCC    0.00 s
wall time for SCC    0.01 s
speedup  0.98
cpu  time for grad    0.01 s
wall time for grad    0.01 s
 E :    -50.45352508  G :  0.026757    pred/act E change: -0.722D-03 -0.320D-03
Maxdispl :   0.0861   ||displ|| :   0.1805   Lambda : -0.103D-02
Largest |displ|/coords:  0.0861 (   3)  0.0764 (   6)  0.0562 (  12)
................................................................................
.............................. CYCLE   21 ......................................
................................................................................
   1    -50.7303840 -0.507304E+02  0.152E-01    9.39       0.0  T
   2    -50.7303968 -0.128024E-04  0.114E-01    9.40       1.0  T
   3    -50.7304052 -0.842049E-05  0.198E-02    9.42       1.0  T
   4    -50.7304069 -0.163978E-05  0.589E-03    9.42       3.3  T
   5    -50.7304069 -0.621466E-07  0.240E-03    9.41       8.2  T
speedup  0.89
cpu  time for SCC    0.00 s
wall time for SCC    0.00 s
speedup  0.97
cpu  time for grad    0.01 s
wall time for grad    0.01 s
 E :    -50.45389509  G :  0.013200    pred/act E change: -0.736D-03 -0.370D-03
Maxdispl :   0.0871   ||displ|| :   0.1773   Lambda : -0.539D-03
Largest |displ|/coords:  0.0871 (   7)  0.0669 (   4)  0.0535 (   1)
................................................................................
.............................. CYCLE   22 ......................................
................................................................................
   1    -50.7292975 -0.507293E+02  0.123E-01    9.39       0.0  T
   2    -50.7293079 -0.104551E-04  0.923E-02    9.39       1.0  T
   3    -50.7293129 -0.494181E-05  0.184E-02    9.39       1.1  T
   4    -50.7293145 -0.160952E-05  0.595E-03    9.39       3.3  T
   5    -50.7293145 -0.429013E-07  0.172E-03    9.39      11.4  T
   6    -50.7293145 -0.289416E-08  0.101E-03    9.39      19.4  T
speedup  1.11
cpu  time for SCC    0.01 s
wall time for SCC    0.01 s
speedup  1.06
cpu  time for grad    0.01 s
wall time for grad    0.01 s
 E :    -50.45422231  G :  0.012746    pred/act E change: -0.532D-03 -0.327D-03
Maxdispl :   0.1174   ||displ|| :   0.2714   Lambda : -0.470D-03
Largest |displ|/coords:  0.1174 (   4)  0.1086 (   7)  0.0979 (   1)
................................................................................
.............................. CYCLE   23 ......................................
................................................................................
   1    -50.7301013 -0.507301E+02  0.140E-01    9.40       0.0  T
   2    -50.7301163 -0.150378E-04  0.105E-01    9.39       1.0  T
   3    -50.7301225 -0.616643E-05  0.225E-02    9.36       1.0  T
   4    -50.7301251 -0.253660E-05  0.747E-03    9.37       2.6  T
   5    -50.7301251 -0.673301E-07  0.199E-03    9.37       9.9  T
   6    -50.7301251 -0.443796E-08  0.117E-03    9.37      16.8  T
speedup  0.94
cpu  time for SCC    0.00 s
wall time for SCC    0.01 s
speedup  0.99
cpu  time for grad    0.01 s
wall time for grad    0.01 s
 E :    -50.45453265  G :  0.014182    pred/act E change: -0.278D-03 -0.310D-03
Maxdispl :   0.1981   ||displ|| :   0.4025   Lambda : -0.584D-03
Largest |displ|/coords:  0.1981 (   4)  0.1778 (   7)  0.1393 (   2)
................................................................................
.............................. CYCLE   24 ......................................
................................................................................
   1    -50.7271772 -0.507272E+02  0.213E-01    9.36       0.0  T
   2    -50.7272159 -0.386439E-04  0.160E-01    9.36       1.0  T
   3    -50.7272291 -0.132681E-04  0.344E-02    9.35       1.0  T
   4    -50.7272362 -0.702648E-05  0.106E-02    9.36       1.8  T
   5    -50.7272363 -0.123137E-06  0.267E-03    9.36       7.3  T
   6    -50.7272363 -0.832928E-08  0.148E-03    9.36      13.2  T
speedup  1.03
cpu  time for SCC    0.01 s
wall time for SCC    0.01 s
speedup  0.94
cpu  time for grad    0.01 s
wall time for grad    0.01 s
 E :    -50.45497073  G :  0.017061    pred/act E change: -0.252D-03 -0.438D-03
Maxdispl :   0.2486   ||displ|| :   0.4966   Lambda : -0.915D-03
Largest |displ|/coords:  0.2486 (   4)  0.1690 (  11)  0.1677 (   7)
................................................................................
.............................. CYCLE   25 ......................................
................................................................................
   1    -50.7279164 -0.507279E+02  0.245E-01    9.39       0.0  T
   2    -50.7280349 -0.118532E-03  0.183E-01    9.39       1.0  T
   3    -50.7280761 -0.411609E-04  0.573E-02    9.40       1.0  T
   4    -50.7280896 -0.135135E-04  0.144E-02    9.40       1.4  T
   5    -50.7280899 -0.338290E-06  0.415E-03    9.40       4.7  T
   6    -50.7280900 -0.240085E-07  0.210E-03    9.40       9.3  T
   7    -50.7280900 -0.678085E-08  0.815E-04    9.40      24.1  T
speedup  0.98
cpu  time for SCC    0.01 s
wall time for SCC    0.01 s
speedup  1.00
cpu  time for grad    0.01 s
wall time for grad    0.01 s
 E :    -50.45562834  G :  0.017950    pred/act E change: -0.339D-03 -0.658D-03
Maxdispl :   0.3326   ||displ|| :   0.6392   Lambda : -0.126D-02
Largest |displ|/coords:  0.3326 (   4)  0.2424 (   7)  0.2025 (   2)

generating ANC from model Hessian ...
 Shifting diagonal of input Hessian by   4.776237094423017E-003
 Lowest  eigenvalues of input Hessian
   -0.000000   -0.000000   -0.000000   -0.000000    0.000000    0.000000
    0.005000    0.005042    0.005128    0.005288    0.005605    0.006686
    0.007425    0.008484    0.008682    0.008839    0.009314    0.011950
 Highest eigenvalues
    1.393110    1.418482    1.461214    3.042931    3.273828    3.464485
 
cpu  time for ANC gen    0.01 s
wall time for ANC gen    0.01 s
................................................................................
.............................. CYCLE   26 ......................................
................................................................................
   1    -50.7266047 -0.507266E+02  0.383E-01    9.41       0.0  T
   2    -50.7270699 -0.465170E-03  0.280E-01    9.42       1.0  T
   3    -50.7272294 -0.159521E-03  0.108E-01    9.43       1.0  T
   4    -50.7272600 -0.306564E-04  0.219E-02    9.44       1.0  T
   5    -50.7272610 -0.974178E-06  0.743E-03    9.44       2.6  T
   6    -50.7272611 -0.672081E-07  0.322E-03    9.44       6.1  T
   7    -50.7272611 -0.189236E-07  0.102E-03    9.44      19.3  T
   8    -50.7272611 -0.169010E-08  0.344E-04    9.44      56.9  T
   9    -50.7272611 -0.473946E-09  0.863E-05    9.44     227.2  T
speedup  1.01
cpu  time for SCC    0.01 s
wall time for SCC    0.01 s
speedup  0.98
cpu  time for grad    0.02 s
wall time for grad    0.02 s
 E :    -50.45659142  G :  0.032610    pred/act E change:  0.000D+00 -0.963D-03
Maxdispl :   0.1369   ||displ|| :   0.2666   Lambda : -0.228D-02
Largest |displ|/coords:  0.1369 (   8)  0.0819 (   7)  0.0725 (   5)
................................................................................
.............................. CYCLE   27 ......................................
................................................................................
   1    -50.7307677 -0.507308E+02  0.173E-01    9.45       0.0  T
   2    -50.7307852 -0.174648E-04  0.129E-01    9.46       1.0  T
   3    -50.7307911 -0.596120E-05  0.271E-02    9.49       1.0  T
   4    -50.7307938 -0.263188E-05  0.668E-03    9.48       2.9  T
   5    -50.7307939 -0.124814E-06  0.175E-03    9.48      11.2  T
   6    -50.7307939 -0.294889E-08  0.106E-03    9.48      18.5  T
speedup  0.91
cpu  time for SCC    0.00 s
wall time for SCC    0.01 s
speedup  0.97
cpu  time for grad    0.01 s
wall time for grad    0.01 s
 E :    -50.45809498  G :  0.020628    pred/act E change:  0.000D+00 -0.150D-02
Maxdispl :   0.1248   ||displ|| :   0.3017   Lambda : -0.162D-02
Largest |displ|/coords:  0.1248 (  13)  0.0984 (  10)  0.0930 (  14)
................................................................................
.............................. CYCLE   28 ......................................
................................................................................
   1    -50.7328952 -0.507329E+02  0.281E-01    9.48       0.0  T
   2    -50.7329380 -0.428164E-04  0.212E-01    9.49       1.0  T
   3    -50.7329557 -0.176661E-04  0.434E-02    9.52       1.0  T
   4    -50.7329629 -0.726384E-05  0.104E-02    9.51       1.9  T
   5    -50.7329632 -0.234245E-06  0.270E-03    9.51       7.3  T
   6    -50.7329632 -0.545376E-08  0.147E-03    9.51      13.4  T
speedup  0.94
cpu  time for SCC    0.00 s
wall time for SCC    0.01 s
speedup  0.98
cpu  time for grad    0.01 s
wall time for grad    0.01 s
 E :    -50.45893014  G :  0.019523    pred/act E change: -0.122D-02 -0.835D-03
Maxdispl :   0.1620   ||displ|| :   0.3288   Lambda : -0.145D-02
Largest |displ|/coords:  0.1620 (   8)  0.1533 (   7)  0.1043 (   2)
................................................................................
.............................. CYCLE   29 ......................................
................................................................................
   1    -50.7333914 -0.507334E+02  0.256E-01    9.48       0.0  T
   2    -50.7334313 -0.398797E-04  0.191E-01    9.49       1.0  T
   3    -50.7334439 -0.126657E-04  0.357E-02    9.50       1.0  T
   4    -50.7334510 -0.711486E-05  0.926E-03    9.50       2.1  T
   5    -50.7334512 -0.150798E-06  0.262E-03    9.50       7.5  T
   6    -50.7334512 -0.780125E-08  0.137E-03    9.50      14.3  T
speedup  0.91
cpu  time for SCC    0.00 s
wall time for SCC    0.01 s
speedup  0.97
cpu  time for grad    0.01 s
wall time for grad    0.01 s
 E :    -50.45984552  G :  0.020861    pred/act E change: -0.884D-03 -0.915D-03
Maxdispl :   0.1713   ||displ|| :   0.3692   Lambda : -0.185D-02
Largest |displ|/coords:  0.1713 (   8)  0.1361 (  10)  0.1217 (   4)
................................................................................
.............................. CYCLE   30 ......................................
................................................................................
   1    -50.7340025 -0.507340E+02  0.285E-01    9.45       0.0  T
   2    -50.7340987 -0.962487E-04  0.210E-01    9.45       1.0  T
   3    -50.7341316 -0.329255E-04  0.532E-02    9.44       1.0  T
   4    -50.7341435 -0.118716E-04  0.124E-02    9.44       1.6  T
   5    -50.7341438 -0.323147E-06  0.346E-03    9.44       5.7  T
   6    -50.7341438 -0.145335E-07  0.164E-03    9.44      12.0  T
speedup  0.93
cpu  time for SCC    0.01 s
wall time for SCC    0.01 s
speedup  0.98
cpu  time for grad    0.01 s
wall time for grad    0.01 s
 E :    -50.46124685  G :  0.021920    pred/act E change: -0.805D-03 -0.140D-02
Maxdispl :   0.1216   ||displ|| :   0.3669   Lambda : -0.247D-02
Largest |displ|/coords:  0.1216 (  17)  0.1102 (  13)  0.1086 (  10)
................................................................................
.............................. CYCLE   31 ......................................
................................................................................
   1    -50.7451946 -0.507452E+02  0.303E-01    9.42       0.0  T
   2    -50.7453615 -0.166873E-03  0.219E-01    9.40       1.0  T
   3    -50.7454356 -0.741324E-04  0.676E-02    9.37       1.0  T
   4    -50.7454477 -0.121198E-04  0.151E-02    9.38       1.3  T
   5    -50.7454483 -0.599571E-06  0.474E-03    9.38       4.1  T
   6    -50.7454484 -0.233253E-07  0.228E-03    9.38       8.6  T
speedup  0.93
cpu  time for SCC    0.00 s
wall time for SCC    0.01 s
speedup  0.98
cpu  time for grad    0.01 s
wall time for grad    0.01 s
 E :    -50.46186665  G :  0.032821    pred/act E change: -0.105D-02 -0.620D-03
Maxdispl :   0.1325   ||displ|| :   0.2409   Lambda : -0.171D-02
Largest |displ|/coords:  0.1325 (   4)  0.0875 (   3)  0.0818 (   1)
................................................................................
.............................. CYCLE   32 ......................................
................................................................................
   1    -50.7358986 -0.507359E+02  0.224E-01    9.33       0.0  T
   2    -50.7359333 -0.346928E-04  0.168E-01    9.36       1.0  T
   3    -50.7359586 -0.252928E-04  0.335E-02    9.39       1.0  T
   4    -50.7359631 -0.449466E-05  0.812E-03    9.38       2.4  T
   5    -50.7359632 -0.102319E-06  0.362E-03    9.37       5.4  T
   6    -50.7359632 -0.178328E-07  0.173E-03    9.38      11.4  T
speedup  1.13
cpu  time for SCC    0.01 s
wall time for SCC    0.01 s
speedup  0.95
cpu  time for grad    0.01 s
wall time for grad    0.01 s
 E :    -50.46225185  G :  0.032968    pred/act E change: -0.140D-02 -0.385D-03
Maxdispl :   0.1440   ||displ|| :   0.3044   Lambda : -0.218D-02
Largest |displ|/coords:  0.1440 (   3)  0.1093 (   8)  0.0981 (  13)
................................................................................
.............................. CYCLE   33 ......................................
................................................................................
   1    -50.7381882 -0.507382E+02  0.285E-01    9.45       0.0  T
   2    -50.7382644 -0.762425E-04  0.211E-01    9.45       1.0  T
   3    -50.7383045 -0.400425E-04  0.505E-02    9.43       1.0  T
   4    -50.7383133 -0.882156E-05  0.132E-02    9.44       1.5  T
   5    -50.7383137 -0.398972E-06  0.462E-03    9.44       4.2  T
   6    -50.7383137 -0.223024E-07  0.264E-03    9.44       7.4  T
speedup  0.93
cpu  time for SCC    0.01 s
wall time for SCC    0.01 s
speedup  0.98
cpu  time for grad    0.01 s
wall time for grad    0.01 s
 E :    -50.46215978  G :  0.030119    pred/act E change: -0.902D-03  0.921D-04
Maxdispl :   0.0863   ||displ|| :   0.2118   Lambda : -0.176D-02
Largest |displ|/coords:  0.0863 (   1)  0.0757 (   8)  0.0698 (   4)
................................................................................
.............................. CYCLE   34 ......................................
................................................................................
   1    -50.7415649 -0.507416E+02  0.202E-01    9.45       0.0  T
   2    -50.7416012 -0.363436E-04  0.151E-01    9.46       1.0  T
   3    -50.7416204 -0.191436E-04  0.331E-02    9.46       1.0  T
   4    -50.7416255 -0.511498E-05  0.805E-03    9.46       2.4  T
   5    -50.7416257 -0.176199E-06  0.342E-03    9.46       5.7  T
   6    -50.7416257 -0.772159E-08  0.172E-03    9.46      11.4  T
speedup  0.93
cpu  time for SCC    0.00 s
wall time for SCC    0.01 s
speedup  0.97
cpu  time for grad    0.01 s
wall time for grad    0.01 s
 E :    -50.46288923  G :  0.020529    pred/act E change: -0.119D-02 -0.729D-03
Maxdispl :   0.1311   ||displ|| :   0.2842   Lambda : -0.131D-02
Largest |displ|/coords:  0.1311 (   4)  0.0929 (  10)  0.0856 (  16)
................................................................................
.............................. CYCLE   35 ......................................
................................................................................
   1    -50.7476517 -0.507477E+02  0.250E-01    9.42       0.0  T
   2    -50.7477128 -0.611204E-04  0.186E-01    9.42       1.0  T
   3    -50.7477501 -0.372414E-04  0.432E-02    9.42       1.0  T
   4    -50.7477571 -0.701956E-05  0.968E-03    9.42       2.0  T
   5    -50.7477573 -0.219710E-06  0.430E-03    9.42       4.6  T
   6    -50.7477573 -0.157258E-07  0.193E-03    9.42      10.2  T
speedup  0.93
cpu  time for SCC    0.01 s
wall time for SCC    0.01 s
speedup  0.97
cpu  time for grad    0.01 s
wall time for grad    0.01 s
 E :    -50.46224913  G :  0.040546    pred/act E change: -0.918D-03  0.640D-03
Maxdispl :   0.0884   ||displ|| :   0.1739   Lambda : -0.215D-02
Largest |displ|/coords:  0.0884 (   2)  0.0582 (  16)  0.0570 (   1)
................................................................................
.............................. CYCLE   36 ......................................
................................................................................
   1    -50.7407426 -0.507407E+02  0.180E-01    9.42       0.0  T
   2    -50.7407706 -0.279492E-04  0.134E-01    9.43       1.0  T
   3    -50.7407884 -0.178409E-04  0.294E-02    9.43       1.0  T
   4    -50.7407920 -0.362456E-05  0.717E-03    9.43       2.7  T
   5    -50.7407922 -0.124484E-06  0.303E-03    9.43       6.5  T
   6    -50.7407922 -0.849614E-08  0.158E-03    9.43      12.4  T
speedup  0.93
cpu  time for SCC    0.00 s
wall time for SCC    0.01 s
speedup  0.96
cpu  time for grad    0.01 s
wall time for grad    0.01 s
 E :    -50.46330086  G :  0.011694    pred/act E change: -0.710D-03 -0.105D-02
Maxdispl :   0.0891   ||displ|| :   0.1665   Lambda : -0.349D-03
Largest |displ|/coords:  0.0891 (   4)  0.0622 (   7)  0.0527 (   8)
................................................................................
.............................. CYCLE   37 ......................................
................................................................................
   1    -50.7443740 -0.507444E+02  0.113E-01    9.51       0.0  T
   2    -50.7443877 -0.136796E-04  0.825E-02    9.51       1.0  T
   3    -50.7443937 -0.605477E-05  0.219E-02    9.51       1.0  T
   4    -50.7443949 -0.119896E-05  0.601E-03    9.51       3.3  T
   5    -50.7443950 -0.591185E-07  0.162E-03    9.51      12.1  T
   6    -50.7443950 -0.589043E-08  0.974E-04    9.51      20.1  T
speedup  0.93
cpu  time for SCC    0.00 s
wall time for SCC    0.01 s
speedup  0.98
cpu  time for grad    0.01 s
wall time for grad    0.01 s
 E :    -50.46323454  G :  0.010108    pred/act E change: -0.111D-02  0.663D-04
Maxdispl :   0.0924   ||displ|| :   0.1719   Lambda : -0.397D-03
Largest |displ|/coords:  0.0924 (   4)  0.0696 (  10)  0.0628 (   1)
................................................................................
.............................. CYCLE   38 ......................................
................................................................................
   1    -50.7422992 -0.507423E+02  0.965E-02    9.47       0.0  T
   2    -50.7423053 -0.611258E-05  0.717E-02    9.47       1.0  T
   3    -50.7423084 -0.308470E-05  0.144E-02    9.47       1.4  T
   4    -50.7423091 -0.705016E-06  0.503E-03    9.47       3.9  T
   5    -50.7423091 -0.370710E-07  0.123E-03    9.47      16.0  T
   6    -50.7423091 -0.287983E-08  0.720E-04    9.47      27.3  T
speedup  1.09
cpu  time for SCC    0.01 s
wall time for SCC    0.01 s
speedup  1.04
cpu  time for grad    0.01 s
wall time for grad    0.01 s
 E :    -50.46347855  G :  0.005958    pred/act E change: -0.179D-03 -0.244D-03
Maxdispl :   0.0800   ||displ|| :   0.1526   Lambda : -0.163D-03
Largest |displ|/coords:  0.0800 (   2)  0.0698 (   4)  0.0470 (   1)
................................................................................
.............................. CYCLE   39 ......................................
................................................................................
   1    -50.7422008 -0.507422E+02  0.933E-02    9.48       0.0  T
   2    -50.7422051 -0.427288E-05  0.699E-02    9.48       1.0  T
   3    -50.7422077 -0.258683E-05  0.116E-02    9.48       1.7  T
   4    -50.7422083 -0.608903E-06  0.279E-03    9.48       7.0  T
   5    -50.7422083 -0.149718E-07  0.120E-03    9.48      16.3  T
speedup  1.14
cpu  time for SCC    0.00 s
wall time for SCC    0.00 s
speedup  1.05
cpu  time for grad    0.01 s
wall time for grad    0.01 s
 E :    -50.46352284  G :  0.009398    pred/act E change: -0.204D-03 -0.443D-04
Maxdispl :   0.0388   ||displ|| :   0.0943   Lambda : -0.138D-03
Largest |displ|/coords:  0.0388 (  10)  0.0351 (   1)  0.0303 (  13)
................................................................................
.............................. CYCLE   40 ......................................
................................................................................
   1    -50.7421711 -0.507422E+02  0.473E-02    9.48       0.0  T
   2    -50.7421726 -0.151039E-05  0.348E-02    9.48       1.0  T
   3    -50.7421734 -0.786532E-06  0.741E-03    9.48       2.6  T
   4    -50.7421736 -0.158324E-06  0.297E-03    9.48       6.6  T
   5    -50.7421736 -0.943352E-08  0.629E-04    9.48      31.2  T
speedup  1.11
cpu  time for SCC    0.00 s
wall time for SCC    0.00 s
speedup  1.04
cpu  time for grad    0.01 s
wall time for grad    0.01 s
 E :    -50.46360808  G :  0.005775    pred/act E change: -0.832D-04 -0.852D-04
Maxdispl :   0.0500   ||displ|| :   0.0901   Lambda : -0.961D-04
Largest |displ|/coords:  0.0500 (   2)  0.0285 (   9)  0.0281 (   7)
................................................................................
.............................. CYCLE   41 ......................................
................................................................................
   1    -50.7427810 -0.507428E+02  0.443E-02    9.50       0.0  T
   2    -50.7427826 -0.160095E-05  0.322E-02    9.50       1.0  T
   3    -50.7427833 -0.700127E-06  0.759E-03    9.50       2.6  T
   4    -50.7427835 -0.179799E-06  0.225E-03    9.50       8.7  T
   5    -50.7427835 -0.787922E-08  0.564E-04    9.50      34.8  T
speedup  0.91
cpu  time for SCC    0.00 s
wall time for SCC    0.00 s
speedup  0.97
cpu  time for grad    0.01 s
wall time for grad    0.01 s
 E :    -50.46366918  G :  0.004431    pred/act E change: -0.696D-04 -0.611D-04
Maxdispl :   0.0546   ||displ|| :   0.1407   Lambda : -0.975D-04
Largest |displ|/coords:  0.0546 (   2)  0.0532 (   1)  0.0523 (   5)
................................................................................
.............................. CYCLE   42 ......................................
................................................................................
   1    -50.7431601 -0.507432E+02  0.680E-02    9.51       0.0  T
   2    -50.7431615 -0.130801E-05  0.501E-02    9.52       1.0  T
   3    -50.7431624 -0.963819E-06  0.856E-03    9.52       2.3  T
   4    -50.7431626 -0.135344E-06  0.273E-03    9.52       7.2  T
   5    -50.7431626 -0.121742E-07  0.785E-04    9.52      25.0  T
speedup  0.89
cpu  time for SCC    0.00 s
wall time for SCC    0.00 s
speedup  0.97
cpu  time for grad    0.01 s
wall time for grad    0.01 s
 E :    -50.46373373  G :  0.004932    pred/act E change: -0.484D-04 -0.646D-04
Maxdispl :   0.1047   ||displ|| :   0.2259   Lambda : -0.130D-03
Largest |displ|/coords:  0.1047 (   2)  0.0797 (   9)  0.0705 (  10)
................................................................................
.............................. CYCLE   43 ......................................
................................................................................
   1    -50.7416826 -0.507417E+02  0.114E-01    9.51       0.0  T
   2    -50.7416866 -0.398585E-05  0.861E-02    9.51       1.0  T
   3    -50.7416889 -0.228359E-05  0.134E-02    9.52       1.5  T
   4    -50.7416895 -0.648946E-06  0.578E-03    9.52       3.4  T
   5    -50.7416895 -0.368271E-07  0.122E-03    9.52      16.1  T
   6    -50.7416895 -0.190046E-08  0.823E-04    9.52      23.8  T
speedup  0.89
cpu  time for SCC    0.01 s
wall time for SCC    0.01 s
speedup  0.99
cpu  time for grad    0.01 s
wall time for grad    0.01 s
 E :    -50.46381829  G :  0.006840    pred/act E change: -0.497D-04 -0.846D-04
Maxdispl :   0.0627   ||displ|| :   0.1811   Lambda : -0.163D-03
Largest |displ|/coords:  0.0627 (   5)  0.0617 (   8)  0.0591 (   9)
................................................................................
.............................. CYCLE   44 ......................................
................................................................................
   1    -50.7417015 -0.507417E+02  0.926E-02    9.52       0.0  T
   2    -50.7417047 -0.321869E-05  0.695E-02    9.52       1.0  T
   3    -50.7417062 -0.152985E-05  0.112E-02    9.52       1.7  T
   4    -50.7417068 -0.563331E-06  0.391E-03    9.52       5.0  T
   5    -50.7417068 -0.219922E-07  0.112E-03    9.52      17.5  T
   6    -50.7417068 -0.188387E-08  0.638E-04    9.52      30.7  T
speedup  0.94
cpu  time for SCC    0.00 s
wall time for SCC    0.01 s
speedup  0.97
cpu  time for grad    0.01 s
wall time for grad    0.01 s
 E :    -50.46393363  G :  0.005506    pred/act E change: -0.682D-04 -0.115D-03
Maxdispl :   0.0771   ||displ|| :   0.2097   Lambda : -0.162D-03
Largest |displ|/coords:  0.0771 (   8)  0.0663 (   5)  0.0622 (   9)
................................................................................
.............................. CYCLE   45 ......................................
................................................................................
   1    -50.7403194 -0.507403E+02  0.119E-01    9.52       0.0  T
   2    -50.7403253 -0.591172E-05  0.892E-02    9.52       1.0  T
   3    -50.7403278 -0.251417E-05  0.152E-02    9.52       1.3  T
   4    -50.7403288 -0.104993E-05  0.544E-03    9.52       3.6  T
   5    -50.7403289 -0.362076E-07  0.137E-03    9.52      14.3  T
   6    -50.7403289 -0.272637E-08  0.800E-04    9.52      24.5  T
speedup  0.94
cpu  time for SCC    0.00 s
wall time for SCC    0.01 s
speedup  0.98
cpu  time for grad    0.01 s
wall time for grad    0.01 s
 E :    -50.46404222  G :  0.007983    pred/act E change: -0.844D-04 -0.109D-03
Maxdispl :   0.0990   ||displ|| :   0.2091   Lambda : -0.229D-03
Largest |displ|/coords:  0.0990 (  12)  0.0718 (  18)  0.0616 (  17)
................................................................................
.............................. CYCLE   46 ......................................
................................................................................
   1    -50.7416754 -0.507417E+02  0.110E-01    9.54       0.0  T
   2    -50.7416793 -0.383966E-05  0.804E-02    9.54       1.0  T
   3    -50.7416816 -0.237411E-05  0.129E-02    9.54       1.5  T
   4    -50.7416820 -0.387868E-06  0.334E-03    9.54       5.9  T
   5    -50.7416821 -0.231479E-07  0.103E-03    9.54      19.1  T
   6    -50.7416821 -0.154946E-08  0.560E-04    9.54      35.0  T
speedup  1.13
cpu  time for SCC    0.01 s
wall time for SCC    0.01 s
speedup  0.98
cpu  time for grad    0.01 s
wall time for grad    0.01 s
 E :    -50.46414404  G :  0.007269    pred/act E change: -0.848D-04 -0.102D-03
Maxdispl :   0.0802   ||displ|| :   0.1895   Lambda : -0.152D-03
Largest |displ|/coords:  0.0802 (   1)  0.0771 (  10)  0.0535 (   5)
................................................................................
.............................. CYCLE   47 ......................................
................................................................................
   1    -50.7397240 -0.507397E+02  0.113E-01    9.52       0.0  T
   2    -50.7397288 -0.488006E-05  0.844E-02    9.52       1.0  T
   3    -50.7397312 -0.235252E-05  0.141E-02    9.52       1.4  T
   4    -50.7397319 -0.730183E-06  0.608E-03    9.52       3.2  T
   5    -50.7397320 -0.328589E-07  0.105E-03    9.52      18.6  T
   6    -50.7397320 -0.180694E-08  0.678E-04    9.52      28.9  T
speedup  0.94
cpu  time for SCC    0.00 s
wall time for SCC    0.01 s
speedup  0.98
cpu  time for grad    0.01 s
wall time for grad    0.01 s
 E :    -50.46422499  G :  0.008928    pred/act E change: -0.120D-03 -0.810D-04
Maxdispl :   0.0624   ||displ|| :   0.1135   Lambda : -0.211D-03
Largest |displ|/coords:  0.0624 (   1)  0.0370 (  12)  0.0327 (   4)
................................................................................
.............................. CYCLE   48 ......................................
................................................................................
   1    -50.7416535 -0.507417E+02  0.658E-02    9.54       0.0  T
   2    -50.7416598 -0.629997E-05  0.490E-02    9.54       1.0  T
   3    -50.7416617 -0.190594E-05  0.147E-02    9.53       1.3  T
   4    -50.7416626 -0.829977E-06  0.350E-03    9.53       5.6  T
   5    -50.7416626 -0.161023E-07  0.825E-04    9.53      23.8  T
   6    -50.7416626 -0.909189E-09  0.518E-04    9.53      37.8  T
speedup  0.94
cpu  time for SCC    0.00 s
wall time for SCC    0.01 s
speedup  0.98
cpu  time for grad    0.01 s
wall time for grad    0.01 s
 E :    -50.46432315  G :  0.009184    pred/act E change: -0.785D-04 -0.982D-04
Maxdispl :   0.0580   ||displ|| :   0.1315   Lambda : -0.176D-03
Largest |displ|/coords:  0.0580 (  10)  0.0489 (   1)  0.0419 (   7)
................................................................................
.............................. CYCLE   49 ......................................
................................................................................
   1    -50.7423353 -0.507423E+02  0.705E-02    9.53       0.0  T
   2    -50.7423387 -0.340910E-05  0.522E-02    9.53       1.0  T
   3    -50.7423400 -0.134556E-05  0.107E-02    9.52       1.8  T
   4    -50.7423405 -0.515452E-06  0.374E-03    9.52       5.2  T
   5    -50.7423405 -0.155884E-07  0.831E-04    9.52      23.6  T
   6    -50.7423405 -0.996103E-09  0.514E-04    9.52      38.1  T
speedup  0.94
cpu  time for SCC    0.01 s
wall time for SCC    0.01 s
speedup  0.98
cpu  time for grad    0.01 s
wall time for grad    0.01 s
 E :    -50.46441697  G :  0.005147    pred/act E change: -0.107D-03 -0.938D-04
Maxdispl :   0.0725   ||displ|| :   0.1784   Lambda : -0.120D-03
Largest |displ|/coords:  0.0725 (   1)  0.0544 (  12)  0.0521 (  10)
................................................................................
.............................. CYCLE   50 ......................................
................................................................................
   1    -50.7414427 -0.507414E+02  0.106E-01    9.51       0.0  T
   2    -50.7414449 -0.221411E-05  0.793E-02    9.51       1.0  T
   3    -50.7414465 -0.157309E-05  0.892E-03    9.51       2.2  T
   4    -50.7414468 -0.272952E-06  0.294E-03    9.51       6.7  T
   5    -50.7414468 -0.131688E-07  0.912E-04    9.51      21.5  T
speedup  1.11
cpu  time for SCC    0.00 s
wall time for SCC    0.00 s
speedup  1.05
cpu  time for grad    0.01 s
wall time for grad    0.01 s
 E :    -50.46448781  G :  0.006167    pred/act E change: -0.895D-04 -0.708D-04
Maxdispl :   0.0850   ||displ|| :   0.2082   Lambda : -0.155D-03
Largest |displ|/coords:  0.0850 (  12)  0.0780 (   1)  0.0698 (  18)
................................................................................
.............................. CYCLE   51 ......................................
................................................................................
   1    -50.7425264 -0.507425E+02  0.101E-01    9.50       0.0  T
   2    -50.7425284 -0.199668E-05  0.753E-02    9.49       1.0  T
   3    -50.7425299 -0.148662E-05  0.928E-03    9.49       2.1  T
   4    -50.7425301 -0.198189E-06  0.200E-03    9.49       9.8  T
   5    -50.7425301 -0.566641E-08  0.883E-04    9.49      22.2  T
speedup  1.09
cpu  time for SCC    0.00 s
wall time for SCC    0.00 s
speedup  1.04
cpu  time for grad    0.01 s
wall time for grad    0.01 s
 E :    -50.46457865  G :  0.005572    pred/act E change: -0.622D-04 -0.908D-04
Maxdispl :   0.1134   ||displ|| :   0.2545   Lambda : -0.135D-03
Largest |displ|/coords:  0.1134 (   1)  0.0838 (  12)  0.0787 (  10)
................................................................................
.............................. CYCLE   52 ......................................
................................................................................
   1    -50.7415199 -0.507415E+02  0.142E-01    9.48       0.0  T
   2    -50.7415236 -0.376830E-05  0.106E-01    9.48       1.0  T
   3    -50.7415267 -0.303433E-05  0.138E-02    9.48       1.4  T
   4    -50.7415271 -0.413581E-06  0.333E-03    9.48       5.9  T
   5    -50.7415271 -0.191810E-07  0.143E-03    9.48      13.7  T
   6    -50.7415271 -0.236741E-08  0.673E-04    9.48      29.1  T
speedup  0.94
cpu  time for SCC    0.01 s
wall time for SCC    0.01 s
speedup  0.98
cpu  time for grad    0.01 s
wall time for grad    0.01 s
 E :    -50.46461852  G :  0.009176    pred/act E change: -0.809D-04 -0.399D-04
Maxdispl :   0.0467   ||displ|| :   0.1045   Lambda : -0.186D-03
Largest |displ|/coords:  0.0467 (   8)  0.0436 (   9)  0.0349 (   2)

generating ANC from model Hessian ...
 Shifting diagonal of input Hessian by   4.795466760174530E-003
 Lowest  eigenvalues of input Hessian
   -0.000000   -0.000000   -0.000000    0.000000    0.000000    0.000000
    0.005000    0.005057    0.005193    0.005474    0.006210    0.006873
    0.007149    0.007369    0.007766    0.008750    0.009514    0.010642
 Highest eigenvalues
    1.406105    1.407065    1.506129    2.981381    3.308639    3.498202
 
cpu  time for ANC gen    0.01 s
wall time for ANC gen    0.01 s
................................................................................
.............................. CYCLE   53 ......................................
................................................................................
   1    -50.7467295 -0.507467E+02  0.617E-02    9.52       0.0  T
   2    -50.7467320 -0.247131E-05  0.443E-02    9.52       1.0  T
   3    -50.7467332 -0.125290E-05  0.101E-02    9.51       1.9  T
   4    -50.7467335 -0.214044E-06  0.362E-03    9.51       5.4  T
   5    -50.7467335 -0.122309E-07  0.709E-04    9.51      27.7  T
   6    -50.7467335 -0.114409E-08  0.439E-04    9.51      44.7  T
speedup  0.96
cpu  time for SCC    0.00 s
wall time for SCC    0.01 s
speedup  1.02
cpu  time for grad    0.01 s
wall time for grad    0.01 s
 E :    -50.46456368  G :  0.011157    pred/act E change:  0.000D+00  0.548D-04
Maxdispl :   0.0387   ||displ|| :   0.0727   Lambda : -0.238D-03
Largest |displ|/coords:  0.0387 (   5)  0.0264 (  15)  0.0230 (  10)
................................................................................
.............................. CYCLE   54 ......................................
................................................................................
   1    -50.7441972 -0.507442E+02  0.477E-02    9.50       0.0  T
   2    -50.7441977 -0.522148E-06  0.357E-02    9.50       1.0  T
   3    -50.7441980 -0.336498E-06  0.425E-03    9.50       4.6  T
   4    -50.7441981 -0.727755E-07  0.179E-03    9.50      11.0  T
   5    -50.7441981 -0.357053E-08  0.408E-04    9.50      48.1  T
speedup  1.14
cpu  time for SCC    0.00 s
wall time for SCC    0.00 s
speedup  0.97
cpu  time for grad    0.01 s
wall time for grad    0.01 s
 E :    -50.46471433  G :  0.002924    pred/act E change:  0.000D+00 -0.151D-03
Maxdispl :   0.0374   ||displ|| :   0.0784   Lambda : -0.695D-04
Largest |displ|/coords:  0.0374 (   9)  0.0364 (   5)  0.0236 (  15)
................................................................................
.............................. CYCLE   55 ......................................
................................................................................
   1    -50.7429431 -0.507429E+02  0.493E-02    9.50       0.0  T
   2    -50.7429436 -0.470162E-06  0.370E-02    9.50       1.0  T
   3    -50.7429439 -0.293910E-06  0.409E-03    9.50       4.8  T
   4    -50.7429439 -0.699257E-07  0.189E-03    9.50      10.4  T
   5    -50.7429439 -0.335913E-08  0.377E-04    9.50      52.0  T
   6    -50.7429439 -0.178666E-09  0.244E-04    9.50      80.5  T
speedup  0.94
cpu  time for SCC    0.00 s
wall time for SCC    0.01 s
speedup  1.02
cpu  time for grad    0.01 s
wall time for grad    0.01 s
 E :    -50.46475513  G :  0.003217    pred/act E change: -0.120D-03 -0.408D-04
Maxdispl :   0.0379   ||displ|| :   0.0690   Lambda : -0.324D-04
Largest |displ|/coords:  0.0379 (   5)  0.0305 (  10)  0.0200 (  15)
................................................................................
.............................. CYCLE   56 ......................................
................................................................................
   1    -50.7426273 -0.507426E+02  0.438E-02    9.50       0.0  T
   2    -50.7426277 -0.334701E-06  0.329E-02    9.50       1.0  T
   3    -50.7426279 -0.281066E-06  0.350E-03    9.50       5.6  T
   4    -50.7426280 -0.391632E-07  0.153E-03    9.50      12.8  T
   5    -50.7426280 -0.202962E-08  0.347E-04    9.50      56.5  T
   6    -50.7426280 -0.203741E-09  0.222E-04    9.50      88.5  T
speedup  0.94
cpu  time for SCC    0.00 s
wall time for SCC    0.01 s
speedup  1.02
cpu  time for grad    0.01 s
wall time for grad    0.01 s
 E :    -50.46477880  G :  0.003704    pred/act E change: -0.350D-04 -0.237D-04
Maxdispl :   0.0757   ||displ|| :   0.1257   Lambda : -0.479D-04
Largest |displ|/coords:  0.0757 (   5)  0.0402 (  10)  0.0363 (   2)
................................................................................
.............................. CYCLE   57 ......................................
................................................................................
   1    -50.7425734 -0.507426E+02  0.729E-02    9.51       0.0  T
   2    -50.7425742 -0.808368E-06  0.546E-02    9.51       1.0  T
   3    -50.7425749 -0.697274E-06  0.553E-03    9.51       3.5  T
   4    -50.7425750 -0.916440E-07  0.208E-03    9.51       9.4  T
   5    -50.7425750 -0.509882E-08  0.591E-04    9.51      33.2  T
   6    -50.7425750 -0.578268E-09  0.359E-04    9.51      54.6  T
speedup  1.13
cpu  time for SCC    0.01 s
wall time for SCC    0.01 s
speedup  1.01
cpu  time for grad    0.01 s
wall time for grad    0.01 s
 E :    -50.46481119  G :  0.003069    pred/act E change: -0.163D-04 -0.324D-04
Maxdispl :   0.0554   ||displ|| :   0.1068   Lambda : -0.339D-04
Largest |displ|/coords:  0.0554 (   5)  0.0460 (  10)  0.0321 (   1)
................................................................................
.............................. CYCLE   58 ......................................
................................................................................
   1    -50.7429614 -0.507430E+02  0.560E-02    9.51       0.0  T
   2    -50.7429618 -0.425813E-06  0.420E-02    9.51       1.0  T
   3    -50.7429623 -0.475078E-06  0.370E-03    9.51       5.3  T
   4    -50.7429623 -0.283217E-07  0.129E-03    9.51      15.3  T
   5    -50.7429623 -0.232731E-08  0.459E-04    9.51      42.8  T
   6    -50.7429623 -0.325834E-09  0.236E-04    9.51      83.2  T
speedup  0.94
cpu  time for SCC    0.00 s
wall time for SCC    0.01 s
speedup  0.94
cpu  time for grad    0.01 s
wall time for grad    0.01 s
 E :    -50.46483413  G :  0.001929    pred/act E change: -0.243D-04 -0.229D-04
Maxdispl :   0.0636   ||displ|| :   0.1165   Lambda : -0.241D-04
Largest |displ|/coords:  0.0636 (   5)  0.0455 (   2)  0.0407 (   1)
................................................................................
.............................. CYCLE   59 ......................................
................................................................................
   1    -50.7430908 -0.507431E+02  0.553E-02    9.51       0.0  T
   2    -50.7430912 -0.408468E-06  0.414E-02    9.51       1.0  T
   3    -50.7430916 -0.414661E-06  0.395E-03    9.51       5.0  T
   4    -50.7430917 -0.351663E-07  0.148E-03    9.51      13.3  T
   5    -50.7430917 -0.283880E-08  0.404E-04    9.51      48.6  T
   6    -50.7430917 -0.184095E-09  0.197E-04    9.51      99.5  T
speedup  0.94
cpu  time for SCC    0.00 s
wall time for SCC    0.01 s
speedup  1.02
cpu  time for grad    0.01 s
wall time for grad    0.01 s
 E :    -50.46485068  G :  0.001745    pred/act E change: -0.172D-04 -0.166D-04
Maxdispl :   0.0467   ||displ|| :   0.1044   Lambda : -0.166D-04
Largest |displ|/coords:  0.0467 (   5)  0.0447 (   2)  0.0413 (  10)
................................................................................
.............................. CYCLE   60 ......................................
................................................................................
   1    -50.7430586 -0.507431E+02  0.454E-02    9.51       0.0  T
   2    -50.7430589 -0.289071E-06  0.339E-02    9.51       1.0  T
   3    -50.7430592 -0.280778E-06  0.335E-03    9.51       5.9  T
   4    -50.7430592 -0.236693E-07  0.131E-03    9.51      15.0  T
   5    -50.7430592 -0.186838E-08  0.346E-04    9.51      56.6  T
   6    -50.7430592 -0.128473E-09  0.204E-04    9.51      96.0  T
speedup  1.13
cpu  time for SCC    0.01 s
wall time for SCC    0.01 s
speedup  1.01
cpu  time for grad    0.01 s
wall time for grad    0.01 s
 E :    -50.46486175  G :  0.001261    pred/act E change: -0.122D-04 -0.111D-04
Maxdispl :   0.0354   ||displ|| :   0.0647   Lambda : -0.910D-05
Largest |displ|/coords:  0.0354 (   2)  0.0297 (   1)  0.0261 (  10)
................................................................................
.............................. CYCLE   61 ......................................
................................................................................
   1    -50.7433027 -0.507433E+02  0.274E-02    9.51       0.0  T
   2    -50.7433029 -0.150770E-06  0.204E-02    9.51       1.0  T
   3    -50.7433030 -0.131913E-06  0.288E-03    9.52       6.8  T
   4    -50.7433030 -0.144495E-07  0.112E-03    9.51      17.5  T
   5    -50.7433030 -0.133785E-08  0.241E-04    9.52      81.4  T
   6    -50.7433030 -0.614548E-10  0.163E-04    9.52     120.4  T
speedup  0.93
cpu  time for SCC    0.00 s
wall time for SCC    0.01 s
speedup  1.01
cpu  time for grad    0.01 s
wall time for grad    0.01 s
 E :    -50.46486742  G :  0.001220    pred/act E change: -0.838D-05 -0.567D-05
Maxdispl :   0.0424   ||displ|| :   0.0703   Lambda : -0.641D-05
Largest |displ|/coords:  0.0424 (   2)  0.0292 (   1)  0.0241 (  10)
................................................................................
.............................. CYCLE   62 ......................................
................................................................................
   1    -50.7429524 -0.507430E+02  0.266E-02    9.51       0.0  T
   2    -50.7429525 -0.102633E-06  0.198E-02    9.51       1.0  T
   3    -50.7429525 -0.861813E-07  0.242E-03    9.51       8.1  T
   4    -50.7429526 -0.100876E-07  0.808E-04    9.51      24.3  T
   5    -50.7429526 -0.774968E-09  0.211E-04    9.51      92.8  T
speedup  0.89
cpu  time for SCC    0.00 s
wall time for SCC    0.00 s
speedup  0.99
cpu  time for grad    0.01 s
wall time for grad    0.01 s
 E :    -50.46487082  G :  0.001222    pred/act E change: -0.457D-05 -0.340D-05
Maxdispl :   0.0174   ||displ|| :   0.0310   Lambda : -0.442D-05
Largest |displ|/coords:  0.0174 (   2)  0.0125 (   5)  0.0105 (  16)
................................................................................
.............................. CYCLE   63 ......................................
................................................................................
   1    -50.7432460 -0.507432E+02  0.174E-02    9.52       0.0  T
   2    -50.7432460 -0.813033E-07  0.130E-02    9.52       1.5  T
   3    -50.7432461 -0.558337E-07  0.211E-03    9.52       9.3  T
   4    -50.7432461 -0.114602E-07  0.779E-04    9.52      25.2  T
   5    -50.7432461 -0.644313E-09  0.164E-04    9.52     119.6  T
speedup  1.11
cpu  time for SCC    0.00 s
wall time for SCC    0.00 s
speedup  1.00
cpu  time for grad    0.01 s
wall time for grad    0.01 s
 E :    -50.46487351  G :  0.000997    pred/act E change: -0.322D-05 -0.269D-05
Maxdispl :   0.0242   ||displ|| :   0.0331   Lambda : -0.343D-05
Largest |displ|/coords:  0.0242 (   2)  0.0138 (   1)  0.0092 (  10)
................................................................................
.............................. CYCLE   64 ......................................
................................................................................
   1    -50.7431991 -0.507432E+02  0.154E-02    9.52       0.0  T
   2    -50.7431992 -0.622152E-07  0.116E-02    9.51       1.7  T
   3    -50.7431992 -0.473703E-07  0.153E-03    9.51      12.8  T
   4    -50.7431992 -0.969240E-08  0.635E-04    9.51      30.9  T
   5    -50.7431992 -0.463459E-09  0.162E-04    9.51     121.0  T
speedup  1.11
cpu  time for SCC    0.00 s
wall time for SCC    0.00 s
speedup  1.01
cpu  time for grad    0.01 s
wall time for grad    0.01 s
 E :    -50.46487549  G :  0.000838    pred/act E change: -0.221D-05 -0.197D-05
Maxdispl :   0.0246   ||displ|| :   0.0304   Lambda : -0.242D-05
Largest |displ|/coords:  0.0246 (   2)  0.0130 (   1)  0.0063 (   6)
................................................................................
.............................. CYCLE   65 ......................................
................................................................................
   1    -50.7432499 -0.507432E+02  0.129E-02    9.51       0.0  T
   2    -50.7432500 -0.357151E-07  0.969E-03    9.51       2.0  T
   3    -50.7432500 -0.228072E-07  0.122E-03    9.51      16.1  T
   4    -50.7432500 -0.606570E-08  0.442E-04    9.51      44.3  T
   5    -50.7432500 -0.205148E-09  0.122E-04    9.51     160.1  T
speedup  0.89
cpu  time for SCC    0.00 s
wall time for SCC    0.00 s
speedup  0.93
cpu  time for grad    0.01 s
[...]
   4    -50.7433212 -0.297417E-08  0.520E-04    9.51      37.7  T
   5    -50.7433212 -0.327560E-09  0.193E-04    9.51     101.4  T
speedup  0.91
cpu  time for SCC    0.00 s
wall time for SCC    0.00 s
speedup  1.01
cpu  time for grad    0.01 s
wall time for grad    0.01 s
 E :    -50.46489090  G :  0.000458    pred/act E change: -0.425D-06 -0.411D-06
Maxdispl :   0.0165   ||displ|| :   0.0214   Lambda : -0.616D-06
Largest |displ|/coords:  0.0165 (   3)  0.0100 (   1)  0.0038 (  12)
................................................................................
.............................. CYCLE   77 ......................................
................................................................................
   1    -50.7434207 -0.507434E+02  0.109E-02    9.51       0.0  T
   2    -50.7434207 -0.151701E-07  0.820E-03    9.51       2.4  T
   3    -50.7434207 -0.122369E-07  0.695E-04    9.51      28.2  T
   4    -50.7434207 -0.201286E-08  0.276E-04    9.51      71.0  T
speedup  1.11
cpu  time for SCC    0.00 s
wall time for SCC    0.00 s
speedup  1.00
cpu  time for grad    0.01 s
wall time for grad    0.01 s
 E :    -50.46489122  G :  0.000505    pred/act E change: -0.342D-06 -0.323D-06
Maxdispl :   0.0176   ||displ|| :   0.0305   Lambda : -0.483D-06
Largest |displ|/coords:  0.0176 (   2)  0.0166 (   1)  0.0162 (   3)
................................................................................
.............................. CYCLE   78 ......................................
................................................................................
   1    -50.7434134 -0.507434E+02  0.119E-02    9.51       0.0  T
   2    -50.7434134 -0.159103E-07  0.902E-03    9.51       2.2  T
   3    -50.7434134 -0.183815E-07  0.600E-04    9.51      32.7  T
   4    -50.7434134 -0.138435E-08  0.263E-04    9.51      74.5  T
speedup  1.11
cpu  time for SCC    0.00 s
wall time for SCC    0.00 s
speedup  1.00
cpu  time for grad    0.01 s
wall time for grad    0.01 s
 E :    -50.46489161  G :  0.000378    pred/act E change: -0.308D-06 -0.389D-06
Maxdispl :   0.0320   ||displ|| :   0.0517   Lambda : -0.786D-06
Largest |displ|/coords:  0.0320 (   3)  0.0268 (   1)  0.0266 (   2)
................................................................................
.............................. CYCLE   79 ......................................
................................................................................
   1    -50.7434042 -0.507434E+02  0.200E-02    9.51       0.0  T
   2    -50.7434042 -0.440424E-07  0.151E-02    9.51       1.3  T
   3    -50.7434043 -0.531150E-07  0.108E-03    9.51      18.2  T
   4    -50.7434043 -0.320825E-08  0.446E-04    9.51      43.9  T
   5    -50.7434043 -0.261480E-09  0.145E-04    9.51     135.3  T
speedup  0.89
cpu  time for SCC    0.00 s
wall time for SCC    0.00 s
speedup  1.01
cpu  time for grad    0.01 s
wall time for grad    0.01 s
 E :    -50.46489217  G :  0.000323    pred/act E change: -0.242D-06 -0.563D-06
Maxdispl :   0.0349   ||displ|| :   0.0503   Lambda : -0.519D-06
Largest |displ|/coords:  0.0349 (   3)  0.0243 (   1)  0.0213 (   2)
................................................................................
.............................. CYCLE   80 ......................................
................................................................................
   1    -50.7434039 -0.507434E+02  0.188E-02    9.51       0.0  T
   2    -50.7434040 -0.340204E-07  0.142E-02    9.51       1.4  T
   3    -50.7434040 -0.466014E-07  0.945E-04    9.51      20.8  T
   4    -50.7434040 -0.119925E-08  0.303E-04    9.51      64.7  T
speedup  1.11
cpu  time for SCC    0.00 s
wall time for SCC    0.00 s
speedup  0.99
cpu  time for grad    0.01 s
wall time for grad    0.01 s
 E :    -50.46489256  G :  0.000349    pred/act E change: -0.394D-06 -0.388D-06
Maxdispl :   0.0309   ||displ|| :   0.0392   Lambda : -0.520D-06
Largest |displ|/coords:  0.0309 (   3)  0.0161 (   1)  0.0094 (   2)
................................................................................
.............................. CYCLE   81 ......................................
................................................................................
   1    -50.7434363 -0.507434E+02  0.138E-02    9.51       0.0  T
   2    -50.7434363 -0.210388E-07  0.103E-02    9.51       1.9  T
   3    -50.7434363 -0.259086E-07  0.853E-04    9.51      23.0  T
   4    -50.7434363 -0.118136E-08  0.238E-04    9.51      82.4  T
speedup  1.08
cpu  time for SCC    0.00 s
wall time for SCC    0.00 s
speedup  0.99
cpu  time for grad    0.01 s
wall time for grad    0.01 s
 E :    -50.46489294  G :  0.000336    pred/act E change: -0.262D-06 -0.386D-06
Maxdispl :   0.0348   ||displ|| :   0.0448   Lambda : -0.478D-06
Largest |displ|/coords:  0.0348 (   3)  0.0184 (   1)  0.0121 (   2)

generating ANC from model Hessian ...
 Shifting diagonal of input Hessian by   4.782465879152670E-003
 Lowest  eigenvalues of input Hessian
   -0.000000   -0.000000   -0.000000    0.000000    0.000000    0.000000
    0.005000    0.005040    0.005203    0.005474    0.006461    0.007076
    0.007290    0.007421    0.007957    0.008911    0.009869    0.011036
 Highest eigenvalues
    1.403308    1.405786    1.468651    2.990780    3.308770    3.513365
 
cpu  time for ANC gen    0.01 s
wall time for ANC gen    0.01 s
................................................................................
.............................. CYCLE   82 ......................................
................................................................................
   1    -50.7434219 -0.507434E+02  0.155E-02    9.51       0.0  T
   2    -50.7434219 -0.276289E-07  0.117E-02    9.51       1.7  T
   3    -50.7434219 -0.329290E-07  0.922E-04    9.51      21.3  T
   4    -50.7434219 -0.181425E-08  0.369E-04    9.51      53.2  T
speedup  0.83
cpu  time for SCC    0.00 s
wall time for SCC    0.00 s
speedup  1.00
cpu  time for grad    0.01 s
wall time for grad    0.01 s
 E :    -50.46489325  G :  0.000261    pred/act E change:  0.000D+00 -0.301D-06
Maxdispl :   0.0012   ||displ|| :   0.0030   Lambda : -0.160D-06
Largest |displ|/coords:  0.0012 (   8)  0.0012 (   3)  0.0011 (  15)
................................................................................
.............................. CYCLE   83 ......................................
................................................................................
   1    -50.7434176 -0.507434E+02  0.238E-03    9.51       0.0  T
   2    -50.7434176 -0.113938E-08  0.180E-03    9.51      10.9  T
   3    -50.7434176 -0.111060E-08  0.167E-04    9.51     117.5  T
   4    -50.7434176 -0.121311E-09  0.650E-05    9.51     301.7  T
speedup  1.11
cpu  time for SCC    0.00 s
wall time for SCC    0.00 s
speedup  0.99
cpu  time for grad    0.01 s
wall time for grad    0.01 s
 E :    -50.46489337  G :  0.000150    pred/act E change:  0.000D+00 -0.129D-06
Maxdispl :   0.0036   ||displ|| :   0.0078   Lambda : -0.260D-06
Largest |displ|/coords:  0.0036 (   1)  0.0034 (   3)  0.0029 (   4)
................................................................................
.............................. CYCLE   84 ......................................
................................................................................
   1    -50.7434111 -0.507434E+02  0.591E-03    9.51       0.0  T
   2    -50.7434111 -0.665084E-08  0.446E-03    9.51       4.4  T
   3    -50.7434111 -0.572062E-08  0.407E-04    9.51      48.1  T
   4    -50.7434111 -0.863260E-09  0.167E-04    9.51     117.3  T
speedup  1.14
cpu  time for SCC    0.00 s
wall time for SCC    0.00 s
speedup  1.00
cpu  time for grad    0.01 s
wall time for grad    0.01 s
 E :    -50.46489352  G :  0.000153    pred/act E change: -0.800D-07 -0.141D-06
Maxdispl :   0.0019   ||displ|| :   0.0037   Lambda : -0.685D-07
Largest |displ|/coords:  0.0019 (   3)  0.0017 (   1)  0.0013 (   6)
................................................................................
.............................. CYCLE   85 ......................................
................................................................................
   1    -50.7434217 -0.507434E+02  0.240E-03    9.51       0.0  T
   2    -50.7434217 -0.105978E-08  0.181E-03    9.51      10.8  T
   3    -50.7434217 -0.884548E-09  0.160E-04    9.51     122.8  T
   4    -50.7434217 -0.140453E-09  0.631E-05    9.51     310.8  T
speedup  0.83
cpu  time for SCC    0.00 s
wall time for SCC    0.00 s
speedup  1.00
cpu  time for grad    0.01 s
wall time for grad    0.01 s
 E :    -50.46489357  G :  0.000116    pred/act E change: -0.130D-06 -0.577D-07
Maxdispl :   0.0048   ||displ|| :   0.0099   Lambda : -0.135D-06
Largest |displ|/coords:  0.0048 (   1)  0.0046 (   3)  0.0035 (   4)

   *** GEOMETRY OPTIMIZATION CONVERGED AFTER 85 ITERATIONS ***

------------------------------------------------------------------------
 total energy gain (kcal):     -0.0002
------------------------------------------------------------------------
================
 final structure:
================
$coord
        1.18515279580479        0.36956153289662        0.94571328214426      S 
        0.94136823542617       -0.58595488467494        3.50027368477829      O 
        3.67819935566929        1.81556232955328        0.74502069046934      O 
        1.16823913023686       -1.67765743001119       -0.91260150324959      O 
       -0.90012369886464        2.15796157244179        0.41315778516068      O 
        1.61656848091836       -0.28120888552616       -5.67476507449655      O 
        1.30427411715574       -0.88786536526322       -3.94787512448085      H 
        2.64662224335467       -1.54075929732952       -6.47124108282978      H 
       -0.14207683901774        6.52502342234344       -2.00877920295167      O 
       -0.63494072281718        4.95350444340252       -1.16675760442065      H 
        0.31384536859224        7.68288996693955       -0.69198595704849      H 
       -0.03652248027114       -5.35505720199635        4.56584584618021      O 
        0.46496874701641       -3.58110255343536        4.31764964987857      H 
        1.50805568189039       -6.28626509817207        4.72470118880321      H 
       -2.63551093061075       -4.63577325172890        0.30792356360926      O 
       -3.82805957630187       -2.42624494237609        1.58508471011090      H 
       -1.21402848418675       -3.72980169884486       -0.48302022401732      H 
       -1.86422975933988       -5.46981633179131        1.77253709892426      H 
        3.81021402186696        3.76213864950515       -3.59813388298210      O 
        3.84243814539883        2.60427948031614       -1.04111544897250      H 
        3.07835541557945        2.43641026693720       -4.67449270396899      H 
        2.47693212566800        5.03462334561558       -3.40451605985348      H 
       -4.20200287078073       -0.64247100992261        2.58911094395600      N 
       -3.02096596385456        0.72498857016819        1.64283933790299      H 
       -3.50099389452412       -0.81820834830767        4.37384958860319      H 
       -6.05577862512139       -0.14875729962023        2.59157647986594      H 
$end
 
 Bond Distances (Angstroems)
 ---------------------------
S1-O2=1.4490         S1-O3=1.5288         S1-O4=1.4631         S1-O5=1.4808         O2-S1=1.4490         O3-S1=1.5288         
O3-H20=1.0369        O4-S1=1.4631         O5-S1=1.4808         O6-H7=0.9826         O6-H8=0.9587         H7-O6=0.9826         
H8-O6=0.9587         O9-H10=0.9788        O9-H11=0.9587        H10-O9=0.9788        H11-O9=0.9587        O12-H13=0.9843       
O12-H14=0.9581       H13-O12=0.9843       H14-O12=0.9581       O15-H17=0.9853       O15-H18=0.9808       H16-N23=1.1011       
H17-O15=0.9853       H18-O15=0.9808       O19-H21=0.9831       O19-H22=0.9807       H20-O3=1.0369        H21-O19=0.9831       
H22-O19=0.9807       N23-H16=1.1011       N23-H24=1.0793       N23-H25=1.0189       N23-H26=1.0152       H24-N23=1.0793       
H25-N23=1.0189       H26-N23=1.0152       
 N  H  Rav=1.0536 sigma=0.0374  Rmin=1.0152  Rmax=1.1011     4
 O  H  Rav=0.9807 sigma=0.0206  Rmin=0.9581  Rmax=1.0369    11
 S  O  Rav=1.4804 sigma=0.0301  Rmin=1.4490  Rmax=1.5288     4
 
 selected bond angles (degree)
 --------------------
O3-S1-O2=108.44                O4-S1-O2=111.60                O4-S1-O3=109.22                O5-S1-O2=109.52                
O5-S1-O3=108.06                O5-S1-O4=109.92                H20-O3-S1=109.70               H8-O6-H7=106.10                
H11-O9-H10=106.21              
 
 selected dihedral angles (degree)
 ---------------------------------
H20-O3-S1-O2=183.25           H20-O3-S1-O4= 61.43           H20-O3-S1-O5=301.88           
 
 CMA Distance (Angstroems)
 ---------------------------
R(CMA):  1.1411

========================================================================
 FINAL SINGLEPOINT CALCULATION ON OPTIMIZED GEOMETRY
========================================================================

 Ncao       : 65
 Nao        : 64
 Nshell     : 38
 Nel        : 80
 T(el)      :   300.0
 intcut     :    25.0
 scfconv/Eh :  0.100E-05
   qconv/e  :  0.100E-03
 intneglect :  0.100E-07
 broydamp   :      0.250
 iter      E             dE          RMSdq      gap      omega  full diag
   1    -50.7434217 -0.507434E+02  0.236E-05    9.51       0.0  T
   2    -50.7434217 -0.540012E-12  0.147E-05    9.51    1331.2  T
   3    -50.7434217 -0.447642E-12  0.269E-06    9.51    7291.1  T
speedup  0.77
cpu  time for SCC    0.00 s
wall time for SCC    0.00 s

   *** convergence criteria satisfied after 3 iterations ***

          eigenvalues
 #    :          28         29         30         31         32         33         34         35
 occ. :        2.000      2.000      2.000      2.000      2.000      2.000      2.000      2.000
 eps  :       -13.483    -13.032    -12.548    -12.461    -12.305    -12.280    -12.056    -11.995
 #    :          36         37         38         39         40         41         42         43
 occ. :        2.000      2.000      2.000      2.000      2.000      0.000      0.000      0.000
 eps  :       -11.967    -11.901    -11.814    -11.775    -11.716     -2.204     -1.011      0.126
 #    :          44         45         46         47         48         49         50         51
 occ. :        0.000      0.000      0.000      0.000      0.000      0.000      0.000      0.000
 eps  :         0.830      1.055      1.369      1.883      2.876      3.566      4.288      4.343


   #   Z            q   n(s)   n(p)   n(d)      C6AA      α(0)
   1  16 S      1.695  1.582  1.778  0.946    88.880    15.867
   2   8 O     -0.746  1.762  4.984  0.000    30.000     7.344
   3   8 O     -0.629  1.761  4.868  0.000    25.857     6.864
   4   8 O     -0.771  1.779  4.992  0.000    30.710     7.430
   5   8 O     -0.773  1.779  4.993  0.000    30.751     7.436
   6   8 O     -0.611  1.748  4.864  0.000    25.454     6.809
   7   1 H      0.323  0.677  0.000  0.000     0.655     1.271
   8   1 H      0.286  0.714  0.000  0.000     0.765     1.374
   9   8 O     -0.604  1.747  4.858  0.000    25.288     6.787
  10   1 H      0.324  0.676  0.000  0.000     0.654     1.270
  11   1 H      0.283  0.717  0.000  0.000     0.773     1.381
  12   8 O     -0.619  1.745  4.874  0.000    25.643     6.834
  13   1 H      0.327  0.673  0.000  0.000     0.646     1.263
  14   1 H      0.284  0.716  0.000  0.000     0.772     1.380
  15   8 O     -0.606  1.756  4.850  0.000    25.315     6.791
  16   1 H      0.307  0.693  0.000  0.000     0.691     1.302
  17   1 H      0.330  0.670  0.000  0.000     0.638     1.255
  18   1 H      0.333  0.667  0.000  0.000     0.629     1.246
  19   8 O     -0.619  1.764  4.856  0.000    25.638     6.835
  20   1 H      0.389  0.611  0.000  0.000     0.501     1.110
  21   1 H      0.333  0.667  0.000  0.000     0.630     1.247
  22   1 H      0.332  0.668  0.000  0.000     0.633     1.250
  23   7 N     -0.349  1.277  4.071  0.000    28.963     7.993
  24   1 H      0.295  0.705  0.000  0.000     0.727     1.335
  25   1 H      0.251  0.749  0.000  0.000     0.879     1.469
  26   1 H      0.234  0.766  0.000  0.000     0.947     1.525

 Mol. C6AA /au·bohr⁶  :       5459.680069
 Mol. C8AA /au·bohr⁸  :     118142.099507
 Mol. α(0) /au        :        106.668335

 
 Wiberg/Mayer (AO) data. WBOs > 0.1 written file <wbo>
 largest (>0.05) Wiberg bond orders for each atom
           total WBO             WBO to atom ...
     1  S   4.843    O    2 1.338    O    4 1.245    O    5 1.183    O    3 1.027
     2  O   1.717    S    1 1.338    O    4 0.104    O    5 0.098    O    3 0.067    H   13 0.062
     3  O   1.965    S    1 1.027    H   20 0.646    O    4 0.082    O    5 0.077    O    2 0.067    O   19 0.057
     4  O   1.708    S    1 1.245    O    2 0.104    O    5 0.099    O    3 0.082    H    7 0.064    H   17 0.062
     5  O   1.730    S    1 1.183    H   24 0.140    O    4 0.099    O    2 0.098    O    3 0.077    N   23 0.059    H   10 0.051
     6  O   1.871    H    8 0.915    H    7 0.829    H   21 0.064
     7  H   0.895    O    6 0.829    O    4 0.064
     8  H   0.918    O    6 0.915
     9  O   1.870    H   11 0.918    H   10 0.840    H   22 0.056
    10  H   0.895    O    9 0.840    O    5 0.051
    11  H   0.920    O    9 0.918
    12  O   1.853    H   14 0.916    H   13 0.827    H   18 0.052
    13  H   0.893    O   12 0.827    O    2 0.062
    14  H   0.919    O   12 0.916
    15  O   1.986    H   18 0.835    H   17 0.825    H   16 0.184    N   23 0.082
    16  H   0.906    N   23 0.717    O   15 0.184
    17  H   0.891    O   15 0.825    O    4 0.062
    18  H   0.889    O   15 0.835    O   12 0.052
    19  O   1.967    H   22 0.832    H   21 0.823    H   20 0.185    O    3 0.057
    20  H   0.848    O    3 0.646    O   19 0.185
    21  H   0.889    O   19 0.823    O    6 0.064
    22  H   0.890    O   19 0.832    O    9 0.056
    23  N   3.505    H   26 0.941    H   25 0.929    H   24 0.763    H   16 0.717    O   15 0.082    O    5 0.059
    24  H   0.913    N   23 0.763    O    5 0.140
    25  H   0.937    N   23 0.929
    26  H   0.945    N   23 0.941
 MOs/occ written to file <molden.input>
 
molecular dipole:
                 x           y           z       tot (Debye)
 q only:       -1.789      -0.434       0.970
   full:       -1.255      -0.404       1.261       4.637
molecular quadrupole (traceless):
                xx          xy          yy          xz          yz          zz
 q only:        8.506      -4.635      -3.518     -11.195       5.167      -4.989
  q+dip:        7.906      -9.911      -3.014     -10.292       9.252      -4.893
   full:        7.867      -9.802      -2.820     -10.469       9.009      -5.047

SCC energy    :     -50.7434217
rep           :       0.2783290
ES            :       0.2670226
AES           :      -0.0746666
AXC           :      -0.0094910
disp          :      -0.0194183
XB            :       0.0000000
fix           :       0.0000000
total E       :     -50.4648936
atomizationE  :       4.9951977     3134.53
(atE without considering molecular charge,
 total energy contains solvation terms)
H-L gap (eV)  :          9.5117
optimized geometry written to: xtbopt.xyz


------------------------------------------------------------------------
 * finished run on 2019/09/16 at 12:00:49.329     
------------------------------------------------------------------------
 total:
 * wall-time:     0 d,  0 h,  0 min,  1.930 sec
 *  cpu-time:     0 d,  0 h,  0 min,  1.909 sec
 * ratio c/w:     0.989 speedup
 SCF:
 * wall-time:     0 d,  0 h,  0 min,  0.132 sec
 *  cpu-time:     0 d,  0 h,  0 min,  0.129 sec
 * ratio c/w:     0.978 speedup
 ANC optimizer:
 * wall-time:     0 d,  0 h,  0 min,  1.776 sec
 *  cpu-time:     0 d,  0 h,  0 min,  1.760 sec
 * ratio c/w:     0.991 speedup

