      -----------------------------------------------------------      
     |                   =====================                   |     
     |                           x T B                           |     
     |                   =====================                   |     
     |                         S. Grimme                         |     
     |          Mulliken Center for Theoretical Chemistry        |     
     |                    University of Bonn                     |     
     |                 Version 6.0.1 (SAW181210)                 |     
      -----------------------------------------------------------      

   This program is distributed in the hope that it will be useful,
   but WITHOUT ANY WARRANTY; without even the implied warranty of
   MERCHANTABILITY or FITNESS FOR A PARTICULAR PURPOSE.
   
   FOR NON-COMMERCIAL, ACADEMIA USE ONLY.
   
   Cite this work as:
   S. Grimme, C. Bannwarth, P. Shushkov, J. Comput. Theory Chem., 2017,
   13, 1989-2009.
   C. Bannwarth, S. Ehlert and S. Grimme., ChemRxiv, 2018, preprint.
   http://doi.org/10.26434/chemrxiv.7246238.v1
   
   for sTDA-xTB:
   S. Grimme and C. Bannwarth, J. Chem. Phys., 2016, 145, 054103.
   
   in the mass-spec context:
   V. Asgeirsson, C. Bauer and S. Grimme, Chem. Sci., 2017, 8, 4879.
   
   if GBSA is used:
   P. Shushkov, F. März and S. Grimme, unpublished.
   
   for ANC optimizer:
   S. Grimme, unpublished.
   Rational Function algorithm used in ANCopt:
   F. Eckert, P. Pulay, H.-J. Werner, J. Comput. Chem., 1997, 18, 1473.
   
   with help from (in alphabetical order)
   C. Bannwarth, F. Bohle, G. Brandenburg, E. Caldeweyher, M. Checinski,
   S. Dohm, S. Ehlert, S. Ehrlich, F. März, H. Neugebauer, J. Pisarek,
   P. Pracht, P. Shushkov, and S. Spicher.
   
 * started run on 2019/09/16 at 11:23:41.681     
========================================================================
 # omp threads = 1
========================================================================
number of atoms            : 23
number of electrons        : 72
charge                     : 0
spin                       : .0
first test random number   : .0373

########################################################################
# WARNING! Please study the warnings concerning your input carefully
#  - XTBPATH is not set, using XTBHOME instead
#  - the use of '-opt' is discouraged, please use '--opt' next time
#  - the use of '-chrg' is discouraged, please use '--chrg' next time
#  - the use of '-uhf' is discouraged, please use '--uhf' next time
########################################################################

           ------------------------------------------------- 
          |                 G F N 2 - x T B                 |
          | Geometry, Frequencies, Noncovalent interactions |
          |            JCTC 2018 parametrisation            |
           ------------------------------------------------- 
      method parameters     
 k(s)        :  1.8500
 k(p)        :  2.2300
 k(d)        :  2.2300
 k(f)        :  2.0000
 kEN (H0ij)  : -2.0000
 D4 a1       :  0.5200
 D4 a2       :  5.0000
 D4 s6       :  1.0000
 D4 s8       :  2.7000
 D4 s9       :  5.0000
 alphaj      :  2.0000


            Z     q(EN)     CN     RAES       Cart. coordinates
     1  S   6.0    0.69    4.05    3.78    -0.14157     0.78936     0.81217
     2  O   6.0   -0.31    1.26    1.80     0.58694    -1.02502    -1.21402
     3  O   6.0   -0.31    1.26    1.80     1.22588     0.14280     3.18707
     4  O   6.0   -0.30    1.18    1.80     0.53869     3.40415     0.01958
     5  O   6.0   -0.30    1.18    1.80    -2.91779     0.63549     1.25604
     6  O   6.0   -0.35    1.58    1.80     5.28689    -6.07020     2.03283
     7  H   1.0    0.17    0.94    1.42     6.56174    -7.42022     2.22250
     8  O   6.0   -0.22    2.90    2.55     3.24820    -5.01412    -1.85331
     9  H   1.0    0.12    0.96    1.43     2.06525    -6.39120    -2.29387
    10  H   1.0    0.16    1.09    1.44     2.38561    -3.36137    -1.73343
    11  H   1.0    0.16    1.23    1.47     4.23101    -5.40279    -0.31236
    12  O   6.0   -0.22    2.92    2.59    -3.99872     5.28570     0.01978
    13  H   1.0    0.14    1.03    1.43    -2.14330     5.49531    -0.03797
    14  H   1.0    0.12    1.07    1.44    -4.78667     5.55780    -1.65208
    15  H   1.0    0.14    1.02    1.43    -4.49429     3.64649     0.76737
    16  O   6.0   -0.22    2.90    2.55     4.37093    -2.94587     5.15848
    17  H   1.0    0.16    1.09    1.44     3.32557    -1.58182     4.42607
    18  H   1.0    0.12    0.96    1.43     3.53299    -3.76644     6.61262
    19  H   1.0    0.16    1.23    1.47     4.90490    -4.18722     3.86796
    20  N   5.0   -0.23    3.04    1.93    -5.82361     5.60381    -4.77328
    21  H   1.0    0.10    0.99    1.43    -5.54349     7.23312    -5.76218
    22  H   1.0    0.10    0.99    1.43    -7.65741     5.10715    -5.09196
    23  H   1.0    0.11    0.99    1.43    -4.75774     4.26506    -5.65800

  Z AO/shell   Hii/eV     exponent
  1     Wed Apr 25 08:07:45 CEST 2018   EN: 2.200 GM2: 0.406  GM3: 0.0800  RAES: 1.40
     1s    -10.707211    1.230000
  7     Wed Apr 25 08:07:45 CEST 2018   EN: 3.040 GM2: 0.461  GM3:-0.0640  RAES: 1.90
     2s    -16.686243    2.339881
     2p    -12.523956    2.014332
  8     Wed Apr 25 08:07:45 CEST 2018   EN: 3.440 GM2: 0.452  GM3:-0.0517  RAES: 1.80
     2s    -20.229985    2.439742
     2p    -15.503117    2.137023
 16     Tue Apr 24 11:44:34 CEST 2018   EN: 2.580 GM2: 0.340  GM3:-0.0502  RAES: 3.10
     3s    -20.029654    1.981333
     3p    -11.377694    2.025643
     3d     -0.420282    1.702555
 no old-style atom pair restraining (fixing) potential

molecular fragmentation (1/2 indicates fragments):
11111222222222222222222
# atoms in fragment 1/2:     5    18
 fragment masses (1/2) :       96.06       91.11
CMA distance (Bohr)    :   1.793
constraining FC (au)   :  0.0500
           ------------------------------------------------- 
          |        Self-Consistent Charge Iterations        |
           ------------------------------------------------- 

 Ncao       : 59
 Nao        : 58
 Nshell     : 34
 Nel        : 72
 T(el)      :   300.0
 intcut     :    25.0
 scfconv/Eh :  0.100E-05
   qconv/e  :  0.100E-03
 intneglect :  0.100E-07
 broydamp   :      0.250
 iter      E             dE          RMSdq      gap      omega  full diag
   1    -45.3868302 -0.453868E+02  0.716E+00   10.22       0.0  T
   2    -45.4230148 -0.361846E-01  0.515E+00    9.83       1.0  T
   3    -45.4547063 -0.316915E-01  0.110E+00    7.57       1.0  T
   4    -45.4584861 -0.377982E-02  0.534E-01    7.73       1.0  T
   5    -45.4591703 -0.684181E-03  0.228E-01    7.60       1.0  T
   6    -45.4593852 -0.214895E-03  0.119E-01    7.68       1.0  T
   7    -45.4594625 -0.772569E-04  0.415E-02    7.72       1.0  T
   8    -45.4594689 -0.642406E-05  0.257E-02    7.72       1.0  T
   9    -45.4594725 -0.362660E-05  0.612E-03    7.71       3.4  T
  10    -45.4594726 -0.786328E-07  0.171E-03    7.71      12.2  T
  11    -45.4594726 -0.999341E-08  0.827E-04    7.71      25.2  T
  12    -45.4594726 -0.165069E-08  0.365E-04    7.71      57.1  T
speedup  1.02
cpu  time for SCC    0.01 s
wall time for SCC    0.01 s

   *** convergence criteria satisfied after 12 iterations ***

          eigenvalues
 #    :          24         25         26         27         28         29         30         31
 occ. :        2.000      2.000      2.000      2.000      2.000      2.000      2.000      2.000
 eps  :       -11.685    -11.547    -11.546    -10.100     -9.929     -9.909     -9.501     -9.358
 #    :          32         33         34         35         36         37         38         39
 occ. :        2.000      2.000      2.000      2.000      2.000      0.000      0.000      0.000
 eps  :        -9.239     -9.172     -9.002     -8.998     -8.853     -1.143     -0.650      0.335
 #    :          40         41         42         43         44         45         46         47
 occ. :        0.000      0.000      0.000      0.000      0.000      0.000      0.000      0.000
 eps  :         0.838      1.550      3.195      3.255      3.463      3.975      4.094      4.178


   #   Z            q   n(s)   n(p)   n(d)      C6AA      α(0)
   1  16 S      1.454  1.603  1.923  1.020    94.589    16.369
   2   8 O     -0.787  1.766  5.021  0.000    31.178     7.486
   3   8 O     -0.785  1.766  5.020  0.000    31.137     7.481
   4   8 O     -0.787  1.779  5.008  0.000    31.197     7.489
   5   8 O     -0.788  1.778  5.010  0.000    31.236     7.493
   6   8 O     -0.871  1.819  5.052  0.000    33.690     7.786
   7   1 H      0.194  0.806  0.000  0.000     1.149     1.684
   8   8 O     -0.425  1.658  4.767  0.000    21.285     6.231
   9   1 H      0.352  0.648  0.000  0.000     0.583     1.200
  10   1 H      0.410  0.590  0.000  0.000     0.466     1.073
  11   1 H      0.408  0.592  0.000  0.000     0.463     1.065
  12   8 O     -0.401  1.631  4.770  0.000    20.810     6.161
  13   1 H      0.413  0.587  0.000  0.000     0.462     1.068
  14   1 H      0.382  0.618  0.000  0.000     0.519     1.132
  15   1 H      0.412  0.588  0.000  0.000     0.464     1.070
  16   8 O     -0.425  1.658  4.767  0.000    21.279     6.230
  17   1 H      0.412  0.588  0.000  0.000     0.464     1.070
  18   1 H      0.353  0.647  0.000  0.000     0.583     1.199
  19   1 H      0.407  0.593  0.000  0.000     0.464     1.066
  20   7 N     -0.435  1.376  4.059  0.000    31.381     8.320
  21   1 H      0.165  0.835  0.000  0.000     1.302     1.787
  22   1 H      0.166  0.834  0.000  0.000     1.300     1.786
  23   1 H      0.178  0.822  0.000  0.000     1.228     1.736

 Mol. C6AA /au·bohr⁶  :       4587.538317
 Mol. C8AA /au·bohr⁸  :     101505.158350
 Mol. α(0) /au        :         97.982953

 
 Wiberg/Mayer (AO) data. WBOs > 0.1 written file <wbo>
 largest (>0.05) Wiberg bond orders for each atom
           total WBO             WBO to atom ...
     1  S   5.060    O    5 1.267    O    4 1.265    O    3 1.246    O    2 1.242
     2  O   1.679    S    1 1.242    H   10 0.119    O    3 0.098    O    4 0.088    O    5 0.088
     3  O   1.680    S    1 1.246    H   17 0.118    O    2 0.098    O    4 0.088    O    5 0.087
     4  O   1.665    S    1 1.265    O    5 0.105    O    3 0.088    O    2 0.088    H   13 0.078
     5  O   1.662    S    1 1.267    O    4 0.105    O    2 0.088    O    3 0.087    H   15 0.074
     6  O   1.530    H    7 0.948    H   11 0.217    H   19 0.216    O    8 0.065    O   16 0.065
     7  H   0.962    O    6 0.948
     8  O   2.298    H    9 0.867    H   10 0.699    H   11 0.611    O    6 0.065
     9  H   0.876    O    8 0.867
    10  H   0.832    O    8 0.699    O    2 0.119
    11  H   0.834    O    8 0.611    O    6 0.217
    12  O   2.344    H   15 0.749    H   14 0.749    H   13 0.744
    13  H   0.830    O   12 0.744    O    4 0.078
    14  H   0.854    O   12 0.749    N   20 0.100
    15  H   0.831    O   12 0.749    O    5 0.074
    16  O   2.298    H   18 0.867    H   17 0.699    H   19 0.612    O    6 0.065
    17  H   0.831    O   16 0.699    O    3 0.118
    18  H   0.876    O   16 0.867
    19  H   0.834    O   16 0.612    O    6 0.216
    20  N   3.049    H   21 0.970    H   22 0.970    H   23 0.966    H   14 0.100
    21  H   0.973    N   20 0.970
    22  H   0.973    N   20 0.970
    23  H   0.968    N   20 0.966
 MOs/occ written to file <molden.input>
 
molecular dipole:
                 x           y           z       tot (Debye)
 q only:       -1.732       0.503      -1.095
   full:       -1.892       0.087      -1.455       6.071
molecular quadrupole (traceless):
                xx          xy          yy          xz          yz          zz
 q only:       -7.823     -25.808       7.894      16.300     -11.067      -0.071
  q+dip:      -10.149     -26.441       7.586      21.087     -16.806       2.563
   full:      -10.101     -26.639       7.756      21.112     -16.865       2.345

SCC energy    :     -45.4594726
rep           :       0.2431309
ES            :       0.3570458
AES           :      -0.0627181
AXC           :      -0.0076833
disp          :      -0.0131799
XB            :       0.0000000
fix           :       0.0000000
total E       :     -45.2163643
atomizationE  :       4.2994268     2697.93
(atE without considering molecular charge,
 total energy contains solvation terms)
H-L gap (eV)  :          7.7103
           ------------------------------------------------- 
          |                 ===============                 |
          |                   A N C O P T                   |
          |                 ===============                 |
          |          Approximate Normal Coordinate          |
          |           Rational Function Optimizer           |
           ------------------------------------------------- 
dumping coords to <xtbopt.coord> and <xtbopt.log>
 optlevel               2
 Maxcycle             460
 Maxmicro              25
 Econv         1.000000000000000E-007
 Gconv         2.000000000000000E-004
 Maxdispl       1.00000000000000     
 Hlow          5.000000000000000E-003
 S6             20.0000000000000     
 Nvar               63

generating ANC from model Hessian ...
 Shifting diagonal of input Hessian by   5.007075972310363E-003
 Lowest  eigenvalues of input Hessian
    0.005000   -0.000000   -0.000000   -0.000000    0.000000    0.000000
    0.000000    0.005056    0.005088    0.005861    0.006026    0.006110
    0.007461    0.007753    0.008012    0.009414    0.009917    0.010583
 Highest eigenvalues
    1.556062    1.590655    1.591379    3.080762    3.088176    3.092315
 
cpu  time for ANC gen    0.00 s
wall time for ANC gen    0.00 s
................................................................................
.............................. CYCLE    1 ......................................
................................................................................
   1    -45.4594726 -0.454595E+02  0.637E-05    7.71       0.0  T
   2    -45.4594726 -0.125482E-10  0.486E-05    7.71     428.7  T
   3    -45.4594726 -0.689226E-11  0.244E-05    7.71     854.4  T
speedup  0.83
cpu  time for SCC    0.00 s
wall time for SCC    0.00 s
speedup  0.92
cpu  time for grad    0.01 s
wall time for grad    0.01 s
 E :    -45.21636427  G :  0.194331    pred/act E change:  0.000D+00  0.160D-07
Maxdispl :   0.1766   ||displ|| :   0.4406   Lambda : -0.464D-01
Largest |displ|/coords:  0.1766 (  18)  0.1615 (  21)  0.1524 (  16)
................................................................................
.............................. CYCLE    2 ......................................
................................................................................
   1    -45.4786629 -0.454787E+02  0.383E-01    7.83       0.0  T
   2    -45.4791284 -0.465532E-03  0.276E-01    7.91       1.0  T
   3    -45.4793600 -0.231628E-03  0.939E-02    8.06       1.0  T
   4    -45.4793811 -0.210580E-04  0.190E-02    8.07       1.1  T
   5    -45.4793815 -0.431471E-06  0.830E-03    8.06       2.5  T
   6    -45.4793816 -0.139189E-06  0.354E-03    8.06       5.9  T
   7    -45.4793817 -0.426375E-07  0.175E-03    8.06      11.9  T
speedup  0.94
cpu  time for SCC    0.00 s
wall time for SCC    0.01 s
speedup  0.98
cpu  time for grad    0.01 s
wall time for grad    0.01 s
 E :    -45.25608167  G :  0.123558    pred/act E change:  0.000D+00 -0.397D-01
Maxdispl :   0.2252   ||displ|| :   0.5398   Lambda : -0.331D-01
Largest |displ|/coords:  0.2252 (  16)  0.2201 (  21)  0.2188 (  18)
................................................................................
.............................. CYCLE    3 ......................................
................................................................................
   1    -45.4921186 -0.454921E+02  0.449E-01    8.09       0.0  T
   2    -45.4929254 -0.806739E-03  0.316E-01    8.16       1.0  T
   3    -45.4932972 -0.371837E-03  0.118E-01    8.29       1.0  T
   4    -45.4933222 -0.250157E-04  0.223E-02    8.30       1.0  T
   5    -45.4933229 -0.700202E-06  0.105E-02    8.30       2.0  T
   6    -45.4933231 -0.223040E-06  0.433E-03    8.30       4.8  T
   7    -45.4933232 -0.658848E-07  0.203E-03    8.29      10.3  T
speedup  0.94
cpu  time for SCC    0.00 s
wall time for SCC    0.01 s
speedup  0.98
cpu  time for grad    0.01 s
wall time for grad    0.01 s
 E :    -45.28439424  G :  0.083403    pred/act E change: -0.277D-01 -0.283D-01
Maxdispl :   0.2687   ||displ|| :   0.5723   Lambda : -0.221D-01
Largest |displ|/coords:  0.2687 (  16)  0.2077 (  21)  0.2061 (  18)
................................................................................
.............................. CYCLE    4 ......................................
................................................................................
   1    -45.4979859 -0.454980E+02  0.543E-01    8.37       0.0  T
   2    -45.4992123 -0.122643E-02  0.374E-01    8.43       1.0  T
   3    -45.4997401 -0.527788E-03  0.144E-01    8.52       1.0  T
   4    -45.4997757 -0.355899E-04  0.260E-02    8.53       1.0  T
   5    -45.4997767 -0.107299E-05  0.138E-02    8.53       1.5  T
   6    -45.4997771 -0.367474E-06  0.544E-03    8.53       3.8  T
   7    -45.4997772 -0.832816E-07  0.226E-03    8.53       9.2  T
speedup  0.94
cpu  time for SCC    0.01 s
wall time for SCC    0.01 s
speedup  0.97
cpu  time for grad    0.01 s
wall time for grad    0.01 s
 E :    -45.30164229  G :  0.066242    pred/act E change: -0.214D-01 -0.172D-01
Maxdispl :   0.1619   ||displ|| :   0.4398   Lambda : -0.117D-01
Largest |displ|/coords:  0.1619 (  16)  0.1570 (  12)  0.1537 (   3)
................................................................................
.............................. CYCLE    5 ......................................
................................................................................
   1    -45.5111243 -0.455111E+02  0.317E-01    8.69       0.0  T
   2    -45.5116689 -0.544580E-03  0.220E-01    8.72       1.0  T
   3    -45.5119051 -0.236174E-03  0.932E-02    8.78       1.0  T
   4    -45.5119167 -0.115707E-04  0.149E-02    8.78       1.4  T
   5    -45.5119170 -0.286314E-06  0.711E-03    8.78       2.9  T
   6    -45.5119171 -0.108100E-06  0.312E-03    8.78       6.7  T
   7    -45.5119171 -0.281771E-07  0.132E-03    8.78      15.9  T
speedup  0.94
cpu  time for SCC    0.01 s
wall time for SCC    0.01 s
speedup  0.98
cpu  time for grad    0.01 s
wall time for grad    0.01 s
 E :    -45.30879131  G :  0.047513    pred/act E change: -0.147D-01 -0.715D-02
Maxdispl :   0.4330   ||displ|| :   0.7203   Lambda : -0.149D-01
Largest |displ|/coords:  0.4330 (   9)  0.2751 (   8)  0.2184 (  16)
................................................................................
.............................. CYCLE    6 ......................................
................................................................................
   1    -45.4941069 -0.454941E+02  0.964E-01    8.94       0.0  T
   2    -45.4977519 -0.364501E-02  0.638E-01    8.95       1.0  T
   3    -45.4990147 -0.126279E-02  0.255E-01    8.96       1.0  T
   4    -45.4991268 -0.112108E-03  0.419E-02    8.97       1.0  T
   5    -45.4991338 -0.703612E-05  0.247E-02    8.97       1.0  T
   6    -45.4991348 -0.985900E-06  0.794E-03    8.96       2.6  T
   7    -45.4991349 -0.974435E-07  0.224E-03    8.96       9.3  T
   8    -45.4991349 -0.129490E-07  0.113E-03    8.96      18.4  T
speedup  1.13
cpu  time for SCC    0.01 s
wall time for SCC    0.01 s
speedup  0.98
cpu  time for grad    0.01 s
wall time for grad    0.01 s
 E :    -45.30790881  G :  0.093521    pred/act E change: -0.698D-02  0.882D-03
Maxdispl :   0.2476   ||displ|| :   0.5276   Lambda : -0.267D-01
Largest |displ|/coords:  0.2476 (   9)  0.2252 (   8)  0.1983 (   3)
................................................................................
.............................. CYCLE    7 ......................................
................................................................................
   1    -45.5242456 -0.455242E+02  0.782E-01    9.12       0.0  T
   2    -45.5252645 -0.101894E-02  0.562E-01    9.09       1.0  T
   3    -45.5257821 -0.517565E-03  0.161E-01    9.03       1.0  T
   4    -45.5258664 -0.842844E-04  0.294E-02    9.03       1.0  T
   5    -45.5258691 -0.267824E-05  0.170E-02    9.03       1.2  T
   6    -45.5258695 -0.385049E-06  0.532E-03    9.03       3.9  T
   7    -45.5258695 -0.891440E-07  0.138E-03    9.03      15.1  T
speedup  0.96
cpu  time for SCC    0.00 s
wall time for SCC    0.01 s
speedup  0.98
cpu  time for grad    0.01 s
wall time for grad    0.01 s
 E :    -45.31215168  G :  0.062287    pred/act E change: -0.113D-01 -0.424D-02
Maxdispl :   0.1223   ||displ|| :   0.3358   Lambda : -0.818D-02
Largest |displ|/coords:  0.1223 (   7)  0.1180 (   8)  0.1095 (  16)
................................................................................
.............................. CYCLE    8 ......................................
................................................................................
   1    -45.5186239 -0.455186E+02  0.439E-01    9.08       0.0  T
   2    -45.5190131 -0.389180E-03  0.308E-01    9.08       1.0  T
   3    -45.5191725 -0.159360E-03  0.950E-02    9.09       1.0  T
   4    -45.5191974 -0.249312E-04  0.151E-02    9.09       1.4  T
   5    -45.5191977 -0.319781E-06  0.786E-03    9.09       2.7  T
   6    -45.5191979 -0.176710E-06  0.346E-03    9.09       6.0  T
   7    -45.5191979 -0.177204E-07  0.891E-04    9.09      23.4  T
speedup  1.15
cpu  time for SCC    0.01 s
wall time for SCC    0.01 s
speedup  1.07
cpu  time for grad    0.01 s
wall time for grad    0.01 s
 E :    -45.31617856  G :  0.029230    pred/act E change: -0.171D-01 -0.403D-02
Maxdispl :   0.1094   ||displ|| :   0.2014   Lambda : -0.111D-02
Largest |displ|/coords:  0.1094 (   4)  0.0934 (   6)  0.0862 (   3)
................................................................................
.............................. CYCLE    9 ......................................
................................................................................
   1    -45.5221322 -0.455221E+02  0.982E-02    9.12       0.0  T
   2    -45.5221396 -0.736747E-05  0.712E-02    9.11       1.0  T
   3    -45.5221438 -0.424459E-05  0.177E-02    9.09       1.2  T
   4    -45.5221444 -0.596720E-06  0.603E-03    9.09       3.5  T
   5    -45.5221444 -0.407602E-07  0.141E-03    9.10      14.8  T
   6    -45.5221444 -0.287860E-08  0.816E-04    9.10      25.5  T
speedup  0.87
cpu  time for SCC    0.00 s
wall time for SCC    0.00 s
speedup  0.94
cpu  time for grad    0.01 s
wall time for grad    0.01 s
 E :    -45.31701656  G :  0.017312    pred/act E change: -0.455D-02 -0.838D-03
Maxdispl :   0.2267   ||displ|| :   0.4177   Lambda : -0.181D-02
Largest |displ|/coords:  0.2267 (   4)  0.1819 (   6)  0.1344 (   3)
................................................................................
.............................. CYCLE   10 ......................................
................................................................................
   1    -45.5273357 -0.455273E+02  0.217E-01    9.16       0.0  T
   2    -45.5273970 -0.613899E-04  0.158E-01    9.14       1.0  T
   3    -45.5274294 -0.323683E-04  0.454E-02    9.09       1.0  T
   4    -45.5274348 -0.539846E-05  0.127E-02    9.09       1.6  T
   5    -45.5274350 -0.207173E-06  0.442E-03    9.10       4.7  T
   6    -45.5274350 -0.293162E-07  0.254E-03    9.10       8.2  T
   7    -45.5274351 -0.750448E-08  0.690E-04    9.10      30.2  T
speedup  0.93
cpu  time for SCC    0.01 s
wall time for SCC    0.01 s
speedup  0.96
cpu  time for grad    0.01 s
wall time for grad    0.01 s
 E :    -45.31813085  G :  0.017190    pred/act E change: -0.576D-03 -0.111D-02
Maxdispl :   0.1873   ||displ|| :   0.4399   Lambda : -0.190D-02
Largest |displ|/coords:  0.1873 (   6)  0.1701 (   4)  0.1466 (   2)
................................................................................
.............................. CYCLE   11 ......................................
................................................................................
   1    -45.5309431 -0.455309E+02  0.273E-01    9.20       0.0  T
   2    -45.5310708 -0.127636E-03  0.198E-01    9.16       1.0  T
   3    -45.5311325 -0.617453E-04  0.672E-02    9.10       1.0  T
   4    -45.5311424 -0.985578E-05  0.208E-02    9.10       1.0  T
   5    -45.5311432 -0.863963E-06  0.599E-03    9.10       3.5  T
   6    -45.5311433 -0.563514E-07  0.344E-03    9.10       6.1  T
   7    -45.5311433 -0.128139E-07  0.960E-04    9.10      21.7  T
   8    -45.5311433 -0.181284E-08  0.222E-04    9.10      93.8  T
speedup  0.98
cpu  time for SCC    0.01 s
wall time for SCC    0.01 s
speedup  0.99
cpu  time for grad    0.01 s
wall time for grad    0.01 s
 E :    -45.31885768  G :  0.017791    pred/act E change: -0.106D-02 -0.727D-03
Maxdispl :   0.1565   ||displ|| :   0.2518   Lambda : -0.122D-02
Largest |displ|/coords:  0.1565 (   4)  0.1048 (   6)  0.0908 (   2)
................................................................................
.............................. CYCLE   12 ......................................
................................................................................
   1    -45.5323770 -0.455324E+02  0.142E-01    9.12       0.0  T
   2    -45.5323967 -0.197256E-04  0.108E-01    9.10       1.0  T
   3    -45.5324065 -0.980478E-05  0.320E-02    9.07       1.0  T
   4    -45.5324090 -0.248473E-05  0.126E-02    9.08       1.7  T
   5    -45.5324092 -0.200668E-06  0.298E-03    9.08       7.0  T
   6    -45.5324092 -0.163914E-07  0.166E-03    9.08      12.6  T
speedup  0.85
cpu  time for SCC    0.00 s
wall time for SCC    0.00 s
speedup  0.93
cpu  time for grad    0.01 s
wall time for grad    0.01 s
 E :    -45.31970063  G :  0.022215    pred/act E change: -0.113D-02 -0.843D-03
Maxdispl :   0.2388   ||displ|| :   0.4307   Lambda : -0.197D-02
Largest |displ|/coords:  0.2388 (   4)  0.1362 (   6)  0.1334 (   2)
................................................................................
.............................. CYCLE   13 ......................................
................................................................................
   1    -45.5350536 -0.455351E+02  0.307E-01    9.06       0.0  T
   2    -45.5352256 -0.171959E-03  0.239E-01    9.04       1.0  T
   3    -45.5353006 -0.749920E-04  0.957E-02    9.02       1.0  T
   4    -45.5353171 -0.164777E-04  0.369E-02    9.03       1.0  T
   5    -45.5353188 -0.170313E-05  0.840E-03    9.03       2.5  T
   6    -45.5353189 -0.128603E-06  0.438E-03    9.03       4.8  T
   7    -45.5353189 -0.286827E-07  0.145E-03    9.03      14.3  T
speedup  0.94
cpu  time for SCC    0.00 s
wall time for SCC    0.01 s
speedup  0.96
cpu  time for grad    0.01 s
wall time for grad    0.01 s
 E :    -45.32124103  G :  0.039458    pred/act E change: -0.648D-03 -0.154D-02
Maxdispl :   0.2835   ||displ|| :   0.6327   Lambda : -0.343D-02
Largest |displ|/coords:  0.2835 (   4)  0.2451 (   6)  0.1961 (  11)
................................................................................
.............................. CYCLE   14 ......................................
................................................................................
   1    -45.5446867 -0.455447E+02  0.466E-01    8.99       0.0  T
   2    -45.5450128 -0.326119E-03  0.359E-01    8.97       1.0  T
   3    -45.5451843 -0.171450E-03  0.132E-01    8.97       1.0  T
   4    -45.5452190 -0.347031E-04  0.536E-02    8.99       1.0  T
   5    -45.5452223 -0.331213E-05  0.130E-02    8.99       1.6  T
   6    -45.5452226 -0.333603E-06  0.693E-03    8.99       3.0  T
   7    -45.5452227 -0.535979E-07  0.228E-03    8.99       9.1  T
   8    -45.5452227 -0.864787E-08  0.568E-04    8.99      36.7  T
speedup  0.98
cpu  time for SCC    0.01 s
wall time for SCC    0.01 s
speedup  0.99
cpu  time for grad    0.01 s
wall time for grad    0.01 s
 E :    -45.32290269  G :  0.065377    pred/act E change: -0.117D-02 -0.166D-02
Maxdispl :   0.1374   ||displ|| :   0.2917   Lambda : -0.728D-02
Largest |displ|/coords:  0.1374 (  18)  0.1156 (  24)  0.1090 (  23)
................................................................................
.............................. CYCLE   15 ......................................
................................................................................
   1    -45.5364678 -0.455365E+02  0.332E-01    8.96       0.0  T
   2    -45.5368807 -0.412949E-03  0.246E-01    8.97       1.0  T
   3    -45.5370691 -0.188375E-03  0.116E-01    8.97       1.0  T
   4    -45.5370907 -0.216001E-04  0.430E-02    8.97       1.0  T
   5    -45.5370940 -0.331884E-05  0.113E-02    8.97       1.8  T
   6    -45.5370943 -0.281044E-06  0.691E-03    8.97       3.0  T
   7    -45.5370943 -0.454999E-07  0.181E-03    8.96      11.5  T
   8    -45.5370944 -0.657538E-08  0.625E-04    8.96      33.3  T
speedup  1.00
cpu  time for SCC    0.01 s
wall time for SCC    0.01 s
speedup  1.00
cpu  time for grad    0.01 s
wall time for grad    0.01 s
 E :    -45.32336001  G :  0.042408    pred/act E change: -0.240D-02 -0.457D-03
Maxdispl :   0.1555   ||displ|| :   0.3165   Lambda : -0.399D-02
Largest |displ|/coords:  0.1555 (   6)  0.1350 (  18)  0.1280 (   4)
................................................................................
.............................. CYCLE   16 ......................................
................................................................................
   1    -45.5455939 -0.455456E+02  0.241E-01    9.00       0.0  T
   2    -45.5457147 -0.120768E-03  0.178E-01    9.00       1.0  T
   3    -45.5457734 -0.587594E-04  0.671E-02    9.00       1.0  T
   4    -45.5457830 -0.951791E-05  0.253E-02    9.01       1.0  T
   5    -45.5457839 -0.930433E-06  0.725E-03    9.01       2.9  T
   6    -45.5457839 -0.548680E-07  0.364E-03    9.01       5.7  T
   7    -45.5457840 -0.190967E-07  0.992E-04    9.01      21.0  T
speedup  1.13
cpu  time for SCC    0.01 s
wall time for SCC    0.01 s
speedup  1.06
cpu  time for grad    0.01 s
wall time for grad    0.01 s
 E :    -45.32658888  G :  0.038892    pred/act E change: -0.395D-02 -0.323D-02
Maxdispl :   0.2334   ||displ|| :   0.6026   Lambda : -0.712D-02
Largest |displ|/coords:  0.2334 (   4)  0.2255 (  18)  0.2098 (   6)
................................................................................
.............................. CYCLE   17 ......................................
................................................................................
   1    -45.5703105 -0.455703E+02  0.506E-01    9.04       0.0  T
   2    -45.5707218 -0.411251E-03  0.369E-01    9.06       1.0  T
   3    -45.5709930 -0.271196E-03  0.141E-01    9.09       1.0  T
   4    -45.5710258 -0.328483E-04  0.470E-02    9.10       1.0  T
   5    -45.5710291 -0.327989E-05  0.159E-02    9.10       1.3  T
   6    -45.5710293 -0.222310E-06  0.774E-03    9.10       2.7  T
   7    -45.5710294 -0.804292E-07  0.275E-03    9.10       7.6  T
   8    -45.5710294 -0.905836E-08  0.567E-04    9.10      36.8  T
speedup  1.00
cpu  time for SCC    0.01 s
wall time for SCC    0.01 s
speedup  1.00
cpu  time for grad    0.01 s
wall time for grad    0.01 s
 E :    -45.32436853  G :  0.105620    pred/act E change: -0.220D-02  0.222D-02
Maxdispl :   0.1469   ||displ|| :   0.4278   Lambda : -0.308D-01
Largest |displ|/coords:  0.1469 (  23)  0.1428 (  24)  0.1360 (  18)
................................................................................
.............................. CYCLE   18 ......................................
................................................................................
   1    -45.5367685 -0.455368E+02  0.591E-01    9.02       0.0  T
   2    -45.5377958 -0.102738E-02  0.410E-01    9.00       1.0  T
   3    -45.5383008 -0.504965E-03  0.174E-01    8.95       1.0  T
   4    -45.5383594 -0.586485E-04  0.601E-02    8.94       1.0  T
   5    -45.5383658 -0.633853E-05  0.196E-02    8.94       1.1  T
   6    -45.5383670 -0.119422E-05  0.120E-02    8.94       1.7  T
   7    -45.5383671 -0.162012E-06  0.287E-03    8.94       7.3  T
   8    -45.5383672 -0.275748E-07  0.634E-04    8.94      32.9  T
speedup  0.98
cpu  time for SCC    0.01 s
wall time for SCC    0.01 s
speedup  1.06
cpu  time for grad    0.01 s
wall time for grad    0.01 s
 E :    -45.32504083  G :  0.051377    pred/act E change: -0.485D-02 -0.672D-03
Maxdispl :   0.1069   ||displ|| :   0.2960   Lambda : -0.867D-02
Largest |displ|/coords:  0.1069 (   9)  0.1044 (  11)  0.0770 (  12)
................................................................................
.............................. CYCLE   19 ......................................
................................................................................
   1    -45.5637314 -0.455637E+02  0.348E-01    9.06       0.0  T
   2    -45.5640551 -0.323705E-03  0.244E-01    9.08       1.0  T
   3    -45.5642306 -0.175404E-03  0.989E-02    9.12       1.0  T
   4    -45.5642465 -0.159784E-04  0.323E-02    9.12       1.0  T
   5    -45.5642485 -0.194266E-05  0.112E-02    9.13       1.9  T
   6    -45.5642486 -0.879408E-07  0.541E-03    9.13       3.9  T
   7    -45.5642486 -0.408626E-07  0.148E-03    9.13      14.1  T
speedup  0.94
cpu  time for SCC    0.00 s
wall time for SCC    0.01 s
speedup  0.97
cpu  time for grad    0.01 s
wall time for grad    0.01 s
 E :    -45.32973672  G :  0.043237    pred/act E change: -0.182D-01 -0.470D-02
Maxdispl :   0.3143   ||displ|| :   0.5507   Lambda : -0.574D-02
Largest |displ|/coords:  0.3143 (   4)  0.2045 (   8)  0.2035 (   7)
................................................................................
.............................. CYCLE   20 ......................................
................................................................................
   1    -45.5652260 -0.455652E+02  0.433E-01    8.96       0.0  T
   2    -45.5654752 -0.249196E-03  0.308E-01    8.97       1.0  T
   3    -45.5656330 -0.157820E-03  0.105E-01    8.96       1.0  T
   4    -45.5656526 -0.196123E-04  0.311E-02    8.94       1.0  T
   5    -45.5656544 -0.173553E-05  0.124E-02    8.95       1.7  T
   6    -45.5656545 -0.157901E-06  0.596E-03    8.95       3.5  T
   7    -45.5656546 -0.459431E-07  0.187E-03    8.95      11.1  T
speedup  0.96
cpu  time for SCC    0.00 s
wall time for SCC    0.01 s
speedup  0.98
cpu  time for grad    0.01 s
wall time for grad    0.01 s
 E :    -45.32707684  G :  0.087130    pred/act E change: -0.472D-02  0.266D-02
Maxdispl :   0.1439   ||displ|| :   0.4161   Lambda : -0.221D-01
Largest |displ|/coords:  0.1439 (   8)  0.1377 (   7)  0.1241 (  18)
................................................................................
.............................. CYCLE   21 ......................................
................................................................................
   1    -45.5516448 -0.455516E+02  0.527E-01    9.09       0.0  T
   2    -45.5522796 -0.634730E-03  0.357E-01    9.07       1.0  T
   3    -45.5526227 -0.343108E-03  0.139E-01    9.04       1.0  T
   4    -45.5526616 -0.389085E-04  0.430E-02    9.04       1.0  T
   5    -45.5526646 -0.304067E-05  0.164E-02    9.03       1.3  T
   6    -45.5526652 -0.609302E-06  0.938E-03    9.03       2.2  T
   7    -45.5526654 -0.111513E-06  0.304E-03    9.03       6.9  T
   8    -45.5526654 -0.167459E-07  0.631E-04    9.03      33.0  T
speedup  1.00
cpu  time for SCC    0.01 s
wall time for SCC    0.01 s
speedup  0.98
cpu  time for grad    0.01 s
wall time for grad    0.01 s
 E :    -45.32777885  G :  0.053085    pred/act E change: -0.374D-02 -0.702D-03
Maxdispl :   0.0878   ||displ|| :   0.2503   Lambda : -0.742D-02
Largest |displ|/coords:  0.0878 (   7)  0.0824 (  18)  0.0809 (   8)
................................................................................
.............................. CYCLE   22 ......................................
................................................................................
   1    -45.5609461 -0.455609E+02  0.306E-01    9.00       0.0  T
   2    -45.5611521 -0.205947E-03  0.209E-01    9.02       1.0  T
   3    -45.5612716 -0.119520E-03  0.773E-02    9.05       1.0  T
   4    -45.5612823 -0.107252E-04  0.226E-02    9.05       1.0  T
   5    -45.5612832 -0.907251E-06  0.977E-03    9.05       2.1  T
   6    -45.5612833 -0.122847E-06  0.443E-03    9.05       4.7  T
   7    -45.5612834 -0.286757E-07  0.164E-03    9.05      12.7  T
speedup  0.94
cpu  time for SCC    0.01 s
wall time for SCC    0.01 s
speedup  0.97
cpu  time for grad    0.01 s
wall time for grad    0.01 s
 E :    -45.33183219  G :  0.016877    pred/act E change: -0.129D-01 -0.405D-02
Maxdispl :   0.1237   ||displ|| :   0.2889   Lambda : -0.132D-02
Largest |displ|/coords:  0.1237 (   6)  0.1119 (   2)  0.1108 (   3)
................................................................................
.............................. CYCLE   23 ......................................
................................................................................
   1    -45.5666873 -0.455667E+02  0.187E-01    9.04       0.0  T
   2    -45.5667192 -0.318349E-04  0.135E-01    9.05       1.0  T
   3    -45.5667385 -0.193699E-04  0.353E-02    9.03       1.0  T
   4    -45.5667417 -0.317913E-05  0.124E-02    9.02       1.7  T
   5    -45.5667419 -0.233622E-06  0.480E-03    9.02       4.3  T
   6    -45.5667420 -0.333859E-07  0.234E-03    9.02       8.9  T
   7    -45.5667420 -0.881189E-08  0.723E-04    9.02      28.8  T
speedup  0.94
cpu  time for SCC    0.00 s
wall time for SCC    0.01 s
speedup  0.97
cpu  time for grad    0.01 s
wall time for grad    0.01 s
 E :    -45.33227319  G :  0.026534    pred/act E change: -0.394D-02 -0.441D-03
Maxdispl :   0.0833   ||displ|| :   0.1315   Lambda : -0.837D-03
Largest |displ|/coords:  0.0833 (   6)  0.0482 (   1)  0.0468 (   4)
................................................................................
.............................. CYCLE   24 ......................................
................................................................................
   1    -45.5662180 -0.455662E+02  0.887E-02    9.03       0.0  T
   2    -45.5662267 -0.872402E-05  0.646E-02    9.03       1.0  T
   3    -45.5662309 -0.426861E-05  0.217E-02    9.03       1.0  T
   4    -45.5662317 -0.799641E-06  0.595E-03    9.03       3.5  T
   5    -45.5662318 -0.700187E-07  0.202E-03    9.03      10.3  T
speedup  1.03
cpu  time for SCC    0.00 s
wall time for SCC    0.00 s
speedup  1.00
cpu  time for grad    0.01 s
wall time for grad    0.01 s
 E :    -45.33282668  G :  0.017123    pred/act E change: -0.715D-03 -0.553D-03
Maxdispl :   0.1607   ||displ|| :   0.2567   Lambda : -0.816D-03
Largest |displ|/coords:  0.1607 (   6)  0.1021 (   4)  0.0939 (   1)
................................................................................
.............................. CYCLE   25 ......................................
................................................................................
   1    -45.5662582 -0.455663E+02  0.123E-01    8.99       0.0  T
   2    -45.5662746 -0.163528E-04  0.926E-02    8.98       1.0  T
   3    -45.5662827 -0.813780E-05  0.276E-02    8.94       1.0  T
   4    -45.5662846 -0.190302E-05  0.811E-03    8.94       2.6  T
   5    -45.5662847 -0.137148E-06  0.266E-03    8.95       7.8  T
   6    -45.5662847 -0.939855E-08  0.140E-03    8.95      14.9  T
speedup  0.65
cpu  time for SCC    0.00 s
wall time for SCC    0.00 s
speedup  0.85
cpu  time for grad    0.01 s
wall time for grad    0.01 s
 E :    -45.33346537  G :  0.015028    pred/act E change: -0.426D-03 -0.639D-03
Maxdispl :   0.2370   ||displ|| :   0.4287   Lambda : -0.140D-02
Largest |displ|/coords:  0.2370 (   6)  0.1558 (   1)  0.1435 (   4)

generating ANC from model Hessian ...
 Shifting diagonal of input Hessian by   4.982251198761756E-003
 Lowest  eigenvalues of input Hessian
   -0.000000   -0.000000   -0.000000    0.000000    0.000000    0.000000
    0.005000    0.005083    0.005231    0.005944    0.006055    0.007015
    0.007990    0.008498    0.009588    0.010730    0.012171    0.012272
 Highest eigenvalues
    1.361249    1.364333    1.375538    2.673238    3.383997    3.648118
 
cpu  time for ANC gen    0.00 s
wall time for ANC gen    0.00 s
................................................................................
.............................. CYCLE   26 ......................................
................................................................................
   1    -45.5685895 -0.455686E+02  0.245E-01    8.88       0.0  T
   2    -45.5686793 -0.898271E-04  0.183E-01    8.85       1.0  T
   3    -45.5687307 -0.513754E-04  0.559E-02    8.78       1.0  T
   4    -45.5687401 -0.940833E-05  0.195E-02    8.78       1.1  T
   5    -45.5687408 -0.744735E-06  0.661E-03    8.78       3.2  T
   6    -45.5687409 -0.567737E-07  0.319E-03    8.78       6.5  T
   7    -45.5687409 -0.139758E-07  0.851E-04    8.78      24.5  T
   8    -45.5687409 -0.187097E-08  0.222E-04    8.78      93.7  T
speedup  1.02
cpu  time for SCC    0.01 s
wall time for SCC    0.01 s
speedup  1.05
cpu  time for grad    0.01 s
wall time for grad    0.01 s
 E :    -45.33462934  G :  0.026626    pred/act E change:  0.000D+00 -0.116D-02
Maxdispl :   0.0970   ||displ|| :   0.1887   Lambda : -0.137D-02
Largest |displ|/coords:  0.0970 (   4)  0.0763 (  15)  0.0733 (  14)
................................................................................
.............................. CYCLE   27 ......................................
................................................................................
   1    -45.5710433 -0.455710E+02  0.106E-01    8.80       0.0  T
   2    -45.5710501 -0.685479E-05  0.784E-02    8.80       1.0  T
   3    -45.5710539 -0.372408E-05  0.153E-02    8.79       1.4  T
   4    -45.5710547 -0.828065E-06  0.558E-03    8.79       3.7  T
   5    -45.5710548 -0.633384E-07  0.168E-03    8.79      12.4  T
speedup  1.05
cpu  time for SCC    0.00 s
wall time for SCC    0.00 s
speedup  1.01
cpu  time for grad    0.01 s
wall time for grad    0.01 s
 E :    -45.33560161  G :  0.019474    pred/act E change:  0.000D+00 -0.972D-03
Maxdispl :   0.1614   ||displ|| :   0.2833   Lambda : -0.133D-02
Largest |displ|/coords:  0.1614 (   4)  0.1154 (   3)  0.0816 (  17)
................................................................................
.............................. CYCLE   28 ......................................
................................................................................
   1    -45.5740875 -0.455741E+02  0.171E-01    8.80       0.0  T
   2    -45.5741038 -0.162841E-04  0.127E-01    8.80       1.0  T
   3    -45.5741137 -0.995670E-05  0.231E-02    8.81       1.0  T
   4    -45.5741157 -0.198819E-05  0.864E-03    8.80       2.4  T
   5    -45.5741158 -0.126604E-06  0.282E-03    8.80       7.4  T
   6    -45.5741158 -0.828516E-08  0.146E-03    8.80      14.3  T
speedup  1.11
cpu  time for SCC    0.00 s
wall time for SCC    0.00 s
speedup  1.04
cpu  time for grad    0.01 s
wall time for grad    0.01 s
 E :    -45.33656579  G :  0.022704    pred/act E change: -0.707D-03 -0.964D-03
Maxdispl :   0.2021   ||displ|| :   0.3693   Lambda : -0.153D-02
Largest |displ|/coords:  0.2021 (   4)  0.1866 (   3)  0.0826 (   5)
................................................................................
.............................. CYCLE   29 ......................................
................................................................................
   1    -45.5777884 -0.455778E+02  0.210E-01    8.82       0.0  T
   2    -45.5778262 -0.378094E-04  0.157E-01    8.82       1.0  T
   3    -45.5778514 -0.251619E-04  0.353E-02    8.81       1.0  T
   4    -45.5778562 -0.480867E-05  0.119E-02    8.81       1.7  T
   5    -45.5778564 -0.206202E-06  0.438E-03    8.81       4.8  T
   6    -45.5778564 -0.196231E-07  0.217E-03    8.81       9.6  T
speedup  1.11
cpu  time for SCC    0.01 s
wall time for SCC    0.00 s
speedup  1.02
cpu  time for grad    0.01 s
wall time for grad    0.01 s
 E :    -45.33790071  G :  0.029161    pred/act E change: -0.720D-03 -0.133D-02
Maxdispl :   0.2895   ||displ|| :   0.5922   Lambda : -0.357D-02
Largest |displ|/coords:  0.2895 (   3)  0.2427 (   4)  0.1367 (  50)
................................................................................
.............................. CYCLE   30 ......................................
................................................................................
   1    -45.5907396 -0.455907E+02  0.344E-01    8.87       0.0  T
   2    -45.5908955 -0.155979E-03  0.262E-01    8.85       1.0  T
   3    -45.5910107 -0.115177E-03  0.775E-02    8.81       1.0  T
   4    -45.5910283 -0.176207E-04  0.291E-02    8.81       1.0  T
   5    -45.5910298 -0.143052E-05  0.926E-03    8.82       2.3  T
   6    -45.5910298 -0.738226E-07  0.462E-03    8.82       4.5  T
   7    -45.5910299 -0.259978E-07  0.104E-03    8.82      20.1  T
speedup  1.15
cpu  time for SCC    0.01 s
wall time for SCC    0.01 s
speedup  1.06
cpu  time for grad    0.01 s
wall time for grad    0.01 s
 E :    -45.34032041  G :  0.040323    pred/act E change: -0.872D-03 -0.242D-02
Maxdispl :   0.1580   ||displ|| :   0.2936   Lambda : -0.257D-02
Largest |displ|/coords:  0.1580 (   3)  0.1007 (  21)  0.0693 (  20)
................................................................................
.............................. CYCLE   31 ......................................
................................................................................
   1    -45.5985022 -0.455985E+02  0.180E-01    8.83       0.0  T
   2    -45.5985656 -0.633369E-04  0.138E-01    8.82       1.0  T
   3    -45.5986044 -0.388446E-04  0.533E-02    8.79       1.0  T
   4    -45.5986111 -0.670298E-05  0.179E-02    8.79       1.2  T
   5    -45.5986118 -0.697315E-06  0.539E-03    8.79       3.9  T
   6    -45.5986118 -0.329217E-07  0.287E-03    8.79       7.3  T
speedup  1.11
cpu  time for SCC    0.00 s
wall time for SCC    0.00 s
speedup  1.04
cpu  time for grad    0.01 s
wall time for grad    0.01 s
 E :    -45.34255005  G :  0.041009    pred/act E change: -0.241D-02 -0.223D-02
Maxdispl :   0.2259   ||displ|| :   0.5349   Lambda : -0.752D-02
Largest |displ|/coords:  0.2259 (  21)  0.1988 (  17)  0.1550 (   3)
................................................................................
.............................. CYCLE   32 ......................................
................................................................................
   1    -45.6067430 -0.456067E+02  0.343E-01    8.82       0.0  T
   2    -45.6070261 -0.283103E-03  0.263E-01    8.78       1.0  T
   3    -45.6072018 -0.175780E-03  0.119E-01    8.71       1.0  T
   4    -45.6072280 -0.261153E-04  0.362E-02    8.69       1.0  T
   5    -45.6072309 -0.294073E-05  0.122E-02    8.70       1.7  T
   6    -45.6072311 -0.163688E-06  0.633E-03    8.70       3.3  T
   7    -45.6072311 -0.490586E-07  0.163E-03    8.70      12.8  T
   8    -45.6072311 -0.594445E-08  0.503E-04    8.70      41.4  T
speedup  1.02
cpu  time for SCC    0.01 s
wall time for SCC    0.01 s
speedup  1.00
cpu  time for grad    0.01 s
wall time for grad    0.01 s
 E :    -45.34671706  G :  0.030538    pred/act E change: -0.139D-02 -0.417D-02
Maxdispl :   0.1094   ||displ|| :   0.3116   Lambda : -0.223D-02
Largest |displ|/coords:  0.1094 (   7)  0.1009 (  21)  0.0888 (   2)
................................................................................
.............................. CYCLE   33 ......................................
................................................................................
   1    -45.6150698 -0.456151E+02  0.199E-01    8.66       0.0  T
   2    -45.6151200 -0.501272E-04  0.149E-01    8.65       1.0  T
   3    -45.6151556 -0.356357E-04  0.481E-02    8.64       1.0  T
   4    -45.6151610 -0.540344E-05  0.158E-02    8.63       1.3  T
   5    -45.6151614 -0.433601E-06  0.528E-03    8.63       3.9  T
   6    -45.6151615 -0.319267E-07  0.302E-03    8.63       6.9  T
speedup  0.89
cpu  time for SCC    0.00 s
wall time for SCC    0.00 s
speedup  0.95
cpu  time for grad    0.01 s
wall time for grad    0.01 s
 E :    -45.34791074  G :  0.028730    pred/act E change: -0.483D-02 -0.119D-02
Maxdispl :   0.1084   ||displ|| :   0.2937   Lambda : -0.300D-02
Largest |displ|/coords:  0.1084 (   8)  0.0884 (  17)  0.0870 (  15)
................................................................................
.............................. CYCLE   34 ......................................
................................................................................
   1    -45.6071828 -0.456072E+02  0.210E-01    8.52       0.0  T
   2    -45.6072147 -0.318403E-04  0.155E-01    8.53       1.0  T
   3    -45.6072271 -0.124115E-04  0.387E-02    8.54       1.0  T
   4    -45.6072303 -0.327260E-05  0.118E-02    8.54       1.8  T
   5    -45.6072306 -0.233910E-06  0.278E-03    8.54       7.5  T
   6    -45.6072306 -0.947088E-08  0.134E-03    8.54      15.6  T
speedup  0.89
cpu  time for SCC    0.00 s
wall time for SCC    0.00 s
speedup  0.95
cpu  time for grad    0.01 s
wall time for grad    0.01 s
 E :    -45.34909351  G :  0.021345    pred/act E change: -0.122D-02 -0.118D-02
Maxdispl :   0.0967   ||displ|| :   0.2022   Lambda : -0.112D-02
Largest |displ|/coords:  0.0967 (   6)  0.0660 (   3)  0.0635 (  21)
................................................................................
.............................. CYCLE   35 ......................................
................................................................................
   1    -45.6102576 -0.456103E+02  0.162E-01    8.51       0.0  T
   2    -45.6102810 -0.233357E-04  0.122E-01    8.51       1.0  T
   3    -45.6102969 -0.159003E-04  0.357E-02    8.50       1.0  T
   4    -45.6102996 -0.269785E-05  0.108E-02    8.50       1.9  T
   5    -45.6102997 -0.197223E-06  0.365E-03    8.50       5.7  T
   6    -45.6102998 -0.187159E-07  0.206E-03    8.50      10.1  T
speedup  0.89
cpu  time for SCC    0.00 s
wall time for SCC    0.00 s
speedup  0.95
cpu  time for grad    0.01 s
wall time for grad    0.01 s
 E :    -45.34980909  G :  0.009972    pred/act E change: -0.163D-02 -0.716D-03
Maxdispl :   0.1125   ||displ|| :   0.2067   Lambda : -0.606D-03
Largest |displ|/coords:  0.1125 (   8)  0.0637 (  16)  0.0633 (   6)
................................................................................
.............................. CYCLE   36 ......................................
................................................................................
   1    -45.6139923 -0.456140E+02  0.130E-01    8.49       0.0  T
   2    -45.6140063 -0.140087E-04  0.962E-02    8.49       1.0  T
   3    -45.6140152 -0.891538E-05  0.270E-02    8.49       1.0  T
   4    -45.6140167 -0.145391E-05  0.797E-03    8.49       2.6  T
   5    -45.6140168 -0.104228E-06  0.263E-03    8.49       7.9  T
   6    -45.6140168 -0.968108E-08  0.154E-03    8.49      13.6  T
speedup  0.89
cpu  time for SCC    0.00 s
wall time for SCC    0.00 s
speedup  0.94
cpu  time for grad    0.01 s
wall time for grad    0.01 s
 E :    -45.35016661  G :  0.007728    pred/act E change: -0.581D-03 -0.358D-03
Maxdispl :   0.1327   ||displ|| :   0.2355   Lambda : -0.478D-03
Largest |displ|/coords:  0.1327 (   6)  0.0899 (   8)  0.0689 (  16)
................................................................................
.............................. CYCLE   37 ......................................
................................................................................
   1    -45.6129799 -0.456130E+02  0.199E-01    8.48       0.0  T
   2    -45.6129894 -0.953862E-05  0.149E-01    8.49       1.0  T
   3    -45.6129968 -0.733906E-05  0.228E-02    8.51       1.0  T
   4    -45.6129979 -0.119468E-05  0.725E-03    8.50       2.9  T
   5    -45.6129980 -0.619579E-07  0.228E-03    8.50       9.1  T
   6    -45.6129980 -0.618866E-08  0.138E-03    8.50      15.2  T
speedup  0.89
cpu  time for SCC    0.00 s
wall time for SCC    0.00 s
speedup  1.02
cpu  time for grad    0.01 s
wall time for grad    0.01 s
 E :    -45.35043488  G :  0.007643    pred/act E change: -0.316D-03 -0.268D-03
Maxdispl :   0.0753   ||displ|| :   0.1570   Lambda : -0.212D-03
Largest |displ|/coords:  0.0753 (   8)  0.0641 (   2)  0.0525 (   3)
................................................................................
.............................. CYCLE   38 ......................................
................................................................................
   1    -45.6118409 -0.456118E+02  0.107E-01    8.50       0.0  T
   2    -45.6118428 -0.196134E-05  0.800E-02    8.51       1.0  T
   3    -45.6118450 -0.221620E-05  0.103E-02    8.51       2.0  T
   4    -45.6118452 -0.151652E-06  0.268E-03    8.51       7.8  T
   5    -45.6118452 -0.110326E-07  0.122E-03    8.51      17.1  T
speedup  1.05
cpu  time for SCC    0.00 s
wall time for SCC    0.00 s
speedup  1.01
cpu  time for grad    0.01 s
wall time for grad    0.01 s
 E :    -45.35057002  G :  0.006518    pred/act E change: -0.252D-03 -0.135D-03
Maxdispl :   0.1141   ||displ|| :   0.1795   Lambda : -0.191D-03
Largest |displ|/coords:  0.1141 (   2)  0.0763 (   3)  0.0545 (   4)
................................................................................
.............................. CYCLE   39 ......................................
................................................................................
   1    -45.6117611 -0.456118E+02  0.821E-02    8.55       0.0  T
   2    -45.6117630 -0.189998E-05  0.620E-02    8.56       1.0  T
   3    -45.6117649 -0.196320E-05  0.829E-03    8.57       2.5  T
   4    -45.6117651 -0.195083E-06  0.398E-03    8.56       5.2  T
   5    -45.6117652 -0.171044E-07  0.104E-03    8.56      20.0  T
   6    -45.6117652 -0.122426E-08  0.608E-04    8.56      34.3  T
speedup  0.87
cpu  time for SCC    0.00 s
wall time for SCC    0.00 s
speedup  0.93
cpu  time for grad    0.01 s
wall time for grad    0.01 s
 E :    -45.35069207  G :  0.004826    pred/act E change: -0.109D-03 -0.122D-03
Maxdispl :   0.1791   ||displ|| :   0.2718   Lambda : -0.182D-03
Largest |displ|/coords:  0.1791 (   2)  0.1554 (   3)  0.0530 (   4)
................................................................................
.............................. CYCLE   40 ......................................
................................................................................
   1    -45.6114651 -0.456115E+02  0.125E-01    8.58       0.0  T
   2    -45.6114678 -0.262370E-05  0.934E-02    8.59       1.0  T
   3    -45.6114701 -0.237663E-05  0.105E-02    8.60       2.0  T
   4    -45.6114704 -0.303769E-06  0.404E-03    8.60       5.2  T
   5    -45.6114705 -0.159240E-07  0.122E-03    8.60      17.0  T
   6    -45.6114705 -0.169930E-08  0.716E-04    8.60      29.1  T
speedup  0.87
cpu  time for SCC    0.00 s
wall time for SCC    0.00 s
speedup  0.94
cpu  time for grad    0.01 s
wall time for grad    0.01 s
 E :    -45.35081765  G :  0.007289    pred/act E change: -0.987D-04 -0.126D-03
Maxdispl :   0.2463   ||displ|| :   0.3711   Lambda : -0.231D-03
Largest |displ|/coords:  0.2463 (   2)  0.2237 (   3)  0.0745 (  12)
................................................................................
.............................. CYCLE   41 ......................................
................................................................................
   1    -45.6123886 -0.456124E+02  0.155E-01    8.62       0.0  T
   2    -45.6123917 -0.303512E-05  0.116E-01    8.62       1.0  T
   3    -45.6123946 -0.295018E-05  0.126E-02    8.63       1.7  T
   4    -45.6123949 -0.305754E-06  0.468E-03    8.63       4.5  T
   5    -45.6123949 -0.213208E-07  0.139E-03    8.63      14.9  T
   6    -45.6123949 -0.196884E-08  0.813E-04    8.63      25.6  T
speedup  0.89
cpu  time for SCC    0.00 s
wall time for SCC    0.00 s
speedup  0.94
cpu  time for grad    0.01 s
wall time for grad    0.01 s
 E :    -45.35098899  G :  0.007925    pred/act E change: -0.980D-04 -0.171D-03
Maxdispl :   0.3096   ||displ|| :   0.4676   Lambda : -0.281D-03
Largest |displ|/coords:  0.3096 (   2)  0.2701 (   3)  0.0993 (  12)
................................................................................
.............................. CYCLE   42 ......................................
................................................................................
   1    -45.6108806 -0.456109E+02  0.211E-01    8.61       0.0  T
   2    -45.6108865 -0.595744E-05  0.157E-01    8.62       1.0  T
   3    -45.6108918 -0.525712E-05  0.190E-02    8.64       1.1  T
   4    -45.6108924 -0.653786E-06  0.608E-03    8.63       3.4  T
   5    -45.6108925 -0.441877E-07  0.210E-03    8.63       9.9  T
   6    -45.6108925 -0.525336E-08  0.115E-03    8.63      18.2  T
speedup  0.89
cpu  time for SCC    0.00 s
wall time for SCC    0.00 s
speedup  0.94
cpu  time for grad    0.01 s
wall time for grad    0.01 s
 E :    -45.35120423  G :  0.008998    pred/act E change: -0.131D-03 -0.215D-03
Maxdispl :   0.3224   ||displ|| :   0.4915   Lambda : -0.383D-03
Largest |displ|/coords:  0.3224 (   2)  0.2408 (   3)  0.1338 (  12)
................................................................................
.............................. CYCLE   43 ......................................
................................................................................
   1    -45.6127705 -0.456128E+02  0.221E-01    8.63       0.0  T
   2    -45.6127777 -0.717590E-05  0.164E-01    8.63       1.0  T
   3    -45.6127836 -0.586011E-05  0.230E-02    8.64       1.0  T
   4    -45.6127844 -0.826201E-06  0.783E-03    8.65       2.7  T
   5    -45.6127844 -0.688713E-07  0.212E-03    8.64       9.8  T
   6    -45.6127845 -0.488058E-08  0.129E-03    8.64      16.2  T
speedup  0.89
cpu  time for SCC    0.00 s
wall time for SCC    0.00 s
speedup  0.94
cpu  time for grad    0.01 s
wall time for grad    0.01 s
 E :    -45.35148755  G :  0.008701    pred/act E change: -0.171D-03 -0.283D-03
Maxdispl :   0.3652   ||displ|| :   0.5586   Lambda : -0.466D-03
Largest |displ|/coords:  0.3652 (   2)  0.2609 (   3)  0.1458 (  12)
................................................................................
.............................. CYCLE   44 ......................................
................................................................................
   1    -45.6106828 -0.456107E+02  0.262E-01    8.60       0.0  T
   2    -45.6106944 -0.115664E-04  0.194E-01    8.61       1.0  T
   3    -45.6107031 -0.875595E-05  0.278E-02    8.63       1.0  T
   4    -45.6107046 -0.142458E-05  0.997E-03    8.63       2.1  T
   5    -45.6107046 -0.952960E-07  0.276E-03    8.62       7.6  T
   6    -45.6107047 -0.835796E-08  0.162E-03    8.62      12.9  T
speedup  0.89
cpu  time for SCC    0.00 s
wall time for SCC    0.00 s
speedup  0.94
cpu  time for grad    0.01 s
wall time for grad    0.01 s
 E :    -45.35183924  G :  0.011315    pred/act E change: -0.237D-03 -0.352D-03
Maxdispl :   0.3313   ||displ|| :   0.5044   Lambda : -0.633D-03
Largest |displ|/coords:  0.3313 (   2)  0.1639 (   1)  0.1411 (  12)
................................................................................
.............................. CYCLE   45 ......................................
................................................................................
   1    -45.6143133 -0.456143E+02  0.227E-01    8.68       0.0  T
   2    -45.6143277 -0.143568E-04  0.168E-01    8.69       1.0  T
   3    -45.6143360 -0.830194E-05  0.264E-02    8.71       1.0  T
   4    -45.6143380 -0.200716E-05  0.102E-02    8.71       2.0  T
   5    -45.6143381 -0.115450E-06  0.241E-03    8.70       8.7  T
   6    -45.6143381 -0.530488E-08  0.136E-03    8.70      15.3  T
speedup  0.89
cpu  time for SCC    0.00 s
wall time for SCC    0.00 s
speedup  0.94
cpu  time for grad    0.01 s
wall time for grad    0.01 s
 E :    -45.35216039  G :  0.012628    pred/act E change: -0.306D-03 -0.321D-03
Maxdispl :   0.4633   ||displ|| :   0.6698   Lambda : -0.769D-03
Largest |displ|/coords:  0.4633 (   2)  0.3076 (   3)  0.1535 (   1)
................................................................................
.............................. CYCLE   46 ......................................
................................................................................
   1    -45.6079840 -0.456080E+02  0.308E-01    8.63       0.0  T
   2    -45.6080002 -0.161824E-04  0.229E-01    8.63       1.0  T
   3    -45.6080131 -0.129444E-04  0.291E-02    8.64       1.0  T
   4    -45.6080150 -0.194608E-05  0.108E-02    8.64       1.9  T
   5    -45.6080152 -0.121298E-06  0.321E-03    8.64       6.5  T
   6    -45.6080152 -0.962386E-08  0.188E-03    8.64      11.1  T
   7    -45.6080152 -0.407488E-08  0.554E-04    8.64      37.6  T
speedup  0.94
cpu  time for SCC    0.00 s
wall time for SCC    0.01 s
speedup  0.96
cpu  time for grad    0.01 s
wall time for grad    0.01 s
 E :    -45.35247274  G :  0.018400    pred/act E change: -0.397D-03 -0.312D-03
Maxdispl :   0.1487   ||displ|| :   0.2391   Lambda : -0.671D-03
Largest |displ|/coords:  0.1487 (   2)  0.0901 (   3)  0.0867 (  19)
................................................................................
.............................. CYCLE   47 ......................................
................................................................................
   1    -45.6111210 -0.456111E+02  0.120E-01    8.70       0.0  T
   2    -45.6111288 -0.785016E-05  0.890E-02    8.69       1.0  T
   3    -45.6111323 -0.345768E-05  0.200E-02    8.68       1.0  T
   4    -45.6111333 -0.101003E-05  0.558E-03    8.68       3.7  T
   5    -45.6111334 -0.731305E-07  0.177E-03    8.68      11.8  T
   6    -45.6111334 -0.219489E-08  0.100E-03    8.68      20.9  T
speedup  0.89
cpu  time for SCC    0.00 s
wall time for SCC    0.00 s
speedup  1.03
cpu  time for grad    0.01 s
wall time for grad    0.01 s
 E :    -45.35279028  G :  0.016214    pred/act E change: -0.557D-03 -0.318D-03
Maxdispl :   0.3233   ||displ|| :   0.4062   Lambda : -0.885D-03
Largest |displ|/coords:  0.3233 (   2)  0.1053 (   5)  0.0932 (   1)
................................................................................
.............................. CYCLE   48 ......................................
................................................................................
   1    -45.6127944 -0.456128E+02  0.165E-01    8.63       0.0  T
   2    -45.6128031 -0.870303E-05  0.123E-01    8.64       1.0  T
   3    -45.6128088 -0.570028E-05  0.185E-02    8.65       1.1  T
   4    -45.6128100 -0.119659E-05  0.666E-03    8.64       3.1  T
   5    -45.6128100 -0.622741E-07  0.205E-03    8.64      10.2  T
   6    -45.6128100 -0.369374E-08  0.117E-03    8.64      17.8  T
speedup  0.89
cpu  time for SCC    0.00 s
wall time for SCC    0.00 s
speedup  0.93
cpu  time for grad    0.01 s
wall time for grad    0.01 s
 E :    -45.35321153  G :  0.015094    pred/act E change: -0.355D-03 -0.421D-03
Maxdispl :   0.3648   ||displ|| :   0.4828   Lambda : -0.694D-03
Largest |displ|/coords:  0.3648 (   2)  0.1625 (   1)  0.1369 (   3)
................................................................................
.............................. CYCLE   49 ......................................
................................................................................
   1    -45.6150617 -0.456151E+02  0.185E-01    8.70       0.0  T
   2    -45.6150684 -0.672235E-05  0.139E-01    8.70       1.0  T
   3    -45.6150729 -0.449486E-05  0.176E-02    8.68       1.2  T
   4    -45.6150740 -0.105609E-05  0.614E-03    8.69       3.4  T
   5    -45.6150740 -0.386592E-07  0.192E-03    8.69      10.8  T
   6    -45.6150740 -0.419211E-08  0.101E-03    8.69      20.7  T
speedup  0.89
cpu  time for SCC    0.00 s
wall time for SCC    0.00 s
speedup  0.93
cpu  time for grad    0.01 s
wall time for grad    0.01 s
 E :    -45.35376193  G :  0.010138    pred/act E change: -0.515D-03 -0.550D-03
Maxdispl :   0.6236   ||displ|| :   0.8118   Lambda : -0.925D-03
Largest |displ|/coords:  0.6236 (   2)  0.2520 (   3)  0.2421 (   1)
................................................................................
.............................. CYCLE   50 ......................................
................................................................................
   1    -45.6090363 -0.456090E+02  0.349E-01    8.55       0.0  T
   2    -45.6090521 -0.158175E-04  0.261E-01    8.55       1.0  T
   3    -45.6090676 -0.154561E-04  0.289E-02    8.54       1.0  T
   4    -45.6090690 -0.144371E-05  0.114E-02    8.54       1.8  T
   5    -45.6090692 -0.126131E-06  0.333E-03    8.54       6.3  T
   6    -45.6090692 -0.104484E-07  0.196E-03    8.54      10.6  T
   7    -45.6090692 -0.446602E-08  0.521E-04    8.54      40.0  T
speedup  0.94
cpu  time for SCC    0.01 s
wall time for SCC    0.01 s
speedup  1.03
cpu  time for grad    0.01 s
wall time for grad    0.01 s
 E :    -45.35434572  G :  0.019077    pred/act E change: -0.428D-03 -0.584D-03
Maxdispl :   0.3381   ||displ|| :   0.4690   Lambda : -0.105D-02
Largest |displ|/coords:  0.3381 (   2)  0.1674 (   1)  0.1144 (  15)
................................................................................
.............................. CYCLE   51 ......................................
................................................................................
   1    -45.6156435 -0.456156E+02  0.206E-01    8.69       0.0  T
   2    -45.6156567 -0.131378E-04  0.153E-01    8.68       1.0  T
   3    -45.6156682 -0.115218E-04  0.239E-02    8.65       1.0  T
   4    -45.6156694 -0.120438E-05  0.885E-03    8.65       2.4  T
   5    -45.6156695 -0.107193E-06  0.267E-03    8.65       7.8  T
   6    -45.6156695 -0.771180E-08  0.149E-03    8.65      14.0  T
speedup  1.09
cpu  time for SCC    0.00 s
wall time for SCC    0.00 s
speedup  1.02
cpu  time for grad    0.01 s
wall time for grad    0.01 s
 E :    -45.35470156  G :  0.024758    pred/act E change: -0.767D-03 -0.356D-03
Maxdispl :   0.3733   ||displ|| :   0.4788   Lambda : -0.176D-02
Largest |displ|/coords:  0.3733 (   2)  0.1227 (  20)  0.1178 (   1)
................................................................................
.............................. CYCLE   52 ......................................
................................................................................
   1    -45.6184248 -0.456184E+02  0.204E-01    8.73       0.0  T
   2    -45.6184376 -0.127873E-04  0.153E-01    8.72       1.0  T
   3    -45.6184471 -0.954470E-05  0.223E-02    8.70       1.0  T
   4    -45.6184487 -0.160769E-05  0.665E-03    8.71       3.1  T
   5    -45.6184488 -0.435271E-07  0.261E-03    8.71       8.0  T
   6    -45.6184488 -0.447368E-08  0.131E-03    8.71      15.9  T
speedup  1.04
cpu  time for SCC    0.00 s
wall time for SCC    0.00 s
speedup  1.00
cpu  time for grad    0.01 s
wall time for grad    0.01 s
 E :    -45.35537335  G :  0.022931    pred/act E change: -0.641D-03 -0.672D-03
Maxdispl :   0.4398   ||displ|| :   0.5470   Lambda : -0.140D-02
Largest |displ|/coords:  0.4398 (   2)  0.1175 (   1)  0.1083 (   9)

generating ANC from model Hessian ...
 Shifting diagonal of input Hessian by   5.236003411476780E-003
 Lowest  eigenvalues of input Hessian
    0.005000    0.005154   -0.000000   -0.000000    0.000000    0.000000
    0.000000    0.000000    0.005258    0.005508    0.005850    0.006346
    0.006393    0.006643    0.006979    0.008268    0.009195    0.009405
 Highest eigenvalues
    1.386359    1.401191    1.407095    2.559427    3.119593    3.791499
 
cpu  time for ANC gen    0.01 s
wall time for ANC gen    0.01 s
................................................................................
.............................. CYCLE   53 ......................................
................................................................................
   1    -45.6146999 -0.456147E+02  0.256E-01    8.34       0.0  T
   2    -45.6147226 -0.226893E-04  0.187E-01    8.33       1.0  T
   3    -45.6147367 -0.140799E-04  0.366E-02    8.31       1.0  T
   4    -45.6147391 -0.238001E-05  0.123E-02    8.31       1.7  T
   5    -45.6147393 -0.209862E-06  0.300E-03    8.31       6.9  T
   6    -45.6147393 -0.119006E-07  0.173E-03    8.31      12.1  T
   7    -45.6147393 -0.529264E-08  0.706E-04    8.31      29.6  T
   8    -45.6147393 -0.931706E-09  0.159E-04    8.31     131.3  T
speedup  0.94
cpu  time for SCC    0.01 s
wall time for SCC    0.01 s
speedup  0.99
cpu  time for grad    0.01 s
wall time for grad    0.01 s
 E :    -45.35582538  G :  0.022692    pred/act E change:  0.000D+00 -0.452D-03
Maxdispl :   0.0955   ||displ|| :   0.2148   Lambda : -0.925D-03
Largest |displ|/coords:  0.0955 (   3)  0.0884 (   5)  0.0819 (   7)
................................................................................
.............................. CYCLE   54 ......................................
................................................................................
   1    -45.6156158 -0.456156E+02  0.167E-01    8.38       0.0  T
   2    -45.6156203 -0.444107E-05  0.124E-01    8.38       1.0  T
   3    -45.6156245 -0.427451E-05  0.138E-02    8.38       1.5  T
   4    -45.6156248 -0.279432E-06  0.517E-03    8.38       4.0  T
   5    -45.6156248 -0.258883E-07  0.160E-03    8.38      13.0  T
speedup  1.03
cpu  time for SCC    0.00 s
wall time for SCC    0.00 s
speedup  0.98
cpu  time for grad    0.01 s
wall time for grad    0.01 s
 E :    -45.35646918  G :  0.011287    pred/act E change:  0.000D+00 -0.644D-03
Maxdispl :   0.1945   ||displ|| :   0.3355   Lambda : -0.735D-03
Largest |displ|/coords:  0.1945 (   3)  0.1575 (   7)  0.1057 (   5)
................................................................................
.............................. CYCLE   55 ......................................
................................................................................
   1    -45.6156549 -0.456157E+02  0.242E-01    8.48       0.0  T
   2    -45.6156639 -0.894186E-05  0.179E-01    8.48       1.0  T
   3    -45.6156709 -0.706612E-05  0.197E-02    8.47       1.1  T
   4    -45.6156717 -0.806625E-06  0.785E-03    8.47       2.7  T
   5    -45.6156718 -0.486255E-07  0.216E-03    8.47       9.6  T
   6    -45.6156718 -0.347052E-08  0.121E-03    8.47      17.3  T
speedup  1.09
cpu  time for SCC    0.00 s
wall time for SCC    0.00 s
speedup  1.01
cpu  time for grad    0.01 s
wall time for grad    0.01 s
 E :    -45.35684522  G :  0.013026    pred/act E change: -0.484D-03 -0.376D-03
Maxdispl :   0.1100   ||displ|| :   0.1690   Lambda : -0.280D-03
Largest |displ|/coords:  0.1100 (   3)  0.0776 (   1)  0.0740 (   5)
................................................................................
.............................. CYCLE   56 ......................................
................................................................................
   1    -45.6174063 -0.456174E+02  0.765E-02    8.51       0.0  T
   2    -45.6174080 -0.171404E-05  0.571E-02    8.50       1.0  T
   3    -45.6174089 -0.852683E-06  0.927E-03    8.49       2.3  T
   4    -45.6174092 -0.297231E-06  0.305E-03    8.49       6.8  T
   5    -45.6174092 -0.862295E-08  0.876E-04    8.49      23.8  T
   6    -45.6174092 -0.104098E-08  0.456E-04    8.49      45.7  T
speedup  0.87
cpu  time for SCC    0.00 s
wall time for SCC    0.00 s
speedup  1.02
cpu  time for grad    0.01 s
wall time for grad    0.01 s
 E :    -45.35706738  G :  0.008740    pred/act E change: -0.409D-03 -0.222D-03
Maxdispl :   0.2650   ||displ|| :   0.3953   Lambda : -0.411D-03
Largest |displ|/coords:  0.2650 (   3)  0.1752 (   1)  0.1732 (   5)
................................................................................
.............................. CYCLE   57 ......................................
................................................................................
   1    -45.6176208 -0.456176E+02  0.200E-01    8.50       0.0  T
   2    -45.6176276 -0.679773E-05  0.149E-01    8.49       1.0  T
   3    -45.6176321 -0.444617E-05  0.181E-02    8.45       1.2  T
   4    -45.6176331 -0.999656E-06  0.633E-03    8.46       3.3  T
   5    -45.6176331 -0.301143E-07  0.207E-03    8.46      10.1  T
   6    -45.6176331 -0.438107E-08  0.109E-03    8.46      19.1  T
speedup  1.09
cpu  time for SCC    0.00 s
wall time for SCC    0.00 s
speedup  1.02
cpu  time for grad    0.01 s
wall time for grad    0.01 s
 E :    -45.35733642  G :  0.008548    pred/act E change: -0.144D-03 -0.269D-03
Maxdispl :   0.1684   ||displ|| :   0.2670   Lambda : -0.239D-03
Largest |displ|/coords:  0.1684 (   1)  0.1577 (   3)  0.0708 (   7)
................................................................................
.............................. CYCLE   58 ......................................
................................................................................
   1    -45.6189101 -0.456189E+02  0.134E-01    8.45       0.0  T
   2    -45.6189138 -0.369952E-05  0.993E-02    8.44       1.0  T
   3    -45.6189161 -0.228331E-05  0.137E-02    8.42       1.5  T
   4    -45.6189167 -0.577068E-06  0.413E-03    8.43       5.0  T
   5    -45.6189167 -0.141669E-07  0.138E-03    8.43      15.1  T
   6    -45.6189167 -0.208546E-08  0.776E-04    8.43      26.9  T
speedup  0.89
cpu  time for SCC    0.00 s
wall time for SCC    0.00 s
speedup  0.93
cpu  time for grad    0.01 s
wall time for grad    0.01 s
 E :    -45.35749408  G :  0.005503    pred/act E change: -0.238D-03 -0.158D-03
Maxdispl :   0.2498   ||displ|| :   0.3924   Lambda : -0.260D-03
Largest |displ|/coords:  0.2498 (   1)  0.1911 (   3)  0.1516 (   7)
................................................................................
.............................. CYCLE   59 ......................................
................................................................................
   1    -45.6157074 -0.456157E+02  0.218E-01    8.38       0.0  T
   2    -45.6157130 -0.565426E-05  0.162E-01    8.38       1.0  T
   3    -45.6157185 -0.549556E-05  0.172E-02    8.37       1.2  T
   4    -45.6157190 -0.466115E-06  0.614E-03    8.37       3.4  T
   5    -45.6157190 -0.307311E-07  0.203E-03    8.37      10.3  T
   6    -45.6157190 -0.403107E-08  0.107E-03    8.37      19.5  T
speedup  1.09
cpu  time for SCC    0.00 s
wall time for SCC    0.00 s
speedup  1.01
cpu  time for grad    0.01 s
wall time for grad    0.01 s
 E :    -45.35764535  G :  0.008764    pred/act E change: -0.128D-03 -0.151D-03
Maxdispl :   0.2121   ||displ|| :   0.3069   Lambda : -0.310D-03
Largest |displ|/coords:  0.2121 (   1)  0.1827 (   4)  0.0564 (   3)
................................................................................
.............................. CYCLE   60 ......................................
................................................................................
   1    -45.6164565 -0.456165E+02  0.151E-01    8.36       0.0  T
   2    -45.6164597 -0.317038E-05  0.113E-01    8.36       1.0  T
   3    -45.6164624 -0.272193E-05  0.139E-02    8.38       1.5  T
   4    -45.6164627 -0.343188E-06  0.496E-03    8.38       4.2  T
   5    -45.6164628 -0.257503E-07  0.139E-03    8.38      15.0  T
   6    -45.6164628 -0.200148E-08  0.847E-04    8.38      24.6  T
speedup  0.89
cpu  time for SCC    0.00 s
wall time for SCC    0.00 s
speedup  0.93
cpu  time for grad    0.01 s
wall time for grad    0.01 s
 E :    -45.35777493  G :  0.009308    pred/act E change: -0.150D-03 -0.130D-03
Maxdispl :   0.1774   ||displ|| :   0.2435   Lambda : -0.253D-03
Largest |displ|/coords:  0.1774 (   1)  0.1174 (   7)  0.0530 (  10)
................................................................................
.............................. CYCLE   61 ......................................
................................................................................
   1    -45.6165586 -0.456166E+02  0.123E-01    8.35       0.0  T
   2    -45.6165620 -0.338617E-05  0.923E-02    8.36       1.0  T
   3    -45.6165653 -0.323447E-05  0.111E-02    8.38       1.9  T
   4    -45.6165656 -0.376472E-06  0.375E-03    8.37       5.6  T
   5    -45.6165657 -0.159316E-07  0.149E-03    8.37      14.0  T
   6    -45.6165657 -0.299861E-08  0.669E-04    8.37      31.2  T
speedup  0.91
cpu  time for SCC    0.00 s
wall time for SCC    0.00 s
speedup  1.01
cpu  time for grad    0.01 s
wall time for grad    0.01 s
 E :    -45.35787462  G :  0.009102    pred/act E change: -0.170D-03 -0.997D-04
Maxdispl :   0.1366   ||displ|| :   0.2204   Lambda : -0.178D-03
Largest |displ|/coords:  0.1366 (   1)  0.0957 (   3)  0.0833 (   7)
................................................................................
.............................. CYCLE   62 ......................................
................................................................................
   1    -45.6149952 -0.456150E+02  0.124E-01    8.37       0.0  T
   2    -45.6149971 -0.188736E-05  0.932E-02    8.37       1.0  T
   3    -45.6149991 -0.200201E-05  0.874E-03    8.37       2.4  T
   4    -45.6149992 -0.176551E-06  0.294E-03    8.37       7.1  T
   5    -45.6149993 -0.772810E-08  0.125E-03    8.37      16.7  T
speedup  0.81
cpu  time for SCC    0.00 s
wall time for SCC    0.00 s
speedup  1.00
cpu  time for grad    0.01 s
wall time for grad    0.01 s
 E :    -45.35798308  G :  0.009411    pred/act E change: -0.134D-03 -0.108D-03
Maxdispl :   0.0891   ||displ|| :   0.1918   Lambda : -0.279D-03
Largest |displ|/coords:  0.0891 (   9)  0.0830 (   4)  0.0815 (   1)
................................................................................
.............................. CYCLE   63 ......................................
................................................................................
   1    -45.6201813 -0.456202E+02  0.131E-01    8.45       0.0  T
   2    -45.6201877 -0.643812E-05  0.979E-02    8.45       1.0  T
   3    -45.6201920 -0.423205E-05  0.160E-02    8.45       1.3  T
   4    -45.6201928 -0.864150E-06  0.553E-03    8.45       3.8  T
   5    -45.6201929 -0.506329E-07  0.192E-03    8.45      10.9  T
   6    -45.6201929 -0.391546E-08  0.105E-03    8.45      19.9  T
speedup  1.11
cpu  time for SCC    0.00 s
wall time for SCC    0.00 s
speedup  1.02
cpu  time for grad    0.01 s
wall time for grad    0.01 s
 E :    -45.35797875  G :  0.015305    pred/act E change: -0.931D-04  0.433D-05
Maxdispl :   0.1713   ||displ|| :   0.2622   Lambda : -0.431D-03
Largest |displ|/coords:  0.1713 (   1)  0.1290 (   4)  0.0783 (   3)
................................................................................
.............................. CYCLE   64 ......................................
................................................................................
   1    -45.6190752 -0.456191E+02  0.151E-01    8.48       0.0  T
   2    -45.6190807 -0.547162E-05  0.114E-01    8.48       1.0  T
   3    -45.6190855 -0.485168E-05  0.140E-02    8.48       1.5  T
   4    -45.6190862 -0.690501E-06  0.458E-03    8.48       4.5  T
   5    -45.6190862 -0.232602E-07  0.199E-03    8.48      10.5  T
[...]
   3    -45.6217736 -0.241665E-07  0.148E-03    8.33      14.1  T
   4    -45.6217736 -0.519611E-08  0.496E-04    8.33      42.0  T
   5    -45.6217736 -0.259440E-09  0.120E-04    8.33     174.5  T
speedup  1.08
cpu  time for SCC    0.00 s
wall time for SCC    0.00 s
speedup  1.03
cpu  time for grad    0.01 s
wall time for grad    0.01 s
 E :    -45.36400633  G :  0.001377    pred/act E change: -0.542D-05 -0.377D-05
Maxdispl :   0.0534   ||displ|| :   0.0652   Lambda : -0.623D-05
Largest |displ|/coords:  0.0534 (   2)  0.0258 (   1)  0.0116 (   6)
................................................................................
.............................. CYCLE  159 ......................................
................................................................................
   1    -45.6218213 -0.456218E+02  0.358E-02    8.33       0.0  T
   2    -45.6218214 -0.127190E-06  0.264E-02    8.33       1.0  T
   3    -45.6218215 -0.875160E-07  0.339E-03    8.33       6.1  T
   4    -45.6218215 -0.130340E-07  0.604E-04    8.33      34.5  T
   5    -45.6218215 -0.923521E-09  0.232E-04    8.33      89.8  T
speedup  0.81
cpu  time for SCC    0.00 s
wall time for SCC    0.00 s
speedup  0.93
cpu  time for grad    0.01 s
wall time for grad    0.01 s
 E :    -45.36401038  G :  0.001075    pred/act E change: -0.247D-05 -0.405D-05
Maxdispl :   0.0312   ||displ|| :   0.0396   Lambda : -0.255D-05
Largest |displ|/coords:  0.0312 (   2)  0.0165 (   1)  0.0078 (  14)
................................................................................
.............................. CYCLE  160 ......................................
................................................................................
   1    -45.6219804 -0.456220E+02  0.197E-02    8.33       0.0  T
   2    -45.6219804 -0.399635E-07  0.146E-02    8.33       1.4  T
   3    -45.6219805 -0.317036E-07  0.191E-03    8.33      10.9  T
   4    -45.6219805 -0.371197E-08  0.292E-04    8.33      71.3  T
   5    -45.6219805 -0.211422E-09  0.140E-04    8.33     149.1  T
speedup  1.05
cpu  time for SCC    0.00 s
wall time for SCC    0.00 s
speedup  1.03
cpu  time for grad    0.01 s
wall time for grad    0.01 s
 E :    -45.36401221  G :  0.000787    pred/act E change: -0.313D-05 -0.183D-05
Maxdispl :   0.0754   ||displ|| :   0.0894   Lambda : -0.253D-05
Largest |displ|/coords:  0.0754 (   2)  0.0370 (   1)  0.0140 (   6)
................................................................................
.............................. CYCLE  161 ......................................
................................................................................
   1    -45.6219893 -0.456220E+02  0.424E-02    8.33       0.0  T
   2    -45.6219894 -0.980899E-07  0.316E-02    8.33       1.0  T
   3    -45.6219895 -0.103625E-06  0.296E-03    8.33       7.1  T
   4    -45.6219895 -0.738700E-08  0.813E-04    8.33      25.6  T
   5    -45.6219895 -0.684629E-09  0.309E-04    8.33      67.4  T
speedup  1.08
cpu  time for SCC    0.00 s
wall time for SCC    0.00 s
speedup  1.01
cpu  time for grad    0.01 s
wall time for grad    0.01 s
 E :    -45.36401373  G :  0.000808    pred/act E change: -0.128D-05 -0.152D-05
Maxdispl :   0.0123   ||displ|| :   0.0225   Lambda : -0.215D-05
Largest |displ|/coords:  0.0123 (   2)  0.0082 (   1)  0.0070 (  14)
................................................................................
.............................. CYCLE  162 ......................................
................................................................................
   1    -45.6222473 -0.456222E+02  0.122E-02    8.33       0.0  T
   2    -45.6222473 -0.327502E-07  0.910E-03    8.33       2.3  T
   3    -45.6222473 -0.230641E-07  0.117E-03    8.33      17.9  T
   4    -45.6222473 -0.412955E-08  0.462E-04    8.33      45.2  T
   5    -45.6222473 -0.246615E-09  0.132E-04    8.33     158.5  T
speedup  0.81
cpu  time for SCC    0.00 s
wall time for SCC    0.00 s
speedup  0.93
cpu  time for grad    0.01 s
wall time for grad    0.01 s
 E :    -45.36401477  G :  0.000564    pred/act E change: -0.128D-05 -0.103D-05
Maxdispl :   0.0301   ||displ|| :   0.0353   Lambda : -0.117D-05
Largest |displ|/coords:  0.0301 (   2)  0.0151 (   1)  0.0057 (   6)
................................................................................
.............................. CYCLE  163 ......................................
................................................................................
   1    -45.6221799 -0.456222E+02  0.185E-02    8.33       0.0  T
   2    -45.6221800 -0.232243E-07  0.139E-02    8.33       1.5  T
   3    -45.6221800 -0.207240E-07  0.969E-04    8.33      21.5  T
   4    -45.6221800 -0.253537E-08  0.435E-04    8.33      47.9  T
speedup  1.00
cpu  time for SCC    0.00 s
wall time for SCC    0.00 s
speedup  1.00
cpu  time for grad    0.01 s
wall time for grad    0.01 s
 E :    -45.36401567  G :  0.000358    pred/act E change: -0.107D-05 -0.902D-06
Maxdispl :   0.0262   ||displ|| :   0.0323   Lambda : -0.141D-05
Largest |displ|/coords:  0.0262 (   2)  0.0131 (   1)  0.0072 (  12)
................................................................................
.............................. CYCLE  164 ......................................
................................................................................
   1    -45.6220753 -0.456221E+02  0.195E-02    8.33       0.0  T
   2    -45.6220753 -0.371533E-07  0.145E-02    8.33       1.4  T
   3    -45.6220753 -0.300055E-07  0.163E-03    8.33      12.8  T
   4    -45.6220753 -0.352756E-08  0.498E-04    8.33      41.9  T
   5    -45.6220753 -0.273474E-09  0.140E-04    8.33     148.5  T
speedup  1.05
cpu  time for SCC    0.00 s
wall time for SCC    0.00 s
speedup  1.02
cpu  time for grad    0.01 s
wall time for grad    0.01 s
 E :    -45.36401658  G :  0.000387    pred/act E change: -0.585D-06 -0.915D-06
Maxdispl :   0.0093   ||displ|| :   0.0149   Lambda : -0.541D-06
Largest |displ|/coords:  0.0093 (   2)  0.0058 (  12)  0.0058 (   1)
................................................................................
.............................. CYCLE  165 ......................................
................................................................................
   1    -45.6220336 -0.456220E+02  0.954E-03    8.33       0.0  T
   2    -45.6220336 -0.963095E-08  0.713E-03    8.33       2.9  T
   3    -45.6220336 -0.970053E-08  0.739E-04    8.33      28.2  T
   4    -45.6220336 -0.697007E-09  0.211E-04    8.33      99.0  T
speedup  1.00
cpu  time for SCC    0.00 s
wall time for SCC    0.00 s
speedup  1.00
cpu  time for grad    0.01 s
wall time for grad    0.01 s
 E :    -45.36401697  G :  0.000384    pred/act E change: -0.708D-06 -0.390D-06
Maxdispl :   0.0064   ||displ|| :   0.0130   Lambda : -0.471D-06
Largest |displ|/coords:  0.0064 (   2)  0.0057 (   7)  0.0054 (  12)
................................................................................
.............................. CYCLE  166 ......................................
................................................................................
   1    -45.6220025 -0.456220E+02  0.755E-03    8.33       0.0  T
   2    -45.6220025 -0.723789E-08  0.568E-03    8.33       3.7  T
   3    -45.6220025 -0.732702E-08  0.493E-04    8.33      42.3  T
   4    -45.6220025 -0.656847E-09  0.238E-04    8.33      87.7  T
speedup  0.97
cpu  time for SCC    0.00 s
wall time for SCC    0.00 s
speedup  0.99
cpu  time for grad    0.01 s
wall time for grad    0.01 s
 E :    -45.36401729  G :  0.000206    pred/act E change: -0.270D-06 -0.315D-06
Maxdispl :   0.0035   ||displ|| :   0.0064   Lambda : -0.215D-06
Largest |displ|/coords:  0.0035 (   7)  0.0031 (  12)  0.0022 (   4)
................................................................................
.............................. CYCLE  167 ......................................
................................................................................
   1    -45.6219970 -0.456220E+02  0.433E-03    8.33       0.0  T
   2    -45.6219970 -0.376586E-08  0.323E-03    8.33       6.5  T
   3    -45.6219970 -0.312650E-08  0.491E-04    8.33      42.4  T
   4    -45.6219970 -0.407610E-09  0.196E-04    8.33     106.2  T
speedup  1.00
cpu  time for SCC    0.00 s
wall time for SCC    0.00 s
speedup  1.00
cpu  time for grad    0.01 s
wall time for grad    0.01 s
 E :    -45.36401744  G :  0.000152    pred/act E change: -0.235D-06 -0.148D-06
Maxdispl :   0.0033   ||displ|| :   0.0064   Lambda : -0.133D-06
Largest |displ|/coords:  0.0033 (   7)  0.0025 (   2)  0.0022 (  12)
................................................................................
.............................. CYCLE  168 ......................................
................................................................................
   1    -45.6219932 -0.456220E+02  0.426E-03    8.33       0.0  T
   2    -45.6219932 -0.319226E-08  0.317E-03    8.33       6.6  T
   3    -45.6219932 -0.288613E-08  0.460E-04    8.33      45.4  T
   4    -45.6219932 -0.335433E-09  0.171E-04    8.33     122.0  T
speedup  0.97
cpu  time for SCC    0.00 s
wall time for SCC    0.00 s
speedup  0.99
cpu  time for grad    0.01 s
wall time for grad    0.01 s
 E :    -45.36401753  G :  0.000120    pred/act E change: -0.108D-06 -0.945D-07
Maxdispl :   0.0027   ||displ|| :   0.0049   Lambda : -0.812D-07
Largest |displ|/coords:  0.0027 (   7)  0.0020 (  12)  0.0016 (   4)

   *** GEOMETRY OPTIMIZATION CONVERGED AFTER 168 ITERATIONS ***

------------------------------------------------------------------------
 total energy gain (kcal):     -0.0617
------------------------------------------------------------------------
================
 final structure:
================
$coord
       -1.73808573419389        0.13871824476404        1.92676024578116      S 
       -2.13355984622993       -1.05612866699170       -0.70985437466619      O 
       -1.09992241319241       -1.80421936431192        3.70141037007300      O 
        0.64511317335805        1.81104104491684        1.55778520644545      O 
       -3.86602364281658        1.70162306919986        2.45659160406856      O 
        5.05130352071476       -0.88161523308279        0.33624644009646      O 
        3.91877136685876        0.45246228281903        0.86024996643645      H 
        1.57612501638475       -3.89353904170247       -1.59195080844480      O 
        1.71495258050685       -5.04963351582504       -0.18224275289133      H 
       -0.66404015408957       -2.28899565580730       -1.12155075906519      H 
        3.03087811993142       -2.73889187019208       -1.35167557363790      H 
       -1.72320107516120        5.47985361641506       -0.20690429812349      O 
       -0.07029857261146        3.48087895791524        0.81107968823289      H 
       -2.13158946879054        4.86901648716540       -1.94239065896852      H 
       -3.14511448208908        4.97860377954617        0.83188603001321      H 
        3.00413927655669       -4.64531518518119        3.44905638111958      O 
        1.48981432370862       -3.60504806221592        3.69767354066435      H 
        3.19857295273620       -5.61697026043999        4.96417623912633      H 
        5.09331488956112       -2.07442852697350        1.72418068251661      H 
       -2.91600223779306        3.05882846321797       -4.47255512742776      N 
       -1.61230232371557        2.92923771157941       -5.86605609743573      H 
       -4.61470093059644        3.39822329836512       -5.28333772980313      H 
       -3.00814433912811        1.35629838897244       -3.58857825189055      H 
$end
 
 Bond Distances (Angstroems)
 ---------------------------
S1-O2=1.5460         S1-O3=1.4329         S1-O4=1.5530         S1-O5=1.4250         O2-S1=1.5460         O2-H10=1.0382        
O3-S1=1.4329         O4-S1=1.5530         O4-H13=1.0394        O5-S1=1.4250         O6-H7=0.9667         O6-H19=0.9687        
H7-O6=0.9667         O8-H9=0.9676         O8-H11=0.9910        H9-O8=0.9676         H10-O2=1.0382        H11-O8=0.9910        
O12-H14=0.9973       O12-H15=0.9689       H13-O4=1.0394        H14-O12=0.9973       H15-O12=0.9689       O16-H17=0.9811       
O16-H18=0.9580       H17-O16=0.9811       H18-O16=0.9580       H19-O6=0.9687        N20-H21=1.0121       N20-H22=1.0121       
N20-H23=1.0163       H21-N20=1.0121       H22-N20=1.0121       H23-N20=1.0163       
 N  H  Rav=1.0135 sigma=0.0020  Rmin=1.0121  Rmax=1.0163     3
 O  H  Rav=0.9877 sigma=0.0279  Rmin=0.9580  Rmax=1.0394    10
 S  O  Rav=1.4892 sigma=0.0604  Rmin=1.4250  Rmax=1.5530     4
 
 selected bond angles (degree)
 --------------------
O3-S1-O2=109.26                O4-S1-O2=103.27                O4-S1-O3=107.45                O5-S1-O2=107.94                
O5-S1-O3=118.28                O5-S1-O4=109.62                H10-O2-S1=110.18               H13-O4-S1=103.68               
H19-O6-H7=105.82               H11-O8-H9=103.41               
 
 selected dihedral angles (degree)
 ---------------------------------
H10-O2-S1-O3=312.95           H10-O2-S1-O4= 67.08           H10-O2-S1-O5=183.11           H13-O4-S1-O2= 83.99           
H13-O4-S1-O3=199.43           H13-O4-S1-O5=329.16           
 
 CMA Distance (Angstroems)
 ---------------------------
R(CMA):  1.8325

========================================================================
 FINAL SINGLEPOINT CALCULATION ON OPTIMIZED GEOMETRY
========================================================================

 Ncao       : 59
 Nao        : 58
 Nshell     : 34
 Nel        : 72
 T(el)      :   300.0
 intcut     :    25.0
 scfconv/Eh :  0.100E-05
   qconv/e  :  0.100E-03
 intneglect :  0.100E-07
 broydamp   :      0.250
 iter      E             dE          RMSdq      gap      omega  full diag
   1    -45.6219932 -0.456220E+02  0.723E-05    8.33       0.0  T
   2    -45.6219932 -0.229505E-11  0.450E-05    8.33     463.6  T
   3    -45.6219932 -0.119371E-11  0.740E-06    8.33    2817.8  T
speedup  0.87
cpu  time for SCC    0.00 s
wall time for SCC    0.00 s

   *** convergence criteria satisfied after 3 iterations ***

          eigenvalues
 #    :          24         25         26         27         28         29         30         31
 occ. :        2.000      2.000      2.000      2.000      2.000      2.000      2.000      2.000
 eps  :       -13.993    -13.809    -13.652    -13.431    -13.001    -12.834    -12.754    -12.483
 #    :          32         33         34         35         36         37         38         39
 occ. :        2.000      2.000      2.000      2.000      2.000      0.000      0.000      0.000
 eps  :       -12.419    -12.339    -12.291    -12.095    -11.473     -3.144     -0.908     -0.298
 #    :          40         41         42         43         44         45         46         47
 occ. :        0.000      0.000      0.000      0.000      0.000      0.000      0.000      0.000
 eps  :         0.436      0.502      0.822      2.557      2.993      3.686      4.974      5.230


   #   Z            q   n(s)   n(p)   n(d)      C6AA      α(0)
   1  16 S      1.702  1.579  1.775  0.944    88.722    15.853
   2   8 O     -0.641  1.763  4.878  0.000    26.171     6.906
   3   8 O     -0.692  1.754  4.938  0.000    28.494     7.157
   4   8 O     -0.649  1.765  4.884  0.000    26.359     6.930
   5   8 O     -0.682  1.757  4.924  0.000    28.208     7.121
   6   8 O     -0.603  1.748  4.855  0.000    25.260     6.783
   7   1 H      0.309  0.691  0.000  0.000     0.696     1.310
   8   8 O     -0.603  1.759  4.844  0.000    25.251     6.783
   9   1 H      0.326  0.674  0.000  0.000     0.648     1.265
  10   1 H      0.392  0.608  0.000  0.000     0.496     1.104
  11   1 H      0.343  0.657  0.000  0.000     0.605     1.222
  12   8 O     -0.598  1.751  4.846  0.000    25.113     6.764
  13   1 H      0.389  0.611  0.000  0.000     0.500     1.107
  14   1 H      0.328  0.672  0.000  0.000     0.641     1.258
  15   1 H      0.318  0.682  0.000  0.000     0.669     1.285
  16   8 O     -0.623  1.739  4.884  0.000    25.753     6.849
  17   1 H      0.325  0.675  0.000  0.000     0.651     1.268
  18   1 H      0.283  0.717  0.000  0.000     0.774     1.382
  19   1 H      0.318  0.682  0.000  0.000     0.670     1.285
  20   7 N     -0.449  1.366  4.083  0.000    31.798     8.375
  21   1 H      0.163  0.837  0.000  0.000     1.319     1.799
  22   1 H      0.161  0.839  0.000  0.000     1.327     1.805
  23   1 H      0.184  0.816  0.000  0.000     1.192     1.710

 Mol. C6AA /au·bohr⁶  :       4505.528738
 Mol. C8AA /au·bohr⁸  :      98952.790393
 Mol. α(0) /au        :         97.321784

 
 Wiberg/Mayer (AO) data. WBOs > 0.1 written file <wbo>
 largest (>0.05) Wiberg bond orders for each atom
           total WBO             WBO to atom ...
     1  S   4.846    O    5 1.443    O    3 1.398    O    2 0.993    O    4 0.977
     2  O   1.956    S    1 0.993    H   10 0.645    O    3 0.092    O    5 0.076    O    4 0.067    O    8 0.056
     3  O   1.771    S    1 1.398    O    5 0.117    O    2 0.092    O    4 0.078    H   17 0.057
     4  O   1.949    S    1 0.977    H   13 0.643    O    5 0.092    O    3 0.078    O    2 0.067    O   12 0.060
     5  O   1.775    S    1 1.443    O    3 0.117    O    4 0.092    O    2 0.076
     6  O   1.893    H    7 0.880    H   19 0.876    H   11 0.074
     7  H   0.905    O    6 0.880
     8  O   1.975    H    9 0.874    H   11 0.805    H   10 0.184    O    2 0.056
     9  H   0.894    O    8 0.874
    10  H   0.846    O    2 0.645    O    8 0.184
    11  H   0.882    O    8 0.805    O    6 0.074
    12  O   1.983    H   15 0.876    H   14 0.795    H   13 0.189    O    4 0.060
    13  H   0.849    O    4 0.643    O   12 0.189
    14  H   0.892    O   12 0.795    N   20 0.095
    15  H   0.899    O   12 0.876
    16  O   1.834    H   18 0.913    H   17 0.833
    17  H   0.894    O   16 0.833    O    3 0.057
    18  H   0.920    O   16 0.913
    19  H   0.899    O    6 0.876
    20  N   3.042    H   22 0.971    H   21 0.971    H   23 0.949    H   14 0.095
    21  H   0.974    N   20 0.971
    22  H   0.974    N   20 0.971
    23  H   0.966    N   20 0.949
 MOs/occ written to file <molden.input>
 
molecular dipole:
                 x           y           z       tot (Debye)
 q only:        0.126       0.001      -0.836
   full:       -0.200      -0.332      -0.664       1.954
molecular quadrupole (traceless):
                xx          xy          yy          xz          yz          zz
 q only:       -6.104      -3.017       1.960      10.178      -7.157       4.144
  q+dip:       -7.144      -3.225      -1.713      14.107      -9.926       8.857
   full:       -7.211      -3.369      -1.629      13.907     -10.310       8.840

SCC energy    :     -45.6219932
rep           :       0.2578187
ES            :       0.2001260
AES           :      -0.0473438
AXC           :      -0.0064412
disp          :      -0.0164331
XB            :       0.0000000
fix           :       0.0000000
total E       :     -45.3640175
atomizationE  :       4.4470800     2790.58
(atE without considering molecular charge,
 total energy contains solvation terms)
H-L gap (eV)  :          8.3287
optimized geometry written to: xtbopt.xyz


------------------------------------------------------------------------
 * finished run on 2019/09/16 at 11:23:44.647     
------------------------------------------------------------------------
 total:
 * wall-time:     0 d,  0 h,  0 min,  2.964 sec
 *  cpu-time:     0 d,  0 h,  0 min,  2.938 sec
 * ratio c/w:     0.991 speedup
 SCF:
 * wall-time:     0 d,  0 h,  0 min,  0.124 sec
 *  cpu-time:     0 d,  0 h,  0 min,  0.121 sec
 * ratio c/w:     0.976 speedup
 ANC optimizer:
 * wall-time:     0 d,  0 h,  0 min,  2.815 sec
 *  cpu-time:     0 d,  0 h,  0 min,  2.794 sec
 * ratio c/w:     0.992 speedup

