      -----------------------------------------------------------      
     |                   =====================                   |     
     |                           x T B                           |     
     |                   =====================                   |     
     |                         S. Grimme                         |     
     |          Mulliken Center for Theoretical Chemistry        |     
     |                    University of Bonn                     |     
     |                 Version 6.0.1 (SAW181210)                 |     
      -----------------------------------------------------------      

   This program is distributed in the hope that it will be useful,
   but WITHOUT ANY WARRANTY; without even the implied warranty of
   MERCHANTABILITY or FITNESS FOR A PARTICULAR PURPOSE.
   
   FOR NON-COMMERCIAL, ACADEMIA USE ONLY.
   
   Cite this work as:
   S. Grimme, C. Bannwarth, P. Shushkov, J. Comput. Theory Chem., 2017,
   13, 1989-2009.
   C. Bannwarth, S. Ehlert and S. Grimme., ChemRxiv, 2018, preprint.
   http://doi.org/10.26434/chemrxiv.7246238.v1
   
   for sTDA-xTB:
   S. Grimme and C. Bannwarth, J. Chem. Phys., 2016, 145, 054103.
   
   in the mass-spec context:
   V. Asgeirsson, C. Bauer and S. Grimme, Chem. Sci., 2017, 8, 4879.
   
   if GBSA is used:
   P. Shushkov, F. März and S. Grimme, unpublished.
   
   for ANC optimizer:
   S. Grimme, unpublished.
   Rational Function algorithm used in ANCopt:
   F. Eckert, P. Pulay, H.-J. Werner, J. Comput. Chem., 1997, 18, 1473.
   
   with help from (in alphabetical order)
   C. Bannwarth, F. Bohle, G. Brandenburg, E. Caldeweyher, M. Checinski,
   S. Dohm, S. Ehlert, S. Ehrlich, F. März, H. Neugebauer, J. Pisarek,
   P. Pracht, P. Shushkov, and S. Spicher.
   
 * started run on 2019/09/16 at 11:36:47.231     
========================================================================
 # omp threads = 1
========================================================================
number of atoms            : 23
number of electrons        : 72
charge                     : 0
spin                       : .0
first test random number   : .5568

########################################################################
# WARNING! Please study the warnings concerning your input carefully
#  - XTBPATH is not set, using XTBHOME instead
#  - the use of '-opt' is discouraged, please use '--opt' next time
#  - the use of '-chrg' is discouraged, please use '--chrg' next time
#  - the use of '-uhf' is discouraged, please use '--uhf' next time
########################################################################

           ------------------------------------------------- 
          |                 G F N 2 - x T B                 |
          | Geometry, Frequencies, Noncovalent interactions |
          |            JCTC 2018 parametrisation            |
           ------------------------------------------------- 
      method parameters     
 k(s)        :  1.8500
 k(p)        :  2.2300
 k(d)        :  2.2300
 k(f)        :  2.0000
 kEN (H0ij)  : -2.0000
 D4 a1       :  0.5200
 D4 a2       :  5.0000
 D4 s6       :  1.0000
 D4 s8       :  2.7000
 D4 s9       :  5.0000
 alphaj      :  2.0000


            Z     q(EN)     CN     RAES       Cart. coordinates
     1  S   6.0    0.67    4.13    3.92    -0.48149    -0.72644     0.18199
     2  O   6.0   -0.32    1.23    1.80     0.00807     1.57114    -1.37030
     3  O   6.0   -0.31    1.20    1.80     1.95869    -1.73787     1.15699
     4  O   6.0   -0.31    1.22    1.80    -2.15247    -0.05766     2.34733
     5  O   6.0   -0.31    1.17    1.80    -1.74027    -2.68136    -1.40606
     6  O   6.0   -0.36    1.56    1.80     3.62542     3.38272     5.71121
     7  H   1.0    0.17    0.94    1.42     4.24401     4.67829     6.90394
     8  O   6.0   -0.22    2.90    2.54    -3.37160     1.05168    -4.92554
     9  H   1.0    0.15    1.09    1.44    -1.93799     1.51892    -3.82269
    10  H   1.0    0.13    1.07    1.44    -3.19844    -0.68066    -5.60306
    11  H   1.0    0.12    0.96    1.43    -5.01762     1.30991    -4.07971
    12  O   6.0   -0.22    2.91    2.57     0.63156     0.06537     6.37473
    13  H   1.0    0.17    1.22    1.47     1.77861     1.53824     6.30563
    14  H   1.0    0.15    1.07    1.44    -0.76257     0.20481     5.13902
    15  H   1.0    0.13    0.96    1.43     1.55621    -1.54954     6.20573
    16  O   6.0   -0.22    2.93    2.60     4.51564     2.47703     1.39191
    17  H   1.0    0.17    1.22    1.47     4.37892     3.02817     3.17163
    18  H   1.0    0.15    1.05    1.44     4.21606     0.64288     1.20173
    19  H   1.0    0.13    0.97    1.43     3.42079     3.48478     0.26175
    20  N   5.0   -0.22    3.05    1.93    -3.06057    -3.85665    -6.44005
    21  H   1.0    0.11    0.99    1.43    -1.57825    -4.55869    -7.45046
    22  H   1.0    0.11    0.99    1.43    -4.49424    -5.12342    -6.66578
    23  H   1.0    0.13    1.03    1.43    -2.53851    -3.98165    -4.58995

  Z AO/shell   Hii/eV     exponent
  1     Wed Apr 25 08:07:45 CEST 2018   EN: 2.200 GM2: 0.406  GM3: 0.0800  RAES: 1.40
     1s    -10.707211    1.230000
  7     Wed Apr 25 08:07:45 CEST 2018   EN: 3.040 GM2: 0.461  GM3:-0.0640  RAES: 1.90
     2s    -16.686243    2.339881
     2p    -12.523956    2.014332
  8     Wed Apr 25 08:07:45 CEST 2018   EN: 3.440 GM2: 0.452  GM3:-0.0517  RAES: 1.80
     2s    -20.229985    2.439742
     2p    -15.503117    2.137023
 16     Tue Apr 24 11:44:34 CEST 2018   EN: 2.580 GM2: 0.340  GM3:-0.0502  RAES: 3.10
     3s    -20.029654    1.981333
     3p    -11.377694    2.025643
     3d     -0.420282    1.702555
 no old-style atom pair restraining (fixing) potential

molecular fragmentation (1/2 indicates fragments):
11111222222222222222222
# atoms in fragment 1/2:     5    18
 fragment masses (1/2) :       96.06       91.11
CMA distance (Bohr)    :   1.695
constraining FC (au)   :  0.0500
           ------------------------------------------------- 
          |        Self-Consistent Charge Iterations        |
           ------------------------------------------------- 

 Ncao       : 59
 Nao        : 58
 Nshell     : 34
 Nel        : 72
 T(el)      :   300.0
 intcut     :    25.0
 scfconv/Eh :  0.100E-05
   qconv/e  :  0.100E-03
 intneglect :  0.100E-07
 broydamp   :      0.250
 iter      E             dE          RMSdq      gap      omega  full diag
   1    -45.3966340 -0.453966E+02  0.717E+00   10.27       0.0  T
   2    -45.4337291 -0.370951E-01  0.515E+00   10.02       1.0  T
   3    -45.4650661 -0.313370E-01  0.112E+00    6.78       1.0  T
   4    -45.4691341 -0.406799E-02  0.521E-01    7.19       1.0  T
   5    -45.4697467 -0.612628E-03  0.247E-01    7.24       1.0  T
   6    -45.4699955 -0.248798E-03  0.123E-01    7.36       1.0  T
   7    -45.4700756 -0.800377E-04  0.443E-02    7.38       1.0  T
   8    -45.4700834 -0.784267E-05  0.260E-02    7.38       1.0  T
   9    -45.4700869 -0.346816E-05  0.108E-02    7.40       1.9  T
  10    -45.4700874 -0.487858E-06  0.191E-03    7.40      10.9  T
  11    -45.4700874 -0.112498E-07  0.954E-04    7.40      21.9  T
  12    -45.4700874 -0.268214E-08  0.355E-04    7.40      58.8  T
speedup  0.94
cpu  time for SCC    0.01 s
wall time for SCC    0.01 s

   *** convergence criteria satisfied after 12 iterations ***

          eigenvalues
 #    :          24         25         26         27         28         29         30         31
 occ. :        2.000      2.000      2.000      2.000      2.000      2.000      2.000      2.000
 eps  :       -12.149    -12.082    -11.450    -10.904    -10.651    -10.109     -9.901     -9.879
 #    :          32         33         34         35         36         37         38         39
 occ. :        2.000      2.000      2.000      2.000      2.000      0.000      0.000      0.000
 eps  :        -9.782     -9.664     -9.497     -9.390     -9.203     -1.801     -0.660      0.573
 #    :          40         41         42         43         44         45         46         47
 occ. :        0.000      0.000      0.000      0.000      0.000      0.000      0.000      0.000
 eps  :         0.615      1.532      2.594      2.738      2.862      4.106      4.998      5.673


   #   Z            q   n(s)   n(p)   n(d)      C6AA      α(0)
   1  16 S      1.458  1.609  1.926  1.007    94.490    16.360
   2   8 O     -0.809  1.777  5.033  0.000    31.864     7.568
   3   8 O     -0.787  1.778  5.010  0.000    31.199     7.489
   4   8 O     -0.784  1.783  5.001  0.000    31.094     7.476
   5   8 O     -0.792  1.778  5.014  0.000    31.348     7.507
   6   8 O     -0.879  1.816  5.062  0.000    33.966     7.817
   7   1 H      0.193  0.807  0.000  0.000     1.158     1.691
   8   8 O     -0.387  1.631  4.756  0.000    20.543     6.121
   9   1 H      0.418  0.582  0.000  0.000     0.453     1.057
  10   1 H      0.409  0.591  0.000  0.000     0.468     1.075
  11   1 H      0.384  0.616  0.000  0.000     0.516     1.129
  12   8 O     -0.422  1.651  4.771  0.000    21.225     6.222
  13   1 H      0.409  0.591  0.000  0.000     0.462     1.064
  14   1 H      0.403  0.597  0.000  0.000     0.480     1.088
  15   1 H      0.370  0.630  0.000  0.000     0.545     1.160
  16   8 O     -0.421  1.647  4.774  0.000    21.199     6.218
  17   1 H      0.410  0.590  0.000  0.000     0.459     1.060
  18   1 H      0.399  0.601  0.000  0.000     0.486     1.095
  19   1 H      0.377  0.623  0.000  0.000     0.529     1.143
  20   7 N     -0.468  1.380  4.089  0.000    32.363     8.449
  21   1 H      0.152  0.848  0.000  0.000     1.388     1.845
  22   1 H      0.151  0.849  0.000  0.000     1.391     1.848
  23   1 H      0.217  0.783  0.000  0.000     1.023     1.585

 Mol. C6AA /au·bohr⁶  :       4596.705255
 Mol. C8AA /au·bohr⁸  :     101741.449592
 Mol. α(0) /au        :         98.069627

 
 Wiberg/Mayer (AO) data. WBOs > 0.1 written file <wbo>
 largest (>0.05) Wiberg bond orders for each atom
           total WBO             WBO to atom ...
     1  S   5.034    O    5 1.293    O    3 1.259    O    4 1.249    O    2 1.203
     2  O   1.668    S    1 1.203    H    9 0.120    O    5 0.098    O    4 0.091    O    3 0.090
     3  O   1.669    S    1 1.259    O    4 0.100    O    5 0.092    O    2 0.090    H   18 0.084
     4  O   1.681    S    1 1.249    H   14 0.105    O    3 0.100    O    5 0.093    O    2 0.091
     5  O   1.640    S    1 1.293    O    2 0.098    O    4 0.093    O    3 0.092
     6  O   1.510    H    7 0.946    H   13 0.211    H   17 0.209    O   12 0.063    O   16 0.062
     7  H   0.963    O    6 0.946
     8  O   2.349    H   11 0.847    H   10 0.718    H    9 0.696
     9  H   0.825    O    8 0.696    O    2 0.120
    10  H   0.833    O    8 0.718    N   20 0.104
    11  H   0.853    O    8 0.847
    12  O   2.306    H   15 0.853    H   14 0.723    H   13 0.616    O    6 0.063
    13  H   0.833    O   12 0.616    O    6 0.211
    14  H   0.838    O   12 0.723    O    4 0.105
    15  H   0.863    O   12 0.853
    16  O   2.311    H   19 0.837    H   18 0.747    H   17 0.615    O    6 0.062
    17  H   0.832    O   16 0.615    O    6 0.209
    18  H   0.841    O   16 0.747    O    3 0.084
    19  H   0.858    O   16 0.837
    20  N   3.026    H   21 0.973    H   22 0.972    H   23 0.910    H   10 0.104
    21  H   0.977    N   20 0.973
    22  H   0.977    N   20 0.972
    23  H   0.953    N   20 0.910
 MOs/occ written to file <molden.input>
 
molecular dipole:
                 x           y           z       tot (Debye)
 q only:       -0.730       0.943      -2.077
   full:       -0.728       0.549      -1.871       5.289
molecular quadrupole (traceless):
                xx          xy          yy          xz          yz          zz
 q only:        0.774      -2.025     -14.342      13.999      -7.419      13.569
  q+dip:       -0.711      -0.338      -8.564      13.958      -1.695       9.275
   full:       -0.694      -0.101      -8.668      13.985      -1.489       9.362

SCC energy    :     -45.4700874
rep           :       0.2431692
ES            :       0.3548504
AES           :      -0.0693665
AXC           :      -0.0076742
disp          :      -0.0154042
XB            :       0.0000000
fix           :       0.0000000
total E       :     -45.2269108
atomizationE  :       4.3099733     2704.55
(atE without considering molecular charge,
 total energy contains solvation terms)
H-L gap (eV)  :          7.4013
           ------------------------------------------------- 
          |                 ===============                 |
          |                   A N C O P T                   |
          |                 ===============                 |
          |          Approximate Normal Coordinate          |
          |           Rational Function Optimizer           |
           ------------------------------------------------- 
dumping coords to <xtbopt.coord> and <xtbopt.log>
 optlevel               2
 Maxcycle             460
 Maxmicro              25
 Econv         1.000000000000000E-007
 Gconv         2.000000000000000E-004
 Maxdispl       1.00000000000000     
 Hlow          5.000000000000000E-003
 S6             20.0000000000000     
 Nvar               63

generating ANC from model Hessian ...
 Shifting diagonal of input Hessian by   5.038911075635691E-003
 Lowest  eigenvalues of input Hessian
    0.005000   -0.000000   -0.000000   -0.000000   -0.000000    0.000000
    0.000000    0.005140    0.005470    0.005679    0.006394    0.006463
    0.006818    0.007023    0.007439    0.008467    0.009025    0.009150
 Highest eigenvalues
    1.554632    1.585982    1.588288    3.073801    3.076008    3.085900
 
cpu  time for ANC gen    0.01 s
wall time for ANC gen    0.01 s
................................................................................
.............................. CYCLE    1 ......................................
................................................................................
   1    -45.4700874 -0.454701E+02  0.831E-05    7.40       0.0  T
   2    -45.4700874 -0.172946E-10  0.662E-05    7.40     314.8  T
   3    -45.4700874 -0.106866E-10  0.348E-05    7.40     598.8  T
speedup  0.80
cpu  time for SCC    0.00 s
wall time for SCC    0.00 s
speedup  0.97
cpu  time for grad    0.01 s
wall time for grad    0.01 s
 E :    -45.22691075  G :  0.198586    pred/act E change:  0.000D+00  0.140D-07
Maxdispl :   0.2291   ||displ|| :   0.4463   Lambda : -0.490D-01
Largest |displ|/coords:  0.2291 (  21)  0.1968 (  26)  0.1194 (  48)
................................................................................
.............................. CYCLE    2 ......................................
................................................................................
   1    -45.4931960 -0.454932E+02  0.416E-01    7.78       0.0  T
   2    -45.4936344 -0.438371E-03  0.302E-01    7.92       1.0  T
   3    -45.4938548 -0.220436E-03  0.990E-02    8.19       1.0  T
   4    -45.4938790 -0.242136E-04  0.206E-02    8.16       1.0  T
   5    -45.4938795 -0.500967E-06  0.904E-03    8.15       2.3  T
   6    -45.4938797 -0.155394E-06  0.410E-03    8.16       5.1  T
   7    -45.4938798 -0.528640E-07  0.192E-03    8.16      10.9  T
speedup  1.13
cpu  time for SCC    0.01 s
wall time for SCC    0.01 s
speedup  1.03
cpu  time for grad    0.01 s
wall time for grad    0.01 s
 E :    -45.26903785  G :  0.130245    pred/act E change:  0.000D+00 -0.421D-01
Maxdispl :   0.2608   ||displ|| :   0.5041   Lambda : -0.346D-01
Largest |displ|/coords:  0.2608 (  21)  0.2591 (  26)  0.1387 (  27)
................................................................................
.............................. CYCLE    3 ......................................
................................................................................
   1    -45.5085910 -0.455086E+02  0.454E-01    8.43       0.0  T
   2    -45.5093935 -0.802455E-03  0.320E-01    8.56       1.0  T
   3    -45.5097736 -0.380160E-03  0.123E-01    8.74       1.0  T
   4    -45.5097982 -0.245668E-04  0.233E-02    8.71       1.0  T
   5    -45.5097990 -0.835315E-06  0.118E-02    8.71       1.8  T
   6    -45.5097993 -0.263818E-06  0.538E-03    8.71       3.9  T
   7    -45.5097994 -0.881043E-07  0.237E-03    8.71       8.8  T
speedup  1.11
cpu  time for SCC    0.01 s
wall time for SCC    0.01 s
speedup  1.03
cpu  time for grad    0.01 s
wall time for grad    0.01 s
 E :    -45.29771053  G :  0.089546    pred/act E change: -0.294D-01 -0.287D-01
Maxdispl :   0.2182   ||displ|| :   0.4635   Lambda : -0.192D-01
Largest |displ|/coords:  0.2182 (  21)  0.1912 (  26)  0.1347 (  16)
................................................................................
.............................. CYCLE    4 ......................................
................................................................................
   1    -45.5167147 -0.455167E+02  0.412E-01    8.86       0.0  T
   2    -45.5176468 -0.932062E-03  0.279E-01    8.96       1.0  T
   3    -45.5180767 -0.429956E-03  0.118E-01    9.07       1.0  T
   4    -45.5180941 -0.173440E-04  0.224E-02    9.04       1.0  T
   5    -45.5180950 -0.942170E-06  0.120E-02    9.04       1.7  T
   6    -45.5180952 -0.250362E-06  0.549E-03    9.04       3.8  T
   7    -45.5180953 -0.820522E-07  0.218E-03    9.04       9.6  T
speedup  0.94
cpu  time for SCC    0.00 s
wall time for SCC    0.01 s
speedup  0.95
cpu  time for grad    0.01 s
wall time for grad    0.01 s
 E :    -45.31200409  G :  0.065440    pred/act E change: -0.217D-01 -0.143D-01
Maxdispl :   0.1599   ||displ|| :   0.3735   Lambda : -0.778D-02
Largest |displ|/coords:  0.1599 (  16)  0.1225 (   8)  0.1212 (   3)
................................................................................
.............................. CYCLE    5 ......................................
................................................................................
   1    -45.5236117 -0.455236E+02  0.259E-01    9.22       0.0  T
   2    -45.5239741 -0.362409E-03  0.177E-01    9.27       1.0  T
   3    -45.5241396 -0.165516E-03  0.755E-02    9.29       1.0  T
   4    -45.5241468 -0.721535E-05  0.124E-02    9.30       1.7  T
   5    -45.5241472 -0.354128E-06  0.642E-03    9.30       3.2  T
   6    -45.5241473 -0.646190E-07  0.319E-03    9.30       6.5  T
   7    -45.5241473 -0.179071E-07  0.969E-04    9.30      21.5  T
speedup  0.94
cpu  time for SCC    0.00 s
wall time for SCC    0.01 s
speedup  1.03
cpu  time for grad    0.01 s
wall time for grad    0.01 s
 E :    -45.31824578  G :  0.051466    pred/act E change: -0.117D-01 -0.624D-02
Maxdispl :   0.1687   ||displ|| :   0.3567   Lambda : -0.522D-02
Largest |displ|/coords:  0.1687 (   8)  0.1460 (   3)  0.1065 (   4)
................................................................................
.............................. CYCLE    6 ......................................
................................................................................
   1    -45.5295081 -0.455295E+02  0.351E-01    9.35       0.0  T
   2    -45.5297837 -0.275596E-03  0.256E-01    9.36       1.0  T
   3    -45.5299029 -0.119215E-03  0.873E-02    9.37       1.0  T
   4    -45.5299213 -0.184117E-04  0.181E-02    9.37       1.2  T
   5    -45.5299222 -0.879187E-06  0.607E-03    9.37       3.4  T
   6    -45.5299223 -0.394732E-07  0.358E-03    9.37       5.8  T
   7    -45.5299223 -0.170133E-07  0.988E-04    9.37      21.1  T
speedup  0.96
cpu  time for SCC    0.00 s
wall time for SCC    0.01 s
speedup  1.03
cpu  time for grad    0.01 s
wall time for grad    0.01 s
 E :    -45.32298303  G :  0.043612    pred/act E change: -0.443D-02 -0.474D-02
Maxdispl :   0.2901   ||displ|| :   0.7105   Lambda : -0.132D-01
Largest |displ|/coords:  0.2901 (   8)  0.2804 (   7)  0.2169 (  12)
................................................................................
.............................. CYCLE    7 ......................................
................................................................................
   1    -45.5268971 -0.455269E+02  0.101E+00    9.22       0.0  T
   2    -45.5304050 -0.350793E-02  0.688E-01    9.15       1.0  T
   3    -45.5317211 -0.131609E-02  0.277E-01    9.01       1.0  T
   4    -45.5318283 -0.107167E-03  0.595E-02    8.99       1.0  T
   5    -45.5318372 -0.895141E-05  0.255E-02    8.99       1.0  T
   6    -45.5318395 -0.228888E-05  0.130E-02    8.99       1.6  T
   7    -45.5318397 -0.192281E-06  0.290E-03    8.99       7.2  T
   8    -45.5318397 -0.179860E-07  0.955E-04    8.99      21.8  T
speedup  1.17
cpu  time for SCC    0.01 s
wall time for SCC    0.01 s
speedup  1.05
cpu  time for grad    0.01 s
wall time for grad    0.01 s
 E :    -45.32637259  G :  0.097140    pred/act E change: -0.294D-02 -0.339D-02
Maxdispl :   0.3236   ||displ|| :   0.6032   Lambda : -0.288D-01
Largest |displ|/coords:  0.3236 (  12)  0.2014 (   9)  0.2002 (   8)
................................................................................
.............................. CYCLE    8 ......................................
................................................................................
   1    -45.5550092 -0.455550E+02  0.972E-01    9.48       0.0  T
   2    -45.5555306 -0.521431E-03  0.728E-01    9.47       1.0  T
   3    -45.5558952 -0.364642E-03  0.137E-01    9.45       1.0  T
   4    -45.5559579 -0.626226E-04  0.309E-02    9.46       1.0  T
   5    -45.5559597 -0.186962E-05  0.143E-02    9.45       1.5  T
   6    -45.5559598 -0.821076E-07  0.616E-03    9.45       3.4  T
   7    -45.5559600 -0.142430E-06  0.113E-03    9.45      18.5  T
   8    -45.5559600 -0.447462E-08  0.315E-04    9.45      66.3  T
speedup  0.98
cpu  time for SCC    0.01 s
wall time for SCC    0.01 s
speedup  0.97
cpu  time for grad    0.01 s
wall time for grad    0.01 s
 E :    -45.32675421  G :  0.094163    pred/act E change: -0.993D-02 -0.382D-03
Maxdispl :   0.1428   ||displ|| :   0.2872   Lambda : -0.890D-02
Largest |displ|/coords:  0.1428 (  13)  0.1001 (  14)  0.0958 (   8)
................................................................................
.............................. CYCLE    9 ......................................
................................................................................
   1    -45.5542182 -0.455542E+02  0.334E-01    9.31       0.0  T
   2    -45.5543211 -0.102884E-03  0.251E-01    9.30       1.0  T
   3    -45.5543764 -0.553049E-04  0.604E-02    9.28       1.0  T
   4    -45.5543896 -0.132059E-04  0.177E-02    9.29       1.2  T
   5    -45.5543901 -0.549497E-06  0.562E-03    9.29       3.7  T
   6    -45.5543902 -0.422439E-07  0.313E-03    9.29       6.7  T
speedup  0.89
cpu  time for SCC    0.00 s
wall time for SCC    0.00 s
speedup  1.01
cpu  time for grad    0.01 s
wall time for grad    0.01 s
 E :    -45.33298895  G :  0.036799    pred/act E change: -0.196D-01 -0.623D-02
Maxdispl :   0.2500   ||displ|| :   0.5699   Lambda : -0.796D-02
Largest |displ|/coords:  0.2500 (   8)  0.2268 (   7)  0.1704 (  13)
................................................................................
.............................. CYCLE   10 ......................................
................................................................................
   1    -45.5438106 -0.455438E+02  0.754E-01    8.68       0.0  T
   2    -45.5448433 -0.103268E-02  0.533E-01    8.60       1.0  T
   3    -45.5452566 -0.413240E-03  0.173E-01    8.42       1.0  T
   4    -45.5453270 -0.704126E-04  0.368E-02    8.42       1.0  T
   5    -45.5453286 -0.164379E-05  0.155E-02    8.43       1.3  T
   6    -45.5453299 -0.130160E-05  0.863E-03    8.43       2.4  T
   7    -45.5453300 -0.100767E-06  0.197E-03    8.43      10.6  T
   8    -45.5453300 -0.906742E-08  0.597E-04    8.43      35.0  T
speedup  1.00
cpu  time for SCC    0.01 s
wall time for SCC    0.01 s
speedup  1.05
cpu  time for grad    0.01 s
wall time for grad    0.01 s
 E :    -45.33212539  G :  0.091124    pred/act E change: -0.481D-02  0.864D-03
Maxdispl :   0.1779   ||displ|| :   0.4864   Lambda : -0.188D-01
Largest |displ|/coords:  0.1779 (   7)  0.1769 (   8)  0.1747 (  12)
................................................................................
.............................. CYCLE   11 ......................................
................................................................................
   1    -45.5601745 -0.455602E+02  0.768E-01    9.17       0.0  T
   2    -45.5606817 -0.507235E-03  0.567E-01    9.20       1.0  T
   3    -45.5609691 -0.287349E-03  0.133E-01    9.25       1.0  T
   4    -45.5610252 -0.560816E-04  0.315E-02    9.25       1.0  T
   5    -45.5610273 -0.213283E-05  0.124E-02    9.24       1.7  T
   6    -45.5610274 -0.757274E-07  0.612E-03    9.24       3.4  T
   7    -45.5610275 -0.122271E-06  0.131E-03    9.24      15.9  T
   8    -45.5610275 -0.598703E-08  0.420E-04    9.24      49.7  T
speedup  1.02
cpu  time for SCC    0.01 s
wall time for SCC    0.01 s
speedup  0.97
cpu  time for grad    0.01 s
wall time for grad    0.01 s
 E :    -45.33457511  G :  0.043270    pred/act E change: -0.527D-02 -0.245D-02
Maxdispl :   0.0969   ||displ|| :   0.2301   Lambda : -0.401D-02
Largest |displ|/coords:  0.0969 (   1)  0.0891 (   8)  0.0729 (  27)
................................................................................
.............................. CYCLE   12 ......................................
................................................................................
   1    -45.5674520 -0.455675E+02  0.252E-01    9.14       0.0  T
   2    -45.5675614 -0.109429E-03  0.187E-01    9.10       1.0  T
   3    -45.5676250 -0.636353E-04  0.656E-02    9.00       1.0  T
   4    -45.5676347 -0.969413E-05  0.183E-02    9.00       1.1  T
   5    -45.5676353 -0.568273E-06  0.690E-03    9.00       3.0  T
   6    -45.5676353 -0.378914E-07  0.373E-03    9.00       5.6  T
   7    -45.5676354 -0.171404E-07  0.871E-04    9.00      23.9  T
speedup  0.94
cpu  time for SCC    0.00 s
wall time for SCC    0.01 s
speedup  1.03
cpu  time for grad    0.01 s
wall time for grad    0.01 s
 E :    -45.33703778  G :  0.033436    pred/act E change: -0.116D-01 -0.246D-02
Maxdispl :   0.2120   ||displ|| :   0.4420   Lambda : -0.717D-02
Largest |displ|/coords:  0.2120 (   8)  0.1462 (   9)  0.1398 (   7)
................................................................................
.............................. CYCLE   13 ......................................
................................................................................
   1    -45.5606216 -0.455606E+02  0.560E-01    8.51       0.0  T
   2    -45.5609487 -0.327033E-03  0.403E-01    8.45       1.0  T
   3    -45.5610986 -0.149955E-03  0.102E-01    8.34       1.0  T
   4    -45.5611284 -0.297709E-04  0.225E-02    8.36       1.0  T
   5    -45.5611293 -0.905890E-06  0.852E-03    8.36       2.4  T
   6    -45.5611296 -0.270103E-06  0.492E-03    8.36       4.2  T
   7    -45.5611296 -0.380817E-07  0.127E-03    8.36      16.4  T
speedup  1.15
cpu  time for SCC    0.01 s
wall time for SCC    0.01 s
speedup  1.03
cpu  time for grad    0.01 s
wall time for grad    0.01 s
 E :    -45.33668894  G :  0.073942    pred/act E change: -0.211D-02  0.349D-03
Maxdispl :   0.1385   ||displ|| :   0.3754   Lambda : -0.121D-01
Largest |displ|/coords:  0.1385 (  13)  0.1273 (   8)  0.1216 (  12)
................................................................................
.............................. CYCLE   14 ......................................
................................................................................
   1    -45.5690249 -0.455690E+02  0.572E-01    8.87       0.0  T
   2    -45.5692445 -0.219652E-03  0.421E-01    8.90       1.0  T
   3    -45.5693720 -0.127474E-03  0.893E-02    8.96       1.0  T
   4    -45.5693947 -0.226960E-04  0.229E-02    8.94       1.0  T
   5    -45.5693959 -0.123056E-05  0.771E-03    8.94       2.7  T
   6    -45.5693960 -0.338634E-07  0.380E-03    8.94       5.5  T
   7    -45.5693960 -0.433495E-07  0.843E-04    8.94      24.7  T
speedup  1.15
cpu  time for SCC    0.01 s
wall time for SCC    0.01 s
speedup  1.03
cpu  time for grad    0.01 s
wall time for grad    0.01 s
 E :    -45.33818564  G :  0.029429    pred/act E change: -0.428D-02 -0.150D-02
Maxdispl :   0.0864   ||displ|| :   0.2013   Lambda : -0.307D-02
Largest |displ|/coords:  0.0864 (   8)  0.0721 (  14)  0.0657 (   1)
................................................................................
.............................. CYCLE   15 ......................................
................................................................................
   1    -45.5717718 -0.455718E+02  0.232E-01    8.85       0.0  T
   2    -45.5718020 -0.301435E-04  0.172E-01    8.83       1.0  T
   3    -45.5718203 -0.183128E-04  0.329E-02    8.78       1.0  T
   4    -45.5718238 -0.352520E-05  0.892E-03    8.79       2.3  T
   5    -45.5718240 -0.142885E-06  0.309E-03    8.79       6.7  T
   6    -45.5718240 -0.112899E-07  0.172E-03    8.79      12.1  T
speedup  0.89
cpu  time for SCC    0.00 s
wall time for SCC    0.00 s
speedup  1.01
cpu  time for grad    0.01 s
wall time for grad    0.01 s
 E :    -45.34042550  G :  0.021147    pred/act E change: -0.688D-02 -0.224D-02
Maxdispl :   0.1495   ||displ|| :   0.2863   Lambda : -0.199D-02
Largest |displ|/coords:  0.1495 (   8)  0.1034 (   7)  0.0978 (   1)
................................................................................
.............................. CYCLE   16 ......................................
................................................................................
   1    -45.5713645 -0.455714E+02  0.280E-01    8.64       0.0  T
   2    -45.5714327 -0.681898E-04  0.205E-01    8.61       1.0  T
   3    -45.5714663 -0.335593E-04  0.479E-02    8.55       1.0  T
   4    -45.5714740 -0.773709E-05  0.103E-02    8.55       2.0  T
   5    -45.5714742 -0.195469E-06  0.442E-03    8.56       4.7  T
   6    -45.5714743 -0.320702E-07  0.266E-03    8.56       7.8  T
speedup  1.11
cpu  time for SCC    0.00 s
wall time for SCC    0.00 s
speedup  0.99
cpu  time for grad    0.01 s
wall time for grad    0.01 s
 E :    -45.34130864  G :  0.040460    pred/act E change: -0.160D-02 -0.883D-03
Maxdispl :   0.1022   ||displ|| :   0.1687   Lambda : -0.113D-02
Largest |displ|/coords:  0.1022 (   3)  0.0602 (   1)  0.0456 (   8)
................................................................................
.............................. CYCLE   17 ......................................
................................................................................
   1    -45.5741019 -0.455741E+02  0.111E-01    8.63       0.0  T
   2    -45.5741061 -0.411261E-05  0.821E-02    8.62       1.0  T
   3    -45.5741090 -0.293866E-05  0.119E-02    8.62       1.8  T
   4    -45.5741094 -0.419369E-06  0.428E-03    8.62       4.9  T
   5    -45.5741094 -0.161802E-07  0.135E-03    8.62      15.5  T
speedup  1.05
cpu  time for SCC    0.00 s
wall time for SCC    0.00 s
speedup  0.98
cpu  time for grad    0.01 s
wall time for grad    0.01 s
 E :    -45.34220821  G :  0.031223    pred/act E change: -0.108D-02 -0.900D-03
Maxdispl :   0.1765   ||displ|| :   0.4013   Lambda : -0.275D-02
Largest |displ|/coords:  0.1765 (   8)  0.1694 (   3)  0.1516 (   1)
................................................................................
.............................. CYCLE   18 ......................................
................................................................................
   1    -45.5775223 -0.455775E+02  0.253E-01    8.62       0.0  T
   2    -45.5775440 -0.216933E-04  0.187E-01    8.62       1.0  T
   3    -45.5775593 -0.152570E-04  0.311E-02    8.60       1.0  T
   4    -45.5775618 -0.251140E-05  0.893E-03    8.59       2.3  T
   5    -45.5775619 -0.888334E-07  0.328E-03    8.60       6.4  T
   6    -45.5775619 -0.132546E-07  0.163E-03    8.60      12.8  T
speedup  0.89
cpu  time for SCC    0.00 s
wall time for SCC    0.00 s
speedup  1.01
cpu  time for grad    0.01 s
wall time for grad    0.01 s
 E :    -45.34392349  G :  0.016314    pred/act E change: -0.580D-03 -0.172D-02
Maxdispl :   0.2363   ||displ|| :   0.4542   Lambda : -0.173D-02
Largest |displ|/coords:  0.2363 (   3)  0.1959 (   8)  0.1344 (   1)
................................................................................
.............................. CYCLE   19 ......................................
................................................................................
   1    -45.5783037 -0.455783E+02  0.293E-01    8.50       0.0  T
   2    -45.5783262 -0.224390E-04  0.218E-01    8.49       1.0  T
   3    -45.5783433 -0.171068E-04  0.301E-02    8.46       1.0  T
   4    -45.5783459 -0.262915E-05  0.846E-03    8.46       2.5  T
   5    -45.5783460 -0.695664E-07  0.368E-03    8.46       5.7  T
   6    -45.5783460 -0.180599E-07  0.162E-03    8.46      12.9  T
   7    -45.5783460 -0.524690E-08  0.520E-04    8.46      40.1  T
speedup  0.96
cpu  time for SCC    0.00 s
wall time for SCC    0.01 s
speedup  1.03
cpu  time for grad    0.01 s
wall time for grad    0.01 s
 E :    -45.34517494  G :  0.018648    pred/act E change: -0.160D-02 -0.125D-02
Maxdispl :   0.1949   ||displ|| :   0.4240   Lambda : -0.172D-02
Largest |displ|/coords:  0.1949 (   3)  0.1852 (   8)  0.1631 (   4)
................................................................................
.............................. CYCLE   20 ......................................
................................................................................
   1    -45.5798075 -0.455798E+02  0.279E-01    8.38       0.0  T
   2    -45.5798324 -0.249378E-04  0.207E-01    8.37       1.0  T
   3    -45.5798529 -0.204849E-04  0.338E-02    8.34       1.0  T
   4    -45.5798556 -0.265848E-05  0.958E-03    8.34       2.2  T
   5    -45.5798557 -0.114010E-06  0.404E-03    8.34       5.2  T
   6    -45.5798557 -0.247345E-07  0.188E-03    8.34      11.1  T
   7    -45.5798557 -0.673877E-08  0.582E-04    8.34      35.8  T
speedup  1.13
cpu  time for SCC    0.01 s
wall time for SCC    0.01 s
speedup  1.03
cpu  time for grad    0.01 s
wall time for grad    0.01 s
 E :    -45.34631789  G :  0.024480    pred/act E change: -0.105D-02 -0.114D-02
Maxdispl :   0.1907   ||displ|| :   0.4354   Lambda : -0.196D-02
Largest |displ|/coords:  0.1907 (   3)  0.1635 (   8)  0.1517 (  11)
................................................................................
.............................. CYCLE   21 ......................................
................................................................................
   1    -45.5796662 -0.455797E+02  0.275E-01    8.30       0.0  T
   2    -45.5797687 -0.102498E-03  0.201E-01    8.29       1.0  T
   3    -45.5798142 -0.455435E-04  0.571E-02    8.28       1.0  T
   4    -45.5798252 -0.109767E-04  0.127E-02    8.27       1.6  T
   5    -45.5798255 -0.267613E-06  0.565E-03    8.27       3.7  T
   6    -45.5798255 -0.398602E-07  0.258E-03    8.27       8.1  T
speedup  0.89
cpu  time for SCC    0.00 s
wall time for SCC    0.00 s
speedup  1.01
cpu  time for grad    0.01 s
wall time for grad    0.01 s
 E :    -45.34746259  G :  0.026425    pred/act E change: -0.101D-02 -0.114D-02
Maxdispl :   0.2102   ||displ|| :   0.4772   Lambda : -0.264D-02
Largest |displ|/coords:  0.2102 (   8)  0.1899 (   4)  0.1774 (   3)
................................................................................
.............................. CYCLE   22 ......................................
................................................................................
   1    -45.5809718 -0.455810E+02  0.310E-01    8.30       0.0  T
   2    -45.5811401 -0.168335E-03  0.228E-01    8.30       1.0  T
   3    -45.5812195 -0.793196E-04  0.725E-02    8.28       1.0  T
   4    -45.5812360 -0.165072E-04  0.148E-02    8.28       1.4  T
   5    -45.5812363 -0.378827E-06  0.718E-03    8.28       2.9  T
   6    -45.5812364 -0.403146E-07  0.294E-03    8.28       7.1  T
   7    -45.5812364 -0.146588E-07  0.788E-04    8.28      26.5  T
speedup  0.94
cpu  time for SCC    0.00 s
wall time for SCC    0.01 s
speedup  1.03
cpu  time for grad    0.01 s
wall time for grad    0.01 s
 E :    -45.34935409  G :  0.024739    pred/act E change: -0.116D-02 -0.189D-02
Maxdispl :   0.2429   ||displ|| :   0.5125   Lambda : -0.307D-02
Largest |displ|/coords:  0.2429 (   3)  0.1853 (  11)  0.1656 (   8)
................................................................................
.............................. CYCLE   23 ......................................
................................................................................
   1    -45.5913710 -0.455914E+02  0.351E-01    8.35       0.0  T
   2    -45.5915541 -0.183062E-03  0.257E-01    8.34       1.0  T
   3    -45.5916508 -0.967632E-04  0.751E-02    8.32       1.0  T
   4    -45.5916668 -0.160186E-04  0.187E-02    8.33       1.1  T
   5    -45.5916673 -0.405188E-06  0.733E-03    8.33       2.8  T
   6    -45.5916673 -0.467604E-07  0.329E-03    8.33       6.3  T
   7    -45.5916673 -0.158369E-07  0.109E-03    8.33      19.1  T
speedup  1.15
cpu  time for SCC    0.01 s
wall time for SCC    0.01 s
speedup  1.03
cpu  time for grad    0.01 s
wall time for grad    0.01 s
 E :    -45.35059570  G :  0.036673    pred/act E change: -0.162D-02 -0.124D-02
Maxdispl :   0.1920   ||displ|| :   0.4249   Lambda : -0.278D-02
Largest |displ|/coords:  0.1920 (   8)  0.1789 (   3)  0.1520 (   4)
................................................................................
.............................. CYCLE   24 ......................................
................................................................................
   1    -45.5873834 -0.455874E+02  0.257E-01    8.38       0.0  T
   2    -45.5874289 -0.455318E-04  0.194E-01    8.37       1.0  T
   3    -45.5874682 -0.392675E-04  0.395E-02    8.33       1.0  T
   4    -45.5874737 -0.548324E-05  0.118E-02    8.34       1.8  T
   5    -45.5874738 -0.155339E-06  0.456E-03    8.34       4.6  T
   6    -45.5874739 -0.304025E-07  0.204E-03    8.34      10.2  T
speedup  0.89
cpu  time for SCC    0.00 s
wall time for SCC    0.00 s
speedup  0.99
cpu  time for grad    0.01 s
wall time for grad    0.01 s
 E :    -45.35135770  G :  0.036014    pred/act E change: -0.194D-02 -0.762D-03
Maxdispl :   0.1253   ||displ|| :   0.2753   Lambda : -0.285D-02
Largest |displ|/coords:  0.1253 (   8)  0.0951 (  11)  0.0904 (   9)
................................................................................
.............................. CYCLE   25 ......................................
................................................................................
   1    -45.5950384 -0.455950E+02  0.251E-01    8.55       0.0  T
   2    -45.5950647 -0.263640E-04  0.185E-01    8.56       1.0  T
   3    -45.5950854 -0.206990E-04  0.407E-02    8.57       1.0  T
   4    -45.5950880 -0.256084E-05  0.145E-02    8.57       1.4  T
   5    -45.5950882 -0.245595E-06  0.349E-03    8.57       6.0  T
   6    -45.5950883 -0.135586E-07  0.227E-03    8.57       9.2  T
speedup  1.11
cpu  time for SCC    0.00 s
wall time for SCC    0.00 s
speedup  1.01
cpu  time for grad    0.01 s
wall time for grad    0.01 s
 E :    -45.35205534  G :  0.031613    pred/act E change: -0.164D-02 -0.698D-03
Maxdispl :   0.1301   ||displ|| :   0.2638   Lambda : -0.195D-02
Largest |displ|/coords:  0.1301 (   4)  0.1221 (   3)  0.1073 (  11)

generating ANC from model Hessian ...
 Shifting diagonal of input Hessian by   5.035986059294352E-003
 Lowest  eigenvalues of input Hessian
    0.005000   -0.000000   -0.000000   -0.000000    0.000000    0.000000
    0.000000    0.005162    0.005366    0.005612    0.006417    0.006847
    0.007713    0.007782    0.010025    0.011600    0.012132    0.014677
 Highest eigenvalues
    1.380612    1.381850    1.388292    2.636236    3.284270    3.635642
 
cpu  time for ANC gen    0.01 s
wall time for ANC gen    0.01 s
................................................................................
.............................. CYCLE   26 ......................................
................................................................................
   1    -45.5933452 -0.455933E+02  0.189E-01    8.36       0.0  T
   2    -45.5933658 -0.206128E-04  0.140E-01    8.37       1.0  T
   3    -45.5933786 -0.127727E-04  0.279E-02    8.39       1.0  T
   4    -45.5933811 -0.252667E-05  0.835E-03    8.38       2.5  T
   5    -45.5933812 -0.100357E-06  0.299E-03    8.38       7.0  T
   6    -45.5933812 -0.841153E-08  0.154E-03    8.39      13.5  T
   7    -45.5933812 -0.469949E-08  0.428E-04    8.39      48.7  T
   8    -45.5933812 -0.501394E-09  0.178E-04    8.39     117.4  T
speedup  1.02
cpu  time for SCC    0.01 s
wall time for SCC    0.01 s
speedup  1.02
cpu  time for grad    0.01 s
wall time for grad    0.01 s
 E :    -45.35306247  G :  0.025007    pred/act E change:  0.000D+00 -0.101D-02
Maxdispl :   0.2571   ||displ|| :   0.3669   Lambda : -0.255D-02
Largest |displ|/coords:  0.2571 (  10)  0.1229 (   8)  0.0930 (   2)
................................................................................
.............................. CYCLE   27 ......................................
................................................................................
   1    -45.5934803 -0.455935E+02  0.207E-01    8.46       0.0  T
   2    -45.5934986 -0.183543E-04  0.156E-01    8.46       1.0  T
   3    -45.5935102 -0.115667E-04  0.269E-02    8.46       1.0  T
   4    -45.5935131 -0.285751E-05  0.742E-03    8.46       2.8  T
   5    -45.5935132 -0.133924E-06  0.302E-03    8.46       6.9  T
   6    -45.5935132 -0.526901E-08  0.164E-03    8.46      12.7  T
speedup  1.11
cpu  time for SCC    0.00 s
wall time for SCC    0.00 s
speedup  1.01
cpu  time for grad    0.01 s
wall time for grad    0.01 s
 E :    -45.35456116  G :  0.018200    pred/act E change:  0.000D+00 -0.150D-02
Maxdispl :   0.1442   ||displ|| :   0.2691   Lambda : -0.109D-02
Largest |displ|/coords:  0.1442 (   2)  0.0898 (   3)  0.0793 (  18)
................................................................................
.............................. CYCLE   28 ......................................
................................................................................
   1    -45.5956229 -0.455956E+02  0.151E-01    8.50       0.0  T
   2    -45.5956296 -0.670714E-05  0.114E-01    8.50       1.0  T
   3    -45.5956335 -0.386721E-05  0.178E-02    8.51       1.2  T
   4    -45.5956346 -0.111496E-05  0.539E-03    8.51       3.9  T
   5    -45.5956347 -0.457797E-07  0.174E-03    8.51      12.0  T
   6    -45.5956347 -0.155556E-08  0.100E-03    8.51      20.8  T
speedup  0.89
cpu  time for SCC    0.00 s
wall time for SCC    0.00 s
speedup  1.01
cpu  time for grad    0.01 s
wall time for grad    0.01 s
 E :    -45.35525034  G :  0.013823    pred/act E change: -0.145D-02 -0.689D-03
Maxdispl :   0.1384   ||displ|| :   0.2345   Lambda : -0.515D-03
Largest |displ|/coords:  0.1384 (   2)  0.1173 (   3)  0.0599 (  10)
................................................................................
.............................. CYCLE   29 ......................................
................................................................................
   1    -45.5971574 -0.455972E+02  0.139E-01    8.52       0.0  T
   2    -45.5971632 -0.582357E-05  0.104E-01    8.53       1.0  T
   3    -45.5971673 -0.400901E-05  0.159E-02    8.53       1.3  T
   4    -45.5971681 -0.847511E-06  0.522E-03    8.53       4.0  T
   5    -45.5971681 -0.387832E-07  0.185E-03    8.53      11.3  T
   6    -45.5971681 -0.269460E-08  0.104E-03    8.53      20.0  T
speedup  1.14
cpu  time for SCC    0.00 s
wall time for SCC    0.00 s
speedup  1.01
cpu  time for grad    0.01 s
wall time for grad    0.01 s
 E :    -45.35565011  G :  0.011986    pred/act E change: -0.586D-03 -0.400D-03
Maxdispl :   0.1944   ||displ|| :   0.3269   Lambda : -0.650D-03
Largest |displ|/coords:  0.1944 (   3)  0.1843 (   2)  0.0815 (   5)
................................................................................
.............................. CYCLE   30 ......................................
................................................................................
   1    -45.6002306 -0.456002E+02  0.173E-01    8.53       0.0  T
   2    -45.6002441 -0.135015E-04  0.130E-01    8.53       1.0  T
   3    -45.6002540 -0.987743E-05  0.235E-02    8.53       1.0  T
   4    -45.6002557 -0.175670E-05  0.700E-03    8.53       3.0  T
   5    -45.6002558 -0.666875E-07  0.292E-03    8.53       7.1  T
   6    -45.6002558 -0.704451E-08  0.160E-03    8.53      13.0  T
speedup  0.89
cpu  time for SCC    0.00 s
wall time for SCC    0.00 s
speedup  1.00
cpu  time for grad    0.01 s
wall time for grad    0.01 s
 E :    -45.35610732  G :  0.010198    pred/act E change: -0.271D-03 -0.457D-03
Maxdispl :   0.2086   ||displ|| :   0.3235   Lambda : -0.474D-03
Largest |displ|/coords:  0.2086 (   3)  0.1494 (   2)  0.1063 (   6)
................................................................................
.............................. CYCLE   31 ......................................
................................................................................
   1    -45.6015633 -0.456016E+02  0.172E-01    8.52       0.0  T
   2    -45.6015760 -0.127136E-04  0.129E-01    8.51       1.0  T
   3    -45.6015869 -0.108335E-04  0.225E-02    8.50       1.0  T
   4    -45.6015885 -0.162694E-05  0.657E-03    8.50       3.2  T
   5    -45.6015886 -0.605029E-07  0.306E-03    8.50       6.8  T
   6    -45.6015886 -0.120949E-07  0.158E-03    8.50      13.2  T
   7    -45.6015886 -0.424815E-08  0.392E-04    8.50      53.2  T
speedup  1.15
cpu  time for SCC    0.01 s
wall time for SCC    0.01 s
speedup  1.03
cpu  time for grad    0.01 s
wall time for grad    0.01 s
 E :    -45.35645556  G :  0.011122    pred/act E change: -0.360D-03 -0.348D-03
Maxdispl :   0.2708   ||displ|| :   0.4128   Lambda : -0.573D-03
Largest |displ|/coords:  0.2708 (   3)  0.1813 (   2)  0.1144 (   6)
................................................................................
.............................. CYCLE   32 ......................................
................................................................................
   1    -45.6029412 -0.456029E+02  0.200E-01    8.46       0.0  T
   2    -45.6029695 -0.282619E-04  0.150E-01    8.45       1.0  T
   3    -45.6029881 -0.186194E-04  0.323E-02    8.43       1.0  T
   4    -45.6029920 -0.393656E-05  0.993E-03    8.43       2.1  T
   5    -45.6029922 -0.167303E-06  0.431E-03    8.43       4.8  T
   6    -45.6029922 -0.234682E-07  0.216E-03    8.43       9.6  T
   7    -45.6029922 -0.720388E-08  0.593E-04    8.43      35.2  T
speedup  0.96
cpu  time for SCC    0.01 s
wall time for SCC    0.01 s
speedup  0.94
cpu  time for grad    0.01 s
wall time for grad    0.01 s
 E :    -45.35687654  G :  0.013677    pred/act E change: -0.262D-03 -0.421D-03
Maxdispl :   0.3145   ||displ|| :   0.4824   Lambda : -0.681D-03
Largest |displ|/coords:  0.3145 (   3)  0.1714 (   1)  0.1588 (   2)
................................................................................
.............................. CYCLE   33 ......................................
................................................................................
   1    -45.6021061 -0.456021E+02  0.243E-01    8.37       0.0  T
   2    -45.6021685 -0.623747E-04  0.183E-01    8.36       1.0  T
   3    -45.6022021 -0.335807E-04  0.488E-02    8.34       1.0  T
   4    -45.6022103 -0.827310E-05  0.158E-02    8.34       1.3  T
   5    -45.6022109 -0.523946E-06  0.585E-03    8.34       3.6  T
   6    -45.6022109 -0.430906E-07  0.288E-03    8.34       7.2  T
   7    -45.6022109 -0.134847E-07  0.814E-04    8.34      25.6  T
speedup  0.96
cpu  time for SCC    0.00 s
wall time for SCC    0.01 s
speedup  1.03
cpu  time for grad    0.01 s
wall time for grad    0.01 s
 E :    -45.35745338  G :  0.016234    pred/act E change: -0.335D-03 -0.577D-03
Maxdispl :   0.3460   ||displ|| :   0.5763   Lambda : -0.125D-02
Largest |displ|/coords:  0.3460 (   3)  0.2753 (   1)  0.1699 (  27)
................................................................................
.............................. CYCLE   34 ......................................
................................................................................
   1    -45.6041957 -0.456042E+02  0.292E-01    8.33       0.0  T
   2    -45.6043756 -0.179958E-03  0.220E-01    8.32       1.0  T
   3    -45.6044601 -0.845160E-04  0.847E-02    8.29       1.0  T
   4    -45.6044754 -0.153030E-04  0.265E-02    8.28       1.0  T
   5    -45.6044770 -0.157527E-05  0.865E-03    8.29       2.4  T
   6    -45.6044771 -0.848383E-07  0.430E-03    8.29       4.8  T
   7    -45.6044771 -0.252818E-07  0.116E-03    8.29      18.0  T
   8    -45.6044771 -0.340290E-08  0.407E-04    8.29      51.2  T
speedup  0.98
cpu  time for SCC    0.01 s
wall time for SCC    0.01 s
speedup  1.04
cpu  time for grad    0.01 s
wall time for grad    0.01 s
 E :    -45.35834952  G :  0.025615    pred/act E change: -0.420D-03 -0.896D-03
Maxdispl :   0.2934   ||displ|| :   0.5905   Lambda : -0.197D-02
Largest |displ|/coords:  0.2934 (   3)  0.2923 (   1)  0.1637 (  27)
................................................................................
.............................. CYCLE   35 ......................................
................................................................................
   1    -45.6014595 -0.456015E+02  0.383E-01    8.25       0.0  T
   2    -45.6016702 -0.210632E-03  0.288E-01    8.23       1.0  T
   3    -45.6017768 -0.106652E-03  0.913E-02    8.20       1.0  T
   4    -45.6018002 -0.234046E-04  0.289E-02    8.19       1.0  T
   5    -45.6018018 -0.155859E-05  0.100E-02    8.20       2.1  T
   6    -45.6018019 -0.992009E-07  0.509E-03    8.20       4.1  T
   7    -45.6018019 -0.383242E-07  0.119E-03    8.20      17.5  T
speedup  0.94
cpu  time for SCC    0.00 s
wall time for SCC    0.01 s
speedup  0.93
cpu  time for grad    0.01 s
wall time for grad    0.01 s
 E :    -45.35886047  G :  0.039069    pred/act E change: -0.831D-03 -0.511D-03
Maxdispl :   0.1589   ||displ|| :   0.3026   Lambda : -0.263D-02
Largest |displ|/coords:  0.1589 (   6)  0.1012 (   5)  0.0945 (  23)
................................................................................
.............................. CYCLE   36 ......................................
................................................................................
   1    -45.6085853 -0.456086E+02  0.199E-01    8.32       0.0  T
   2    -45.6086047 -0.194057E-04  0.148E-01    8.33       1.0  T
   3    -45.6086170 -0.123199E-04  0.271E-02    8.34       1.0  T
   4    -45.6086198 -0.275491E-05  0.101E-02    8.33       2.1  T
   5    -45.6086199 -0.151681E-06  0.330E-03    8.34       6.3  T
   6    -45.6086199 -0.917942E-08  0.182E-03    8.34      11.4  T
speedup  0.89
cpu  time for SCC    0.00 s
wall time for SCC    0.00 s
speedup  1.00
cpu  time for grad    0.01 s
wall time for grad    0.01 s
 E :    -45.36037420  G :  0.024723    pred/act E change: -0.133D-02 -0.151D-02
Maxdispl :   0.2591   ||displ|| :   0.4430   Lambda : -0.201D-02
Largest |displ|/coords:  0.2591 (   3)  0.2043 (   2)  0.1282 (   1)
................................................................................
.............................. CYCLE   37 ......................................
................................................................................
   1    -45.6138661 -0.456139E+02  0.234E-01    8.25       0.0  T
   2    -45.6139246 -0.585486E-04  0.173E-01    8.23       1.0  T
   3    -45.6139625 -0.379189E-04  0.436E-02    8.19       1.0  T
   4    -45.6139689 -0.639151E-05  0.117E-02    8.19       1.8  T
   5    -45.6139692 -0.296673E-06  0.589E-03    8.19       3.5  T
   6    -45.6139693 -0.396669E-07  0.290E-03    8.19       7.2  T
speedup  0.89
cpu  time for SCC    0.00 s
wall time for SCC    0.00 s
speedup  1.00
cpu  time for grad    0.01 s
wall time for grad    0.01 s
 E :    -45.36093917  G :  0.031601    pred/act E change: -0.143D-02 -0.565D-03
Maxdispl :   0.1781   ||displ|| :   0.3502   Lambda : -0.207D-02
Largest |displ|/coords:  0.1781 (   3)  0.1523 (   2)  0.1160 (  23)
................................................................................
.............................. CYCLE   38 ......................................
................................................................................
   1    -45.6234966 -0.456235E+02  0.227E-01    8.34       0.0  T
   2    -45.6235189 -0.223696E-04  0.166E-01    8.32       1.0  T
   3    -45.6235309 -0.119412E-04  0.345E-02    8.30       1.0  T
   4    -45.6235336 -0.272212E-05  0.117E-02    8.31       1.8  T
   5    -45.6235338 -0.144991E-06  0.308E-03    8.31       6.8  T
   6    -45.6235338 -0.151079E-07  0.167E-03    8.31      12.5  T
speedup  1.11
cpu  time for SCC    0.00 s
wall time for SCC    0.00 s
speedup  1.00
cpu  time for grad    0.01 s
wall time for grad    0.01 s
 E :    -45.36174661  G :  0.020427    pred/act E change: -0.120D-02 -0.807D-03
Maxdispl :   0.1457   ||displ|| :   0.2983   Lambda : -0.125D-02
Largest |displ|/coords:  0.1457 (   3)  0.1291 (   6)  0.1261 (   1)
................................................................................
.............................. CYCLE   39 ......................................
................................................................................
   1    -45.6172897 -0.456173E+02  0.223E-01    8.22       0.0  T
   2    -45.6173348 -0.450558E-04  0.164E-01    8.24       1.0  T
   3    -45.6173575 -0.227363E-04  0.409E-02    8.27       1.0  T
   4    -45.6173628 -0.523680E-05  0.107E-02    8.25       1.9  T
   5    -45.6173630 -0.198854E-06  0.472E-03    8.25       4.4  T
   6    -45.6173630 -0.245034E-07  0.254E-03    8.25       8.2  T
speedup  0.87
cpu  time for SCC    0.00 s
wall time for SCC    0.00 s
speedup  0.98
cpu  time for grad    0.01 s
wall time for grad    0.01 s
 E :    -45.36177196  G :  0.023306    pred/act E change: -0.116D-02 -0.254D-04
Maxdispl :   0.0556   ||displ|| :   0.1489   Lambda : -0.113D-02
Largest |displ|/coords:  0.0556 (   6)  0.0528 (  13)  0.0472 (  14)
................................................................................
.............................. CYCLE   40 ......................................
................................................................................
   1    -45.6179542 -0.456180E+02  0.140E-01    8.24       0.0  T
   2    -45.6179705 -0.162567E-04  0.102E-01    8.23       1.0  T
   3    -45.6179792 -0.865024E-05  0.255E-02    8.22       1.0  T
   4    -45.6179809 -0.170842E-05  0.612E-03    8.22       3.4  T
   5    -45.6179809 -0.606948E-07  0.286E-03    8.22       7.3  T
   6    -45.6179809 -0.950796E-08  0.142E-03    8.22      14.7  T
speedup  0.85
cpu  time for SCC    0.00 s
wall time for SCC    0.00 s
speedup  0.98
cpu  time for grad    0.01 s
wall time for grad    0.01 s
 E :    -45.36232071  G :  0.007768    pred/act E change: -0.682D-03 -0.549D-03
Maxdispl :   0.0638   ||displ|| :   0.1404   Lambda : -0.254D-03
Largest |displ|/coords:  0.0638 (   2)  0.0535 (   1)  0.0502 (   7)
................................................................................
.............................. CYCLE   41 ......................................
................................................................................
   1    -45.6220411 -0.456220E+02  0.812E-02    8.22       0.0  T
   2    -45.6220476 -0.640947E-05  0.607E-02    8.21       1.0  T
   3    -45.6220513 -0.374930E-05  0.165E-02    8.20       1.3  T
   4    -45.6220521 -0.773400E-06  0.501E-03    8.20       4.2  T
   5    -45.6220521 -0.453258E-07  0.192E-03    8.20      10.8  T
   6    -45.6220521 -0.452527E-08  0.964E-04    8.20      21.6  T
speedup  0.87
cpu  time for SCC    0.00 s
wall time for SCC    0.00 s
speedup  0.99
cpu  time for grad    0.01 s
wall time for grad    0.01 s
 E :    -45.36238782  G :  0.010557    pred/act E change: -0.579D-03 -0.671D-04
Maxdispl :   0.0605   ||displ|| :   0.1010   Lambda : -0.204D-03
Largest |displ|/coords:  0.0605 (   6)  0.0427 (   2)  0.0352 (  27)
................................................................................
.............................. CYCLE   42 ......................................
................................................................................
   1    -45.6197233 -0.456197E+02  0.686E-02    8.16       0.0  T
   2    -45.6197243 -0.103841E-05  0.504E-02    8.16       1.0  T
   3    -45.6197251 -0.806553E-06  0.860E-03    8.17       2.4  T
   4    -45.6197252 -0.947813E-07  0.238E-03    8.16       8.8  T
   5    -45.6197252 -0.963541E-08  0.707E-04    8.16      29.5  T
speedup  0.79
cpu  time for SCC    0.00 s
wall time for SCC    0.00 s
speedup  0.97
cpu  time for grad    0.01 s
wall time for grad    0.01 s
 E :    -45.36250940  G :  0.006459    pred/act E change: -0.129D-03 -0.122D-03
Maxdispl :   0.0951   ||displ|| :   0.1599   Lambda : -0.164D-03
Largest |displ|/coords:  0.0951 (   1)  0.0497 (   3)  0.0478 (   2)
................................................................................
.............................. CYCLE   43 ......................................
................................................................................
   1    -45.6188515 -0.456189E+02  0.934E-02    8.14       0.0  T
   2    -45.6188560 -0.454832E-05  0.701E-02    8.15       1.0  T
   3    -45.6188590 -0.295148E-05  0.140E-02    8.15       1.5  T
   4    -45.6188596 -0.650617E-06  0.462E-03    8.15       4.5  T
   5    -45.6188596 -0.272565E-07  0.158E-03    8.15      13.2  T
   6    -45.6188597 -0.325686E-08  0.914E-04    8.15      22.8  T
speedup  1.11
cpu  time for SCC    0.01 s
wall time for SCC    0.00 s
speedup  1.00
cpu  time for grad    0.01 s
wall time for grad    0.01 s
 E :    -45.36253788  G :  0.005209    pred/act E change: -0.103D-03 -0.285D-04
Maxdispl :   0.0395   ||displ|| :   0.0686   Lambda : -0.116D-03
Largest |displ|/coords:  0.0395 (   2)  0.0373 (   5)  0.0187 (  16)
................................................................................
.............................. CYCLE   44 ......................................
................................................................................
   1    -45.6186400 -0.456186E+02  0.494E-02    8.14       0.0  T
   2    -45.6186405 -0.568825E-06  0.369E-02    8.14       1.0  T
   3    -45.6186411 -0.507741E-06  0.434E-03    8.15       4.8  T
   4    -45.6186411 -0.613094E-07  0.148E-03    8.14      14.1  T
   5    -45.6186411 -0.208056E-08  0.557E-04    8.14      37.4  T
speedup  1.05
cpu  time for SCC    0.00 s
wall time for SCC    0.00 s
speedup  0.97
cpu  time for grad    0.01 s
wall time for grad    0.01 s
 E :    -45.36260989  G :  0.003553    pred/act E change: -0.841D-04 -0.720D-04
Maxdispl :   0.0414   ||displ|| :   0.0780   Lambda : -0.568D-04
Largest |displ|/coords:  0.0414 (   2)  0.0409 (   1)  0.0235 (  16)
................................................................................
.............................. CYCLE   45 ......................................
................................................................................
   1    -45.6192339 -0.456192E+02  0.471E-02    8.16       0.0  T
   2    -45.6192341 -0.236191E-06  0.353E-02    8.16       1.0  T
   3    -45.6192343 -0.232568E-06  0.279E-03    8.16       7.5  T
   4    -45.6192344 -0.190132E-07  0.134E-03    8.16      15.5  T
   5    -45.6192344 -0.116552E-08  0.344E-04    8.16      60.6  T
   6    -45.6192344 -0.964562E-10  0.197E-04    8.16     105.9  T
speedup  1.09
cpu  time for SCC    0.00 s
wall time for SCC    0.00 s
speedup  0.96
cpu  time for grad    0.01 s
wall time for grad    0.01 s
 E :    -45.36265301  G :  0.003802    pred/act E change: -0.583D-04 -0.431D-04
Maxdispl :   0.1055   ||displ|| :   0.1929   Lambda : -0.976D-04
Largest |displ|/coords:  0.1055 (   1)  0.0888 (   2)  0.0573 (  16)
................................................................................
.............................. CYCLE   46 ......................................
................................................................................
   1    -45.6188123 -0.456188E+02  0.116E-01    8.17       0.0  T
   2    -45.6188138 -0.149956E-05  0.867E-02    8.18       1.0  T
   3    -45.6188153 -0.147150E-05  0.845E-03    8.19       2.5  T
   4    -45.6188154 -0.139718E-06  0.293E-03    8.19       7.1  T
   5    -45.6188154 -0.709659E-08  0.855E-04    8.19      24.4  T
   6    -45.6188154 -0.767720E-09  0.474E-04    8.19      44.0  T
speedup  1.11
cpu  time for SCC    0.00 s
wall time for SCC    0.00 s
speedup  1.06
cpu  time for grad    0.01 s
wall time for grad    0.01 s
 E :    -45.36271379  G :  0.004817    pred/act E change: -0.286D-04 -0.608D-04
Maxdispl :   0.0791   ||displ|| :   0.1275   Lambda : -0.567D-04
Largest |displ|/coords:  0.0791 (   1)  0.0510 (   2)  0.0419 (   8)
................................................................................
.............................. CYCLE   47 ......................................
................................................................................
   1    -45.6190307 -0.456190E+02  0.803E-02    8.21       0.0  T
   2    -45.6190313 -0.634077E-06  0.604E-02    8.21       1.0  T
   3    -45.6190321 -0.741347E-06  0.527E-03    8.22       4.0  T
   4    -45.6190321 -0.363807E-07  0.139E-03    8.22      15.1  T
   5    -45.6190321 -0.214673E-08  0.639E-04    8.22      32.6  T
speedup  1.08
cpu  time for SCC    0.00 s
wall time for SCC    0.00 s
speedup  1.06
cpu  time for grad    0.01 s
wall time for grad    0.01 s
 E :    -45.36275077  G :  0.004531    pred/act E change: -0.506D-04 -0.370D-04
Maxdispl :   0.0599   ||displ|| :   0.1178   Lambda : -0.514D-04
Largest |displ|/coords:  0.0599 (   1)  0.0513 (   6)  0.0381 (  16)
................................................................................
.............................. CYCLE   48 ......................................
................................................................................
   1    -45.6196575 -0.456197E+02  0.773E-02    8.23       0.0  T
   2    -45.6196584 -0.864894E-06  0.580E-02    8.23       1.0  T
   3    -45.6196593 -0.937127E-06  0.702E-03    8.23       3.0  T
   4    -45.6196594 -0.675362E-07  0.211E-03    8.23       9.9  T
   5    -45.6196594 -0.606343E-08  0.708E-04    8.23      29.4  T
speedup  1.05
cpu  time for SCC    0.00 s
wall time for SCC    0.00 s
speedup  1.08
cpu  time for grad    0.01 s
wall time for grad    0.01 s
 E :    -45.36277858  G :  0.003294    pred/act E change: -0.288D-04 -0.278D-04
Maxdispl :   0.0780   ||displ|| :   0.1372   Lambda : -0.505D-04
Largest |displ|/coords:  0.0780 (   1)  0.0604 (   6)  0.0395 (   8)
................................................................................
.............................. CYCLE   49 ......................................
................................................................................
   1    -45.6185495 -0.456185E+02  0.933E-02    8.23       0.0  T
   2    -45.6185506 -0.108297E-05  0.699E-02    8.23       1.0  T
   3    -45.6185519 -0.126307E-05  0.792E-03    8.23       2.6  T
   4    -45.6185520 -0.704411E-07  0.250E-03    8.23       8.3  T
   5    -45.6185520 -0.928382E-08  0.867E-04    8.23      24.1  T
   6    -45.6185520 -0.806359E-09  0.531E-04    8.23      39.3  T
speedup  1.11
cpu  time for SCC    0.00 s
wall time for SCC    0.00 s
speedup  1.05
cpu  time for grad    0.01 s
wall time for grad    0.01 s
 E :    -45.36279998  G :  0.004497    pred/act E change: -0.261D-04 -0.214D-04
Maxdispl :   0.0280   ||displ|| :   0.0487   Lambda : -0.325D-04
Largest |displ|/coords:  0.0280 (   2)  0.0189 (   4)  0.0169 (   1)
................................................................................
.............................. CYCLE   50 ......................................
................................................................................
   1    -45.6197724 -0.456198E+02  0.310E-02    8.24       0.0  T
   2    -45.6197728 -0.388030E-06  0.227E-02    8.24       1.0  T
   3    -45.6197730 -0.195636E-06  0.382E-03    8.23       5.5  T
   4    -45.6197730 -0.469134E-07  0.156E-03    8.23      13.4  T
   5    -45.6197730 -0.215022E-08  0.366E-04    8.23      57.0  T
speedup  1.05
cpu  time for SCC    0.00 s
wall time for SCC    0.00 s
speedup  1.07
cpu  time for grad    0.01 s
wall time for grad    0.01 s
 E :    -45.36282192  G :  0.002774    pred/act E change: -0.257D-04 -0.219D-04
Maxdispl :   0.0529   ||displ|| :   0.0792   Lambda : -0.363D-04
Largest |displ|/coords:  0.0529 (   6)  0.0282 (   1)  0.0206 (  16)
................................................................................
.............................. CYCLE   51 ......................................
................................................................................
   1    -45.6198825 -0.456199E+02  0.540E-02    8.22       0.0  T
   2    -45.6198831 -0.614884E-06  0.397E-02    8.22       1.0  T
   3    -45.6198835 -0.415423E-06  0.594E-03    8.22       3.5  T
   4    -45.6198836 -0.682329E-07  0.252E-03    8.22       8.3  T
   5    -45.6198836 -0.554653E-08  0.484E-04    8.22      43.0  T
   6    -45.6198836 -0.301924E-09  0.308E-04    8.22      67.7  T
speedup  0.89
cpu  time for SCC    0.00 s
wall time for SCC    0.00 s
speedup  0.96
cpu  time for grad    0.01 s
wall time for grad    0.01 s
 E :    -45.36284191  G :  0.002438    pred/act E change: -0.163D-04 -0.200D-04
Maxdispl :   0.0536   ||displ|| :   0.0850   Lambda : -0.193D-04
Largest |displ|/coords:  0.0536 (   1)  0.0405 (   6)  0.0254 (  16)
................................................................................
.............................. CYCLE   52 ......................................
................................................................................
   1    -45.6199935 -0.456200E+02  0.549E-02    8.22       0.0  T
   2    -45.6199938 -0.351545E-06  0.407E-02    8.22       1.0  T
   3    -45.6199942 -0.349129E-06  0.516E-03    8.21       4.0  T
   4    -45.6199942 -0.258743E-07  0.156E-03    8.21      13.3  T
   5    -45.6199942 -0.318352E-08  0.426E-04    8.21      48.9  T
   6    -45.6199942 -0.197701E-09  0.282E-04    8.21      74.0  T
speedup  0.87
cpu  time for SCC    0.00 s
wall time for SCC    0.00 s
speedup  0.96
cpu  time for grad    0.01 s
wall time for grad    0.01 s
 E :    -45.36285462  G :  0.001920    pred/act E change: -0.183D-04 -0.127D-04
Maxdispl :   0.0625   ||displ|| :   0.0903   Lambda : -0.148D-04
Largest |displ|/coords:  0.0625 (   1)  0.0425 (   6)  0.0255 (  16)

generating ANC from model Hessian ...
 Shifting diagonal of input Hessian by   5.243077833638326E-003
 Lowest  eigenvalues of input Hessian
    0.005000   -0.000000   -0.000000   -0.000000    0.000000    0.000000
    0.000000    0.005318    0.005627    0.005792    0.005824    0.006189
    0.006803    0.007230    0.007941    0.009353    0.011521    0.012477
 Highest eigenvalues
    1.374276    1.391367    1.400484    2.632801    3.220487    3.828965
 
cpu  time for ANC gen    0.01 s
wall time for ANC gen    0.01 s
................................................................................
.............................. CYCLE   53 ......................................
................................................................................
   1    -45.6200057 -0.456200E+02  0.517E-02    8.22       0.0  T
   2    -45.6200060 -0.257059E-06  0.385E-02    8.22       1.0  T
   3    -45.6200062 -0.279882E-06  0.446E-03    8.22       4.7  T
   4    -45.6200063 -0.172978E-07  0.928E-04    8.22      22.5  T
   5    -45.6200063 -0.174010E-08  0.408E-04    8.22      51.1  T
speedup  1.05
cpu  time for SCC    0.00 s
wall time for SCC    0.00 s
speedup  1.03
cpu  time for grad    0.01 s
wall time for grad    0.01 s
 E :    -45.36286521  G :  0.001686    pred/act E change:  0.000D+00 -0.106D-04
Maxdispl :   0.0241   ||displ|| :   0.0318   Lambda : -0.119D-04
Largest |displ|/coords:  0.0241 (   3)  0.0109 (   7)  0.0080 (  20)
................................................................................
.............................. CYCLE   54 ......................................
................................................................................
   1    -45.6202443 -0.456202E+02  0.198E-02    8.22       0.0  T
   2    -45.6202443 -0.478005E-07  0.149E-02    8.22       1.4  T
   3    -45.6202444 -0.551875E-07  0.145E-03    8.22      14.4  T
   4    -45.6202444 -0.401185E-08  0.655E-04    8.22      31.8  T
   5    -45.6202444 -0.415703E-09  0.187E-04    8.22     111.7  T
speedup  1.05
cpu  time for SCC    0.00 s
wall time for SCC    0.00 s
speedup  0.93
cpu  time for grad    0.01 s
wall time for grad    0.01 s
 E :    -45.36287406  G :  0.001055    pred/act E change:  0.000D+00 -0.885D-05
Maxdispl :   0.0342   ||displ|| :   0.0637   Lambda : -0.140D-04
Largest |displ|/coords:  0.0342 (   3)  0.0332 (   1)  0.0199 (   7)
................................................................................
.............................. CYCLE   55 ......................................
................................................................................
   1    -45.6204606 -0.456205E+02  0.319E-02    8.23       0.0  T
   2    -45.6204607 -0.985393E-07  0.240E-02    8.23       1.0  T
   3    -45.6204608 -0.919066E-07  0.236E-03    8.23       8.8  T
   4    -45.6204608 -0.103773E-07  0.103E-03    8.23      20.2  T
   5    -45.6204608 -0.678369E-09  0.249E-04    8.23      83.9  T
   6    -45.6204608 -0.529070E-10  0.157E-04    8.23     132.9  T
speedup  0.87
cpu  time for SCC    0.00 s
wall time for SCC    0.00 s
speedup  0.96
cpu  time for grad    0.01 s
wall time for grad    0.01 s
 E :    -45.36288314  G :  0.000956    pred/act E change: -0.595D-05 -0.908D-05
Maxdispl :   0.0363   ||displ|| :   0.0626   Lambda : -0.760D-05
Largest |displ|/coords:  0.0363 (   3)  0.0355 (   1)  0.0168 (   7)
................................................................................
.............................. CYCLE   56 ......................................
................................................................................
   1    -45.6203970 -0.456204E+02  0.274E-02    8.23       0.0  T
   2    -45.6203971 -0.683276E-07  0.206E-02    8.23       1.0  T
   3    -45.6203971 -0.678139E-07  0.183E-03    8.23      11.4  T
   4    -45.6203971 -0.641550E-08  0.659E-04    8.23      31.6  T
   5    -45.6203971 -0.424798E-09  0.228E-04    8.23      91.4  T
speedup  1.05
cpu  time for SCC    0.00 s
wall time for SCC    0.00 s
speedup  1.04
cpu  time for grad    0.01 s
wall time for grad    0.01 s
 E :    -45.36288872  G :  0.000825    pred/act E change: -0.703D-05 -0.558D-05
Maxdispl :   0.0693   ||displ|| :   0.1043   Lambda : -0.101D-04
Largest |displ|/coords:  0.0693 (   1)  0.0538 (   3)  0.0262 (   8)
................................................................................
.............................. CYCLE   57 ......................................
................................................................................
   1    -45.6201623 -0.456202E+02  0.378E-02    8.24       0.0  T
   2    -45.6201625 -0.135976E-06  0.283E-02    8.24       1.0  T
   3    -45.6201626 -0.134498E-06  0.249E-03    8.24       8.4  T
   4    -45.6201626 -0.110653E-07  0.739E-04    8.24      28.2  T
   5    -45.6201626 -0.491987E-09  0.298E-04    8.24      69.9  T
speedup  1.08
cpu  time for SCC    0.00 s
wall time for SCC    0.00 s
speedup  1.04
cpu  time for grad    0.01 s
wall time for grad    0.01 s
 E :    -45.36289590  G :  0.000958    pred/act E change: -0.382D-05 -0.717D-05
Maxdispl :   0.0791   ||displ|| :   0.1168   Lambda : -0.980D-05
Largest |displ|/coords:  0.0791 (   1)  0.0618 (   3)  0.0326 (   8)
................................................................................
.............................. CYCLE   58 ......................................
................................................................................
   1    -45.6198486 -0.456198E+02  0.424E-02    8.24       0.0  T
   2    -45.6198488 -0.170942E-06  0.317E-02    8.24       1.0  T
   3    -45.6198490 -0.174107E-06  0.270E-03    8.24       7.7  T
   4    -45.6198490 -0.130668E-07  0.676E-04    8.24      30.8  T
   5    -45.6198490 -0.542947E-09  0.361E-04    8.24      57.7  T
speedup  1.05
cpu  time for SCC    0.00 s
wall time for SCC    0.00 s
speedup  1.03
cpu  time for grad    0.01 s
wall time for grad    0.01 s
 E :    -45.36290321  G :  0.001438    pred/act E change: -0.511D-05 -0.731D-05
Maxdispl :   0.1023   ||displ|| :   0.1494   Lambda : -0.120D-04
Largest |displ|/coords:  0.1023 (   1)  0.0798 (   3)  0.0410 (   8)
................................................................................
.............................. CYCLE   59 ......................................
................................................................................
   1    -45.6195282 -0.456195E+02  0.536E-02    8.23       0.0  T
   2    -45.6195285 -0.310908E-06  0.401E-02    8.23       1.0  T
   3    -45.6195288 -0.294190E-06  0.381E-03    8.24       5.5  T
   4    -45.6195288 -0.285025E-07  0.145E-03    8.24      14.4  T
   5    -45.6195289 -0.191672E-08  0.435E-04    8.24      47.9  T
   6    -45.6195289 -0.222421E-09  0.260E-04    8.24      80.1  T
speedup  1.11
cpu  time for SCC    0.00 s
wall time for SCC    0.00 s
speedup  1.06
cpu  time for grad    0.01 s
wall time for grad    0.01 s
 E :    -45.36291200  G :  0.001793    pred/act E change: -0.497D-05 -0.880D-05
Maxdispl :   0.0947   ||displ|| :   0.1444   Lambda : -0.113D-04
Largest |displ|/coords:  0.0947 (   1)  0.0815 (   3)  0.0412 (   2)
................................................................................
.............................. CYCLE   60 ......................................
................................................................................
   1    -45.6193420 -0.456193E+02  0.545E-02    8.23       0.0  T
   2    -45.6193423 -0.360763E-06  0.408E-02    8.23       1.0  T
   3    -45.6193427 -0.318445E-06  0.432E-03    8.24       4.8  T
   4    -45.6193427 -0.397626E-07  0.202E-03    8.23      10.3  T
   5    -45.6193427 -0.311068E-08  0.453E-04    8.23      46.0  T
   6    -45.6193427 -0.232113E-09  0.290E-04    8.23      71.9  T
speedup  0.89
cpu  time for SCC    0.00 s
wall time for SCC    0.00 s
speedup  0.96
cpu  time for grad    0.01 s
wall time for grad    0.01 s
 E :    -45.36292014  G :  0.001660    pred/act E change: -0.615D-05 -0.813D-05
Maxdispl :   0.0712   ||displ|| :   0.1170   Lambda : -0.857D-05
Largest |displ|/coords:  0.0712 (   3)  0.0703 (   1)  0.0346 (   2)
................................................................................
.............................. CYCLE   61 ......................................
................................................................................
   1    -45.6193952 -0.456194E+02  0.450E-02    8.23       0.0  T
   2    -45.6193955 -0.298996E-06  0.337E-02    8.23       1.0  T
   3    -45.6193958 -0.238370E-06  0.396E-03    8.24       5.3  T
   4    -45.6193958 -0.394046E-07  0.199E-03    8.24      10.5  T
   5    -45.6193958 -0.286093E-08  0.398E-04    8.24      52.4  T
   6    -45.6193958 -0.170068E-09  0.257E-04    8.24      81.0  T
speedup  0.89
cpu  time for SCC    0.00 s
wall time for SCC    0.00 s
speedup  0.96
cpu  time for grad    0.01 s
wall time for grad    0.01 s
 E :    -45.36292614  G :  0.001177    pred/act E change: -0.577D-05 -0.600D-05
Maxdispl :   0.0594   ||displ|| :   0.0913   Lambda : -0.520D-05
Largest |displ|/coords:  0.0594 (   3)  0.0506 (   1)  0.0296 (   2)
................................................................................
.............................. CYCLE   62 ......................................
................................................................................
   1    -45.6195024 -0.456195E+02  0.354E-02    8.24       0.0  T
   2    -45.6195026 -0.186470E-06  0.265E-02    8.24       1.0  T
   3    -45.6195028 -0.164572E-06  0.312E-03    8.24       6.7  T
   4    -45.6195028 -0.228335E-07  0.153E-03    8.24      13.6  T
   5    -45.6195028 -0.192487E-08  0.336E-04    8.24      62.0  T
   6    -45.6195028 -0.119726E-09  0.217E-04    8.24      96.3  T
speedup  1.11
cpu  time for SCC    0.00 s
wall time for SCC    0.00 s
speedup  1.03
cpu  time for grad    0.01 s
wall time for grad    0.01 s
 E :    -45.36292974  G :  0.000824    pred/act E change: -0.434D-05 -0.361D-05
Maxdispl :   0.0360   ||displ|| :   0.0535   Lambda : -0.294D-05
Largest |displ|/coords:  0.0360 (   3)  0.0246 (   1)  0.0194 (   2)
................................................................................
.............................. CYCLE   63 ......................................
................................................................................
   1    -45.6197850 -0.456198E+02  0.199E-02    8.24       0.0  T
   2    -45.6197850 -0.819581E-07  0.149E-02    8.24       1.4  T
   3    -45.6197851 -0.658598E-07  0.202E-03    8.24      10.3  T
   4    -45.6197851 -0.110405E-07  0.893E-04    8.24      23.3  T
   5    -45.6197851 -0.823825E-09  0.221E-04    8.24      94.3  T
speedup  0.79
cpu  time for SCC    0.00 s
wall time for SCC    0.00 s
speedup  0.93
cpu  time for grad    0.01 s
wall time for grad    0.01 s
 E :    -45.36293166  G :  0.000597    pred/act E change: -0.262D-05 -0.192D-05
Maxdispl :   0.0374   ||displ|| :   0.0576   Lambda : -0.146D-05
Largest |displ|/coords:  0.0374 (   3)  0.0297 (   1)  0.0223 (   2)
................................................................................
.............................. CYCLE   64 ......................................
................................................................................
   1    -45.6197536 -0.456198E+02  0.222E-02    8.24       0.0  T
   2    -45.6197536 -0.542637E-07  0.167E-02    8.24       1.2  T
   3    -45.6197537 -0.633641E-07  0.168E-03    8.24      12.4  T
   4    -45.6197537 -0.427663E-08  0.604E-04    8.24      34.5  T
   5    -45.6197537 -0.499917E-09  0.202E-04    8.24     103.0  T
speedup  1.05
cpu  time for SCC    0.00 s
wall time for SCC    0.00 s
speedup  1.03
cpu  time for grad    0.01 s
wall time for grad    0.01 s
 E :    -45.36293251  G :  0.000596    pred/act E change: -0.147D-05 -0.842D-06
Maxdispl :   0.0087   ||displ|| :   0.0128   Lambda : -0.869D-06
Largest |displ|/coords:  0.0087 (   2)  0.0044 (   3)  0.0033 (   4)
................................................................................
.............................. CYCLE   65 ......................................
................................................................................
   1    -45.6199622 -0.456200E+02  0.548E-03    8.25       0.0  T
   2    -45.6199622 -0.148698E-07  0.412E-03    8.25       5.1  T
   3    -45.6199622 -0.100438E-07  0.775E-04    8.24      26.9  T
   4    -45.6199622 -0.213642E-08  0.273E-04    8.24      76.5  T
speedup  0.97
cpu  time for SCC    0.00 s
wall time for SCC    0.00 s
speedup  1.00
cpu  time for grad    0.01 s
wall time for grad    0.01 s
 E :    -45.36293304  G :  0.000413    pred/act E change: -0.731D-06 -0.532D-06
Maxdispl :   0.0108   ||displ|| :   0.0169   Lambda : -0.519D-06
Largest |displ|/coords:  0.0108 (   2)  0.0077 (   3)  0.0054 (   8)
................................................................................
.............................. CYCLE   66 ......................................
................................................................................
   1    -45.6199447 -0.456199E+02  0.747E-03    8.24       0.0  T
   2    -45.6199447 -0.899674E-08  0.558E-03    8.24       3.7  T
   3    -45.6199447 -0.915741E-08  0.575E-04    8.24      36.3  T
   4    -45.6199447 -0.744109E-09  0.251E-04    8.24      83.1  T
speedup  0.94
cpu  time for SCC    0.00 s
wall time for SCC    0.00 s
speedup  0.99
cpu  time for grad    0.01 s
wall time for grad    0.01 s
 E :    -45.36293341  G :  0.000240    pred/act E change: -0.435D-06 -0.375D-06
Maxdispl :   0.0113   ||displ|| :   0.0144   Lambda : -0.445D-06
Largest |displ|/coords:  0.0113 (   2)  0.0038 (   1)  0.0038 (   9)
................................................................................
.............................. CYCLE   67 ......................................
................................................................................
   1    -45.6199502 -0.456200E+02  0.764E-03    8.24       0.0  T
   2    -45.6199502 -0.117967E-07  0.569E-03    8.24       3.7  T
   3    -45.6199502 -0.974692E-08  0.670E-04    8.24      31.1  T
   4    -45.6199502 -0.126299E-08  0.259E-04    8.24      80.4  T
speedup  0.94
cpu  time for SCC    0.00 s
wall time for SCC    0.00 s
speedup  0.99
cpu  time for grad    0.01 s
wall time for grad    0.01 s
 E :    -45.36293371  G :  0.000253    pred/act E change: -0.260D-06 -0.296D-06
Maxdispl :   0.0087   ||displ|| :   0.0116   Lambda : -0.220D-06
Largest |displ|/coords:  0.0087 (   2)  0.0037 (   9)  0.0036 (   1)
................................................................................
.............................. CYCLE   68 ......................................
................................................................................
   1    -45.6199384 -0.456199E+02  0.580E-03    8.24       0.0  T
   2    -45.6199384 -0.441089E-08  0.432E-03    8.24       4.8  T
   3    -45.6199384 -0.452491E-08  0.383E-04    8.24      54.4  T
   4    -45.6199384 -0.302421E-09  0.105E-04    8.24     197.7  T
speedup  0.97
cpu  time for SCC    0.00 s
wall time for SCC    0.00 s
speedup  1.00
cpu  time for grad    0.01 s
wall time for grad    0.01 s
 E :    -45.36293388  G :  0.000289    pred/act E change: -0.223D-06 -0.168D-06
Maxdispl :   0.0141   ||displ|| :   0.0179   Lambda : -0.281D-06
Largest |displ|/coords:  0.0141 (   2)  0.0056 (   9)  0.0052 (   1)
................................................................................
.............................. CYCLE   69 ......................................
................................................................................
   1    -45.6199383 -0.456199E+02  0.872E-03    8.24       0.0  T
   2    -45.6199383 -0.914883E-08  0.651E-03    8.24       3.2  T
   3    -45.6199383 -0.996632E-08  0.584E-04    8.24      35.7  T
   4    -45.6199383 -0.571717E-09  0.212E-04    8.24      98.4  T
speedup  0.97
cpu  time for SCC    0.00 s
wall time for SCC    0.00 s
speedup  1.03
cpu  time for grad    0.01 s
wall time for grad    0.01 s
 E :    -45.36293407  G :  0.000263    pred/act E change: -0.110D-06 -0.196D-06
Maxdispl :   0.0096   ||displ|| :   0.0123   Lambda : -0.181D-06
Largest |displ|/coords:  0.0096 (   2)  0.0047 (   1)  0.0039 (   5)
................................................................................
.............................. CYCLE   70 ......................................
................................................................................
   1    -45.6199437 -0.456199E+02  0.602E-03    8.24       0.0  T
   2    -45.6199437 -0.390625E-08  0.450E-03    8.24       4.6  T
   3    -45.6199437 -0.367083E-08  0.413E-04    8.24      50.5  T
   4    -45.6199437 -0.339888E-09  0.182E-04    8.24     114.4  T
speedup  1.00
cpu  time for SCC    0.00 s
wall time for SCC    0.00 s
speedup  1.01
cpu  time for grad    0.01 s
wall time for grad    0.01 s
 E :    -45.36293421  G :  0.000183    pred/act E change: -0.140D-06 -0.138D-06
Maxdispl :   0.0147   ||displ|| :   0.0177   Lambda : -0.204D-06
Largest |displ|/coords:  0.0147 (   2)  0.0061 (   5)  0.0044 (   3)
................................................................................
.............................. CYCLE   71 ......................................
................................................................................
   1    -45.6199343 -0.456199E+02  0.824E-03    8.24       0.0  T
   2    -45.6199343 -0.830052E-08  0.614E-03    8.24       3.4  T
   3    -45.6199343 -0.780403E-08  0.675E-04    8.24      30.9  T
   4    -45.6199343 -0.754817E-09  0.290E-04    8.24      72.0  T
speedup  1.00
cpu  time for SCC    0.00 s
wall time for SCC    0.00 s
speedup  1.01
cpu  time for grad    0.01 s
wall time for grad    0.01 s
 E :    -45.36293436  G :  0.000161    pred/act E change: -0.905D-07 -0.146D-06
Maxdispl :   0.0091   ||displ|| :   0.0108   Lambda : -0.112D-06
Largest |displ|/coords:  0.0091 (   2)  0.0039 (   5)  0.0029 (   3)
................................................................................
.............................. CYCLE   72 ......................................
................................................................................
   1    -45.6199368 -0.456199E+02  0.484E-03    8.24       0.0  T
   2    -45.6199368 -0.294196E-08  0.360E-03    8.24       5.8  T
   3    -45.6199368 -0.265705E-08  0.417E-04    8.24      49.9  T
   4    -45.6199368 -0.262602E-09  0.157E-04    8.24     132.5  T
speedup  1.00
cpu  time for SCC    0.00 s
wall time for SCC    0.00 s
speedup  1.01
cpu  time for grad    0.01 s
wall time for grad    0.01 s
 E :    -45.36293444  G :  0.000162    pred/act E change: -0.102D-06 -0.850D-07
Maxdispl :   0.0128   ||displ|| :   0.0162   Lambda : -0.996D-07
Largest |displ|/coords:  0.0128 (   2)  0.0070 (   3)  0.0051 (   5)

   *** GEOMETRY OPTIMIZATION CONVERGED AFTER 72 ITERATIONS ***

------------------------------------------------------------------------
 total energy gain (kcal):     -0.0434
------------------------------------------------------------------------
================
 final structure:
================
$coord
        0.55318999250349       -1.84762355140449       -0.12445808852243      S 
        1.27376368502137        0.49480687931387       -1.71544350612650      O 
        2.49311055188984       -2.18032681278091        1.74763961950222      O 
       -1.93271736520496       -1.03381270060347        1.17711440735596      O 
        0.03938562211358       -3.93916742459964       -1.74512181968600      O 
        1.97010173507963        4.44510115554766        4.62496366004790      O 
        2.87851517962674        5.25919608668341        5.96402813290712      H 
       -3.00050204178246        1.46862729485665       -3.56701222837051      O 
       -0.35623519716400        1.03530370934954       -2.62681494233022      H 
       -3.37023445020669       -0.12566285592241       -4.53364169809544      H 
       -3.96833107460112        1.36017821749591       -2.03233709942773      H 
       -0.27548823435886        0.05998551740019        5.48024560255013      O 
        0.35959140553609        1.81417390269649        5.31706438951429      H 
       -1.49079881448545       -0.52122568841016        3.00848350697560      H 
        1.17199496245838       -1.01799042939915        5.19843872243577      H 
        5.19400445681652        2.13318440142230        1.52075536538705      O 
        3.25433626515269        3.77638500166935        3.44932030741312      H 
        4.52208580566363        0.42545753163242        1.68766278948080      H 
        4.82038521033863        2.60987335541154       -0.19118327317342      H 
       -3.60863483533636       -3.04733673991364       -5.58201745669350      N 
       -2.95966412338763       -3.37814169628349       -7.35047526274139      H 
       -5.24407245807379       -4.01629049960333       -5.36853857479046      H 
       -2.32378625879896       -3.77469459724378       -4.33867255356222      H 
$end
 
 Bond Distances (Angstroems)
 ---------------------------
S1-O2=1.5462         S1-O3=1.4374         S1-O4=1.5461         S1-O5=1.4263         O2-S1=1.5462         O2-H9=1.0288         
O3-S1=1.4374         O4-S1=1.5461         O4-H14=1.0332        O5-S1=1.4263         O6-H7=0.9585         O6-H17=0.9870        
H7-O6=0.9585         O8-H10=1.0058        O8-H11=0.9618        H9-O2=1.0288         H10-O8=1.0058        H11-O8=0.9618        
O12-H13=0.9910       O12-H15=0.9666       H13-O12=0.9910       H14-O4=1.0332        H15-O12=0.9666       O16-H18=0.9751       
O16-H19=0.9609       H17-O6=0.9870        H18-O16=0.9751       H19-O16=0.9609       N20-H21=1.0121       N20-H22=1.0123       
N20-H23=1.0214       H21-N20=1.0121       H22-N20=1.0123       H23-N20=1.0214       
 N  H  Rav=1.0153 sigma=0.0044  Rmin=1.0121  Rmax=1.0214     3
 O  H  Rav=0.9869 sigma=0.0263  Rmin=0.9585  Rmax=1.0332    10
 S  O  Rav=1.4890 sigma=0.0573  Rmin=1.4263  Rmax=1.5462     4
 
 selected bond angles (degree)
 --------------------
O3-S1-O2=107.30                O4-S1-O2=103.24                O4-S1-O3=109.56                O5-S1-O2=109.98                
O5-S1-O3=117.10                O5-S1-O4=108.77                H9-O2-S1=105.75                H14-O4-S1=107.36               
H17-O6-H7=106.37               H11-O8-H10=106.01              
 
 selected dihedral angles (degree)
 ---------------------------------
H9-O2-S1-O3=197.75            H9-O2-S1-O4=313.44            H9-O2-S1-O5= 69.37            H14-O4-S1-O2=259.07           
H14-O4-S1-O3= 13.14           H14-O4-S1-O5=142.28           
 
 CMA Distance (Angstroems)
 ---------------------------
R(CMA):  1.4965

========================================================================
 FINAL SINGLEPOINT CALCULATION ON OPTIMIZED GEOMETRY
========================================================================

 Ncao       : 59
 Nao        : 58
 Nshell     : 34
 Nel        : 72
 T(el)      :   300.0
 intcut     :    25.0
 scfconv/Eh :  0.100E-05
   qconv/e  :  0.100E-03
 intneglect :  0.100E-07
 broydamp   :      0.250
 iter      E             dE          RMSdq      gap      omega  full diag
   1    -45.6199368 -0.456199E+02  0.634E-05    8.24       0.0  T
   2    -45.6199368 -0.162714E-11  0.407E-05    8.24     512.3  T
   3    -45.6199368 -0.959233E-12  0.574E-06    8.24    3630.0  T
speedup  0.87
cpu  time for SCC    0.00 s
wall time for SCC    0.00 s

   *** convergence criteria satisfied after 3 iterations ***

          eigenvalues
 #    :          24         25         26         27         28         29         30         31
 occ. :        2.000      2.000      2.000      2.000      2.000      2.000      2.000      2.000
 eps  :       -14.083    -13.820    -13.478    -13.434    -12.903    -12.830    -12.693    -12.458
 #    :          32         33         34         35         36         37         38         39
 occ. :        2.000      2.000      2.000      2.000      2.000      0.000      0.000      0.000
 eps  :       -12.421    -12.314    -12.184    -12.101    -11.273     -3.030     -0.946     -0.339
 #    :          40         41         42         43         44         45         46         47
 occ. :        0.000      0.000      0.000      0.000      0.000      0.000      0.000      0.000
 eps  :         0.415      0.733      0.939      2.442      2.804      3.896      5.142      5.417


   #   Z            q   n(s)   n(p)   n(d)      C6AA      α(0)
   1  16 S      1.706  1.581  1.775  0.938    88.628    15.845
   2   8 O     -0.633  1.759  4.874  0.000    25.963     6.878
   3   8 O     -0.705  1.757  4.948  0.000    28.853     7.202
   4   8 O     -0.641  1.762  4.879  0.000    26.174     6.906
   5   8 O     -0.681  1.755  4.926  0.000    28.198     7.120
   6   8 O     -0.615  1.751  4.865  0.000    25.557     6.823
   7   1 H      0.286  0.714  0.000  0.000     0.763     1.372
   8   8 O     -0.601  1.752  4.848  0.000    25.199     6.776
   9   1 H      0.390  0.610  0.000  0.000     0.498     1.106
  10   1 H      0.330  0.670  0.000  0.000     0.637     1.253
  11   1 H      0.304  0.696  0.000  0.000     0.709     1.323
  12   8 O     -0.601  1.756  4.845  0.000    25.192     6.775
  13   1 H      0.346  0.654  0.000  0.000     0.597     1.214
  14   1 H      0.392  0.608  0.000  0.000     0.495     1.103
  15   1 H      0.315  0.685  0.000  0.000     0.677     1.293
  16   8 O     -0.601  1.740  4.861  0.000    25.216     6.777
  17   1 H      0.330  0.670  0.000  0.000     0.637     1.254
  18   1 H      0.318  0.682  0.000  0.000     0.669     1.285
  19   1 H      0.299  0.701  0.000  0.000     0.724     1.337
  20   7 N     -0.455  1.368  4.087  0.000    31.963     8.396
  21   1 H      0.160  0.840  0.000  0.000     1.337     1.811
  22   1 H      0.159  0.841  0.000  0.000     1.344     1.816
  23   1 H      0.198  0.802  0.000  0.000     1.114     1.654

 Mol. C6AA /au·bohr⁶  :       4504.958411
 Mol. C8AA /au·bohr⁸  :      98926.654841
 Mol. α(0) /au        :         97.318296

 
 Wiberg/Mayer (AO) data. WBOs > 0.1 written file <wbo>
 largest (>0.05) Wiberg bond orders for each atom
           total WBO             WBO to atom ...
     1  S   4.831    O    5 1.427    O    3 1.381    O    4 0.995    O    2 0.993
     2  O   1.956    S    1 0.993    H    9 0.661    O    5 0.095    O    3 0.075    O    4 0.066    O    8 0.055
     3  O   1.760    S    1 1.381    O    5 0.118    O    4 0.090    O    2 0.075
     4  O   1.950    S    1 0.995    H   14 0.652    O    3 0.090    O    5 0.083    O    2 0.066    O   12 0.056
     5  O   1.776    S    1 1.427    O    3 0.118    O    2 0.095    O    4 0.083
     6  O   1.877    H    7 0.914    H   17 0.817    H   13 0.076
     7  H   0.918    O    6 0.914
     8  O   1.963    H   11 0.902    H   10 0.775    H    9 0.169    O    2 0.055    N   20 0.050
     9  H   0.848    O    2 0.661    O    8 0.169
    10  H   0.891    O    8 0.775    N   20 0.114
    11  H   0.908    O    8 0.902
    12  O   1.972    H   15 0.884    H   13 0.802    H   14 0.178    O    4 0.056
    13  H   0.880    O   12 0.802    O    6 0.076
    14  H   0.846    O    4 0.652    O   12 0.178
    15  H   0.901    O   12 0.884
    16  O   1.890    H   19 0.904    H   18 0.851    H   17 0.073
    17  H   0.891    O    6 0.817    O   16 0.073
    18  H   0.899    O   16 0.851
    19  H   0.911    O   16 0.904
    20  N   3.058    H   21 0.972    H   22 0.971    H   23 0.928    H   10 0.114    O    8 0.050
    21  H   0.974    N   20 0.972
    22  H   0.975    N   20 0.971
    23  H   0.961    N   20 0.928
 MOs/occ written to file <molden.input>
 
molecular dipole:
                 x           y           z       tot (Debye)
 q only:       -0.667       0.491      -0.333
   full:       -0.564       0.086      -0.468       1.877
molecular quadrupole (traceless):
                xx          xy          yy          xz          yz          zz
 q only:       -0.348       6.113      -5.856       6.070       5.505       6.204
  q+dip:       -0.832       8.886      -4.824       7.887       9.605       5.656
   full:       -0.867       8.949      -5.113       7.734       9.596       5.980

SCC energy    :     -45.6199368
rep           :       0.2569139
ES            :       0.2007436
AES           :      -0.0473614
AXC           :      -0.0068163
disp          :      -0.0159780
XB            :       0.0000000
fix           :       0.0000000
total E       :     -45.3629344
atomizationE  :       4.4459969     2789.91
(atE without considering molecular charge,
 total energy contains solvation terms)
H-L gap (eV)  :          8.2430
optimized geometry written to: xtbopt.xyz


------------------------------------------------------------------------
 * finished run on 2019/09/16 at 11:36:49.014     
------------------------------------------------------------------------
 total:
 * wall-time:     0 d,  0 h,  0 min,  1.781 sec
 *  cpu-time:     0 d,  0 h,  0 min,  1.429 sec
 * ratio c/w:     0.802 speedup
 SCF:
 * wall-time:     0 d,  0 h,  0 min,  0.127 sec
 *  cpu-time:     0 d,  0 h,  0 min,  0.123 sec
 * ratio c/w:     0.971 speedup
 ANC optimizer:
 * wall-time:     0 d,  0 h,  0 min,  1.369 sec
 *  cpu-time:     0 d,  0 h,  0 min,  1.284 sec
 * ratio c/w:     0.938 speedup

