      -----------------------------------------------------------      
     |                   =====================                   |     
     |                           x T B                           |     
     |                   =====================                   |     
     |                         S. Grimme                         |     
     |          Mulliken Center for Theoretical Chemistry        |     
     |                    University of Bonn                     |     
     |                 Version 6.0.1 (SAW181210)                 |     
      -----------------------------------------------------------      

   This program is distributed in the hope that it will be useful,
   but WITHOUT ANY WARRANTY; without even the implied warranty of
   MERCHANTABILITY or FITNESS FOR A PARTICULAR PURPOSE.
   
   FOR NON-COMMERCIAL, ACADEMIA USE ONLY.
   
   Cite this work as:
   S. Grimme, C. Bannwarth, P. Shushkov, J. Comput. Theory Chem., 2017,
   13, 1989-2009.
   C. Bannwarth, S. Ehlert and S. Grimme., ChemRxiv, 2018, preprint.
   http://doi.org/10.26434/chemrxiv.7246238.v1
   
   for sTDA-xTB:
   S. Grimme and C. Bannwarth, J. Chem. Phys., 2016, 145, 054103.
   
   in the mass-spec context:
   V. Asgeirsson, C. Bauer and S. Grimme, Chem. Sci., 2017, 8, 4879.
   
   if GBSA is used:
   P. Shushkov, F. März and S. Grimme, unpublished.
   
   for ANC optimizer:
   S. Grimme, unpublished.
   Rational Function algorithm used in ANCopt:
   F. Eckert, P. Pulay, H.-J. Werner, J. Comput. Chem., 1997, 18, 1473.
   
   with help from (in alphabetical order)
   C. Bannwarth, F. Bohle, G. Brandenburg, E. Caldeweyher, M. Checinski,
   S. Dohm, S. Ehlert, S. Ehrlich, F. März, H. Neugebauer, J. Pisarek,
   P. Pracht, P. Shushkov, and S. Spicher.
   
 * started run on 2019/09/16 at 11:32:54.497     
========================================================================
 # omp threads = 1
========================================================================
number of atoms            : 23
number of electrons        : 72
charge                     : 0
spin                       : .0
first test random number   : .7659

########################################################################
# WARNING! Please study the warnings concerning your input carefully
#  - XTBPATH is not set, using XTBHOME instead
#  - the use of '-opt' is discouraged, please use '--opt' next time
#  - the use of '-chrg' is discouraged, please use '--chrg' next time
#  - the use of '-uhf' is discouraged, please use '--uhf' next time
########################################################################

           ------------------------------------------------- 
          |                 G F N 2 - x T B                 |
          | Geometry, Frequencies, Noncovalent interactions |
          |            JCTC 2018 parametrisation            |
           ------------------------------------------------- 
      method parameters     
 k(s)        :  1.8500
 k(p)        :  2.2300
 k(d)        :  2.2300
 k(f)        :  2.0000
 kEN (H0ij)  : -2.0000
 D4 a1       :  0.5200
 D4 a2       :  5.0000
 D4 s6       :  1.0000
 D4 s8       :  2.7000
 D4 s9       :  5.0000
 alphaj      :  2.0000


            Z     q(EN)     CN     RAES       Cart. coordinates
     1  S   6.0    0.68    4.12    3.89    -1.74886     1.23153    -1.74780
     2  O   6.0   -0.29    1.19    1.80    -3.25342     1.92896    -4.02332
     3  O   6.0   -0.30    1.21    1.80    -3.46772     0.95416     0.46505
     4  O   6.0   -0.32    1.22    1.80    -0.41770    -1.20552    -2.21353
     5  O   6.0   -0.33    1.24    1.80     0.14340     3.24852    -1.21940
     6  O   6.0   -0.29    2.01    1.83     3.48397     1.97687     2.45304
     7  H   1.0    0.18    1.05    1.44     2.33734     2.34959     1.08887
     8  H   1.0    0.15    0.97    1.43     4.19979     3.58082     2.93214
     9  O   6.0   -0.28    2.03    1.83     2.77123    -2.75287     4.06440
    10  H   1.0    0.17    1.04    1.43     3.23240    -1.02932     3.70205
    11  H   1.0    0.16    1.01    1.43     3.14373    -3.68094     2.54303
    12  O   6.0   -0.29    2.00    1.83     2.20814    -5.05757    -0.52673
    13  H   1.0    0.18    1.06    1.44     1.39029    -3.62192    -1.29135
    14  H   1.0    0.15    0.97    1.43     3.13338    -5.85885    -1.87450
    15  O   6.0   -0.21    2.90    2.54    -1.47614     6.39892    -4.72901
    16  H   1.0    0.12    0.96    1.43    -2.57618     7.80466    -4.17798
    17  H   1.0    0.14    1.01    1.43    -0.18518     5.97575    -3.44667
    18  H   1.0    0.15    1.04    1.43    -2.46392     4.89985    -5.24726
    19  N   5.0   -0.14    3.94    2.72    -2.09090    -3.42853     2.64980
    20  H   1.0    0.12    1.10    1.44    -2.85171    -1.73228     2.07678
    21  H   1.0    0.08    0.99    1.43    -3.39186    -4.39101     3.72943
    22  H   1.0    0.10    1.00    1.43    -1.62977    -4.49294     1.08812
    23  H   1.0    0.10    1.05    1.44    -0.49029    -3.09790     3.70485

  Z AO/shell   Hii/eV     exponent
  1     Wed Apr 25 08:07:45 CEST 2018   EN: 2.200 GM2: 0.406  GM3: 0.0800  RAES: 1.40
     1s    -10.707211    1.230000
  7     Wed Apr 25 08:07:45 CEST 2018   EN: 3.040 GM2: 0.461  GM3:-0.0640  RAES: 1.90
     2s    -16.686243    2.339881
     2p    -12.523956    2.014332
  8     Wed Apr 25 08:07:45 CEST 2018   EN: 3.440 GM2: 0.452  GM3:-0.0517  RAES: 1.80
     2s    -20.229985    2.439742
     2p    -15.503117    2.137023
 16     Tue Apr 24 11:44:34 CEST 2018   EN: 2.580 GM2: 0.340  GM3:-0.0502  RAES: 3.10
     3s    -20.029654    1.981333
     3p    -11.377694    2.025643
     3d     -0.420282    1.702555
 no old-style atom pair restraining (fixing) potential

molecular fragmentation (1/2 indicates fragments):
11111222222222222222222
# atoms in fragment 1/2:     5    18
 fragment masses (1/2) :       96.06       91.11
CMA distance (Bohr)    :   4.007
constraining FC (au)   :  0.0500
           ------------------------------------------------- 
          |        Self-Consistent Charge Iterations        |
           ------------------------------------------------- 

 Ncao       : 59
 Nao        : 58
 Nshell     : 34
 Nel        : 72
 T(el)      :   300.0
 intcut     :    25.0
 scfconv/Eh :  0.100E-05
   qconv/e  :  0.100E-03
 intneglect :  0.100E-07
 broydamp   :      0.250
 iter      E             dE          RMSdq      gap      omega  full diag
   1    -45.4715568 -0.454716E+02  0.711E+00   10.39       0.0  T
   2    -45.5092882 -0.377314E-01  0.511E+00    9.93       1.0  T
   3    -45.5417303 -0.324422E-01  0.112E+00    6.89       1.0  T
   4    -45.5453255 -0.359518E-02  0.541E-01    6.89       1.0  T
   5    -45.5460627 -0.737195E-03  0.226E-01    6.76       1.0  T
   6    -45.5462664 -0.203683E-03  0.121E-01    6.82       1.0  T
   7    -45.5463451 -0.787199E-04  0.444E-02    6.89       1.0  T
   8    -45.5463521 -0.703151E-05  0.264E-02    6.89       1.0  T
   9    -45.5463559 -0.373448E-05  0.794E-03    6.89       2.6  T
  10    -45.5463561 -0.207106E-06  0.176E-03    6.88      11.8  T
  11    -45.5463561 -0.123518E-07  0.787E-04    6.88      26.5  T
  12    -45.5463561 -0.248415E-08  0.351E-04    6.88      59.4  T
speedup  0.99
cpu  time for SCC    0.01 s
wall time for SCC    0.01 s

   *** convergence criteria satisfied after 12 iterations ***

          eigenvalues
 #    :          24         25         26         27         28         29         30         31
 occ. :        2.000      2.000      2.000      2.000      2.000      2.000      2.000      2.000
 eps  :       -11.979    -11.887    -11.407    -11.250    -11.182    -10.652    -10.417     -9.844
 #    :          32         33         34         35         36         37         38         39
 occ. :        2.000      2.000      2.000      2.000      2.000      0.000      0.000      0.000
 eps  :        -9.793     -9.671     -9.491     -9.307     -9.270     -2.387     -0.828      0.528
 #    :          40         41         42         43         44         45         46         47
 occ. :        0.000      0.000      0.000      0.000      0.000      0.000      0.000      0.000
 eps  :         2.304      2.410      2.771      2.985      3.363      4.268      4.546      4.872


   #   Z            q   n(s)   n(p)   n(d)      C6AA      α(0)
   1  16 S      1.464  1.608  1.921  1.006    94.334    16.347
   2   8 O     -0.785  1.778  5.007  0.000    31.121     7.480
   3   8 O     -0.777  1.779  4.998  0.000    30.889     7.452
   4   8 O     -0.791  1.777  5.014  0.000    31.301     7.501
   5   8 O     -0.807  1.776  5.031  0.000    31.797     7.560
   6   8 O     -0.613  1.739  4.874  0.000    25.496     6.815
   7   1 H      0.329  0.671  0.000  0.000     0.641     1.257
   8   1 H      0.271  0.729  0.000  0.000     0.817     1.419
   9   8 O     -0.633  1.747  4.886  0.000    25.983     6.880
  10   1 H      0.328  0.672  0.000  0.000     0.644     1.260
  11   1 H      0.316  0.684  0.000  0.000     0.675     1.291
  12   8 O     -0.628  1.740  4.887  0.000    25.864     6.864
  13   1 H      0.340  0.660  0.000  0.000     0.612     1.229
  14   1 H      0.273  0.727  0.000  0.000     0.807     1.411
  15   8 O     -0.366  1.629  4.737  0.000    20.154     6.063
  16   1 H      0.382  0.618  0.000  0.000     0.519     1.132
  17   1 H      0.422  0.578  0.000  0.000     0.447     1.050
  18   1 H      0.427  0.573  0.000  0.000     0.439     1.041
  19   7 N     -0.282  1.247  4.035  0.000    27.251     7.753
  20   1 H      0.310  0.690  0.000  0.000     0.686     1.297
  21   1 H      0.233  0.767  0.000  0.000     0.953     1.529
  22   1 H      0.284  0.716  0.000  0.000     0.762     1.368
  23   1 H      0.303  0.697  0.000  0.000     0.704     1.315

 Mol. C6AA /au·bohr⁶  :       4526.751021
 Mol. C8AA /au·bohr⁸  :     100290.340198
 Mol. α(0) /au        :         97.312884

 
 Wiberg/Mayer (AO) data. WBOs > 0.1 written file <wbo>
 largest (>0.05) Wiberg bond orders for each atom
           total WBO             WBO to atom ...
     1  S   5.029    O    4 1.273    O    3 1.256    O    2 1.252    O    5 1.211
     2  O   1.678    S    1 1.252    H   18 0.100    O    5 0.096    O    3 0.090    O    4 0.088
     3  O   1.686    S    1 1.256    O    4 0.103    H   20 0.097    O    5 0.091    O    2 0.090
     4  O   1.648    S    1 1.273    O    3 0.103    O    5 0.092    O    2 0.088    H   13 0.059
     5  O   1.663    S    1 1.211    O    2 0.096    O    4 0.092    O    3 0.091    H   17 0.066    H    7 0.054
     6  O   1.836    H    8 0.918    H    7 0.833
     7  H   0.892    O    6 0.833    O    5 0.054
     8  H   0.927    O    6 0.918
     9  O   1.879    H   11 0.866    H   10 0.848    H   23 0.079
    10  H   0.893    O    9 0.848
    11  H   0.900    O    9 0.866
    12  O   1.831    H   14 0.918    H   13 0.817
    13  H   0.884    O   12 0.817    O    4 0.059
    14  H   0.925    O   12 0.918
    15  O   2.369    H   16 0.846    H   17 0.747    H   18 0.709
    16  H   0.854    O   15 0.846
    17  H   0.822    O   15 0.747    O    5 0.066
    18  H   0.818    O   15 0.709    O    2 0.100
    19  N   3.567    H   21 0.941    H   22 0.900    H   23 0.825    H   20 0.799
    20  H   0.904    N   19 0.799    O    3 0.097
    21  H   0.946    N   19 0.941
    22  H   0.919    N   19 0.900
    23  H   0.908    N   19 0.825    O    9 0.079
 MOs/occ written to file <molden.input>
 
molecular dipole:
                 x           y           z       tot (Debye)
 q only:       -0.359       1.436       0.083
   full:       -0.422       1.749      -0.331       4.650
molecular quadrupole (traceless):
                xx          xy          yy          xz          yz          zz
 q only:      -22.642       1.899      32.660      -7.952     -27.137     -10.018
  q+dip:      -20.584       2.241      34.330      -9.425     -21.638     -13.746
   full:      -20.838       2.214      34.576      -9.314     -21.506     -13.738

SCC energy    :     -45.5463561
rep           :       0.2623789
ES            :       0.3523539
AES           :      -0.0739901
AXC           :      -0.0098090
disp          :      -0.0157363
XB            :       0.0000000
fix           :       0.0000000
total E       :     -45.2838581
atomizationE  :       4.3669206     2740.28
(atE without considering molecular charge,
 total energy contains solvation terms)
H-L gap (eV)  :          6.8829
           ------------------------------------------------- 
          |                 ===============                 |
          |                   A N C O P T                   |
          |                 ===============                 |
          |          Approximate Normal Coordinate          |
          |           Rational Function Optimizer           |
           ------------------------------------------------- 
dumping coords to <xtbopt.coord> and <xtbopt.log>
 optlevel               2
 Maxcycle             460
 Maxmicro              25
 Econv         1.000000000000000E-007
 Gconv         2.000000000000000E-004
 Maxdispl       1.00000000000000     
 Hlow          5.000000000000000E-003
 S6             20.0000000000000     
 Nvar               63

generating ANC from model Hessian ...
 Shifting diagonal of input Hessian by   5.068555757976808E-003
 Lowest  eigenvalues of input Hessian
    0.005000   -0.000000   -0.000000   -0.000000   -0.000000   -0.000000
    0.000000    0.005196    0.005652    0.006046    0.006413    0.006612
    0.007156    0.007598    0.008448    0.008669    0.009528    0.010085
 Highest eigenvalues
    1.423225    1.546523    1.547156    3.073844    3.079605    3.089076
 
cpu  time for ANC gen    0.01 s
wall time for ANC gen    0.01 s
................................................................................
.............................. CYCLE    1 ......................................
................................................................................
   1    -45.5463561 -0.455464E+02  0.655E-05    6.88       0.0  T
   2    -45.5463561 -0.100400E-10  0.512E-05    6.88     407.4  T
   3    -45.5463561 -0.638067E-11  0.270E-05    6.88     772.4  T
speedup  0.83
cpu  time for SCC    0.00 s
wall time for SCC    0.00 s
speedup  0.98
cpu  time for grad    0.01 s
wall time for grad    0.01 s
 E :    -45.28385807  G :  0.131294    pred/act E change:  0.000D+00  0.126D-07
Maxdispl :   0.2621   ||displ|| :   0.5578   Lambda : -0.333D-01
Largest |displ|/coords:  0.2621 (  22)  0.2520 (  23)  0.1744 (  19)
................................................................................
.............................. CYCLE    2 ......................................
................................................................................
   1    -45.5582096 -0.455582E+02  0.409E-01    7.69       0.0  T
   2    -45.5586115 -0.401942E-03  0.291E-01    7.84       1.0  T
   3    -45.5588003 -0.188733E-03  0.993E-02    8.10       1.0  T
   4    -45.5588192 -0.189722E-04  0.282E-02    8.13       1.0  T
   5    -45.5588205 -0.120313E-05  0.100E-02    8.12       2.1  T
   6    -45.5588206 -0.177438E-06  0.509E-03    8.12       4.1  T
   7    -45.5588207 -0.834513E-07  0.235E-03    8.12       8.9  T
speedup  0.94
cpu  time for SCC    0.00 s
wall time for SCC    0.01 s
speedup  0.94
cpu  time for grad    0.01 s
wall time for grad    0.01 s
 E :    -45.31425309  G :  0.096730    pred/act E change:  0.000D+00 -0.304D-01
Maxdispl :   0.3379   ||displ|| :   0.6023   Lambda : -0.284D-01
Largest |displ|/coords:  0.3379 (  23)  0.2657 (  22)  0.1980 (  18)
................................................................................
.............................. CYCLE    3 ......................................
................................................................................
   1    -45.5706347 -0.455706E+02  0.488E-01    8.54       0.0  T
   2    -45.5716673 -0.103260E-02  0.338E-01    8.64       1.0  T
   3    -45.5721513 -0.484040E-03  0.136E-01    8.78       1.0  T
   4    -45.5721772 -0.258267E-04  0.360E-02    8.80       1.0  T
   5    -45.5721793 -0.208350E-05  0.161E-02    8.80       1.3  T
   6    -45.5721797 -0.450065E-06  0.767E-03    8.80       2.7  T
   7    -45.5721799 -0.177916E-06  0.323E-03    8.80       6.4  T
   8    -45.5721799 -0.464605E-07  0.101E-03    8.80      20.6  T
speedup  1.00
cpu  time for SCC    0.01 s
wall time for SCC    0.01 s
speedup  0.96
cpu  time for grad    0.01 s
wall time for grad    0.01 s
 E :    -45.33804181  G :  0.074455    pred/act E change: -0.218D-01 -0.238D-01
Maxdispl :   0.2790   ||displ|| :   0.5056   Lambda : -0.161D-01
Largest |displ|/coords:  0.2790 (  23)  0.2078 (  18)  0.1620 (  22)
................................................................................
.............................. CYCLE    4 ......................................
................................................................................
   1    -45.5777792 -0.455778E+02  0.458E-01    8.94       0.0  T
   2    -45.5790418 -0.126259E-02  0.310E-01    8.98       1.0  T
   3    -45.5796120 -0.570226E-03  0.140E-01    9.04       1.0  T
   4    -45.5796342 -0.222157E-04  0.399E-02    9.06       1.0  T
   5    -45.5796368 -0.256863E-05  0.167E-02    9.06       1.3  T
   6    -45.5796372 -0.469087E-06  0.802E-03    9.06       2.6  T
   7    -45.5796374 -0.175841E-06  0.303E-03    9.06       6.9  T
   8    -45.5796375 -0.375341E-07  0.103E-03    9.06      20.3  T
speedup  1.00
cpu  time for SCC    0.01 s
wall time for SCC    0.01 s
speedup  1.04
cpu  time for grad    0.01 s
wall time for grad    0.01 s
 E :    -45.34916338  G :  0.055316    pred/act E change: -0.193D-01 -0.111D-01
Maxdispl :   0.1352   ||displ|| :   0.3452   Lambda : -0.604D-02
Largest |displ|/coords:  0.1352 (   4)  0.1348 (   3)  0.1258 (   6)
................................................................................
.............................. CYCLE    5 ......................................
................................................................................
   1    -45.5858595 -0.455859E+02  0.216E-01    9.19       0.0  T
   2    -45.5860349 -0.175412E-03  0.155E-01    9.20       1.0  T
   3    -45.5861093 -0.744002E-04  0.727E-02    9.22       1.0  T
   4    -45.5861145 -0.521225E-05  0.213E-02    9.23       1.0  T
   5    -45.5861155 -0.102515E-05  0.660E-03    9.23       3.2  T
   6    -45.5861156 -0.685477E-07  0.326E-03    9.23       6.4  T
   7    -45.5861156 -0.171082E-07  0.121E-03    9.23      17.2  T
speedup  1.13
cpu  time for SCC    0.01 s
wall time for SCC    0.01 s
speedup  1.02
cpu  time for grad    0.01 s
wall time for grad    0.01 s
 E :    -45.35349607  G :  0.042551    pred/act E change: -0.101D-01 -0.433D-02
Maxdispl :   0.1954   ||displ|| :   0.5199   Lambda : -0.722D-02
Largest |displ|/coords:  0.1954 (   3)  0.1494 (  23)  0.1494 (  10)
................................................................................
.............................. CYCLE    6 ......................................
................................................................................
   1    -45.5969110 -0.455969E+02  0.403E-01    9.50       0.0  T
   2    -45.5976449 -0.733979E-03  0.298E-01    9.51       1.0  T
   3    -45.5979615 -0.316535E-03  0.153E-01    9.52       1.0  T
   4    -45.5979843 -0.228116E-04  0.502E-02    9.53       1.0  T
   5    -45.5979883 -0.404880E-05  0.139E-02    9.53       1.5  T
   6    -45.5979886 -0.214764E-06  0.680E-03    9.53       3.1  T
   7    -45.5979886 -0.759716E-07  0.217E-03    9.53       9.6  T
   8    -45.5979886 -0.137398E-07  0.731E-04    9.53      28.5  T
speedup  1.00
cpu  time for SCC    0.01 s
wall time for SCC    0.01 s
speedup  0.96
cpu  time for grad    0.01 s
wall time for grad    0.01 s
 E :    -45.35784903  G :  0.050392    pred/act E change: -0.338D-02 -0.435D-02
Maxdispl :   0.1797   ||displ|| :   0.3971   Lambda : -0.478D-02
Largest |displ|/coords:  0.1797 (   5)  0.1793 (   6)  0.1228 (   9)
................................................................................
.............................. CYCLE    7 ......................................
................................................................................
   1    -45.6060232 -0.456060E+02  0.245E-01    9.54       0.0  T
   2    -45.6060749 -0.517609E-04  0.183E-01    9.53       1.0  T
   3    -45.6061140 -0.390140E-04  0.577E-02    9.52       1.0  T
   4    -45.6061203 -0.637486E-05  0.222E-02    9.52       1.0  T
   5    -45.6061210 -0.688404E-06  0.547E-03    9.52       3.8  T
   6    -45.6061211 -0.437293E-07  0.330E-03    9.52       6.3  T
speedup  1.09
cpu  time for SCC    0.00 s
wall time for SCC    0.00 s
speedup  0.99
cpu  time for grad    0.01 s
wall time for grad    0.01 s
 E :    -45.36146446  G :  0.054536    pred/act E change: -0.459D-02 -0.362D-02
Maxdispl :   0.1686   ||displ|| :   0.3883   Lambda : -0.501D-02
Largest |displ|/coords:  0.1686 (   3)  0.1606 (   6)  0.1100 (   4)
................................................................................
.............................. CYCLE    8 ......................................
................................................................................
   1    -45.6088009 -0.456088E+02  0.255E-01    9.47       0.0  T
   2    -45.6088415 -0.406737E-04  0.190E-01    9.46       1.0  T
   3    -45.6088634 -0.218174E-04  0.447E-02    9.45       1.0  T
   4    -45.6088683 -0.498020E-05  0.179E-02    9.46       1.2  T
   5    -45.6088686 -0.308321E-06  0.271E-03    9.46       7.7  T
   6    -45.6088687 -0.118995E-07  0.187E-03    9.46      11.2  T
speedup  0.89
cpu  time for SCC    0.00 s
wall time for SCC    0.00 s
speedup  1.00
cpu  time for grad    0.01 s
wall time for grad    0.01 s
 E :    -45.36457256  G :  0.053905    pred/act E change: -0.277D-02 -0.311D-02
Maxdispl :   0.1459   ||displ|| :   0.3603   Lambda : -0.720D-02
Largest |displ|/coords:  0.1459 (   6)  0.1253 (   5)  0.1015 (  23)
................................................................................
.............................. CYCLE    9 ......................................
................................................................................
   1    -45.6307599 -0.456308E+02  0.296E-01    9.54       0.0  T
   2    -45.6309101 -0.150206E-03  0.220E-01    9.55       1.0  T
   3    -45.6310313 -0.121174E-03  0.866E-02    9.56       1.0  T
   4    -45.6310473 -0.159842E-04  0.256E-02    9.56       1.0  T
   5    -45.6310483 -0.103136E-05  0.103E-02    9.56       2.0  T
   6    -45.6310484 -0.550596E-07  0.395E-03    9.56       5.3  T
   7    -45.6310484 -0.385216E-07  0.119E-03    9.56      17.5  T
speedup  0.93
cpu  time for SCC    0.00 s
wall time for SCC    0.01 s
speedup  1.00
cpu  time for grad    0.01 s
wall time for grad    0.01 s
 E :    -45.36367057  G :  0.095455    pred/act E change: -0.288D-02  0.902D-03
Maxdispl :   0.1528   ||displ|| :   0.3690   Lambda : -0.247D-01
Largest |displ|/coords:  0.1528 (  23)  0.1318 (  24)  0.1100 (  28)
................................................................................
.............................. CYCLE   10 ......................................
................................................................................
   1    -45.6066900 -0.456067E+02  0.443E-01    9.36       0.0  T
   2    -45.6071096 -0.419586E-03  0.316E-01    9.36       1.0  T
   3    -45.6073722 -0.262602E-03  0.120E-01    9.36       1.0  T
   4    -45.6074035 -0.313343E-04  0.385E-02    9.35       1.0  T
   5    -45.6074062 -0.268315E-05  0.132E-02    9.35       1.6  T
   6    -45.6074066 -0.373772E-06  0.698E-03    9.35       3.0  T
   7    -45.6074066 -0.634366E-07  0.202E-03    9.35      10.3  T
   8    -45.6074066 -0.879702E-08  0.510E-04    9.35      40.9  T
speedup  1.00
cpu  time for SCC    0.01 s
wall time for SCC    0.01 s
speedup  1.04
cpu  time for grad    0.01 s
wall time for grad    0.01 s
 E :    -45.36291598  G :  0.061513    pred/act E change: -0.407D-02  0.755D-03
Maxdispl :   0.0777   ||displ|| :   0.2478   Lambda : -0.969D-02
Largest |displ|/coords:  0.0777 (  23)  0.0761 (  16)  0.0717 (  24)
................................................................................
.............................. CYCLE   11 ......................................
................................................................................
   1    -45.6236591 -0.456237E+02  0.287E-01    9.54       0.0  T
   2    -45.6238230 -0.163862E-03  0.211E-01    9.54       1.0  T
   3    -45.6239305 -0.107508E-03  0.812E-02    9.55       1.0  T
   4    -45.6239441 -0.135497E-04  0.230E-02    9.56       1.0  T
   5    -45.6239451 -0.104298E-05  0.970E-03    9.56       2.1  T
   6    -45.6239452 -0.679779E-07  0.434E-03    9.56       4.8  T
   7    -45.6239452 -0.297555E-07  0.120E-03    9.56      17.4  T
speedup  1.15
cpu  time for SCC    0.01 s
wall time for SCC    0.01 s
speedup  1.03
cpu  time for grad    0.01 s
wall time for grad    0.01 s
 E :    -45.36889522  G :  0.020732    pred/act E change: -0.140D-01 -0.598D-02
Maxdispl :   0.1457   ||displ|| :   0.3180   Lambda : -0.146D-02
Largest |displ|/coords:  0.1457 (   3)  0.1402 (   6)  0.1031 (   4)
................................................................................
.............................. CYCLE   12 ......................................
................................................................................
   1    -45.6296825 -0.456297E+02  0.248E-01    9.45       0.0  T
   2    -45.6297123 -0.297369E-04  0.185E-01    9.45       1.0  T
   3    -45.6297317 -0.194129E-04  0.418E-02    9.46       1.0  T
   4    -45.6297357 -0.403331E-05  0.117E-02    9.46       1.8  T
   5    -45.6297360 -0.262341E-06  0.441E-03    9.46       4.7  T
   6    -45.6297360 -0.154240E-07  0.235E-03    9.46       8.9  T
speedup  0.89
cpu  time for SCC    0.00 s
wall time for SCC    0.00 s
speedup  1.00
cpu  time for grad    0.01 s
wall time for grad    0.01 s
 E :    -45.36948250  G :  0.024363    pred/act E change: -0.514D-02 -0.587D-03
Maxdispl :   0.1496   ||displ|| :   0.2807   Lambda : -0.120D-02
Largest |displ|/coords:  0.1496 (   2)  0.1426 (   4)  0.0897 (   3)
................................................................................
.............................. CYCLE   13 ......................................
................................................................................
   1    -45.6269124 -0.456269E+02  0.206E-01    9.38       0.0  T
   2    -45.6269256 -0.132299E-04  0.155E-01    9.38       1.0  T
   3    -45.6269328 -0.721644E-05  0.261E-02    9.38       1.0  T
   4    -45.6269349 -0.201481E-05  0.812E-03    9.38       2.6  T
   5    -45.6269350 -0.101458E-06  0.198E-03    9.38      10.5  T
   6    -45.6269350 -0.345276E-08  0.118E-03    9.38      17.6  T
speedup  1.11
cpu  time for SCC    0.00 s
wall time for SCC    0.00 s
speedup  1.00
cpu  time for grad    0.01 s
wall time for grad    0.01 s
 E :    -45.37018361  G :  0.012862    pred/act E change: -0.803D-03 -0.701D-03
Maxdispl :   0.1638   ||displ|| :   0.2822   Lambda : -0.755D-03
Largest |displ|/coords:  0.1638 (   2)  0.1346 (   8)  0.1023 (   6)
................................................................................
.............................. CYCLE   14 ......................................
................................................................................
   1    -45.6220994 -0.456221E+02  0.287E-01    9.42       0.0  T
   2    -45.6221248 -0.254302E-04  0.215E-01    9.42       1.0  T
   3    -45.6221430 -0.181684E-04  0.352E-02    9.42       1.0  T
   4    -45.6221461 -0.313921E-05  0.911E-03    9.43       2.3  T
   5    -45.6221462 -0.127684E-06  0.310E-03    9.43       6.7  T
   6    -45.6221462 -0.801385E-08  0.177E-03    9.43      11.8  T
   7    -45.6221463 -0.614659E-08  0.452E-04    9.43      46.1  T
speedup  0.96
cpu  time for SCC    0.00 s
wall time for SCC    0.01 s
speedup  1.03
cpu  time for grad    0.01 s
wall time for grad    0.01 s
 E :    -45.36992221  G :  0.032132    pred/act E change: -0.647D-03  0.261D-03
Maxdispl :   0.1193   ||displ|| :   0.2037   Lambda : -0.181D-02
Largest |displ|/coords:  0.1193 (   6)  0.0979 (   4)  0.0792 (   5)
................................................................................
.............................. CYCLE   15 ......................................
................................................................................
   1    -45.6308483 -0.456308E+02  0.260E-01    9.51       0.0  T
   2    -45.6308849 -0.365774E-04  0.192E-01    9.50       1.0  T
   3    -45.6309097 -0.248228E-04  0.426E-02    9.50       1.0  T
   4    -45.6309136 -0.384542E-05  0.105E-02    9.50       2.0  T
   5    -45.6309138 -0.222756E-06  0.376E-03    9.50       5.5  T
   6    -45.6309138 -0.781691E-08  0.214E-03    9.50       9.7  T
speedup  1.11
cpu  time for SCC    0.00 s
wall time for SCC    0.00 s
speedup  1.00
cpu  time for grad    0.01 s
wall time for grad    0.01 s
 E :    -45.37039208  G :  0.019573    pred/act E change: -0.407D-03 -0.470D-03
Maxdispl :   0.1594   ||displ|| :   0.2231   Lambda : -0.873D-03
Largest |displ|/coords:  0.1594 (   8)  0.0806 (   6)  0.0696 (   9)
................................................................................
.............................. CYCLE   16 ......................................
................................................................................
   1    -45.6307983 -0.456308E+02  0.213E-01    9.42       0.0  T
   2    -45.6308094 -0.111000E-04  0.159E-01    9.43       1.0  T
   3    -45.6308178 -0.839189E-05  0.249E-02    9.43       1.0  T
   4    -45.6308192 -0.138836E-05  0.805E-03    9.43       2.6  T
   5    -45.6308193 -0.949936E-07  0.251E-03    9.43       8.3  T
   6    -45.6308193 -0.538797E-08  0.143E-03    9.43      14.6  T
speedup  0.89
cpu  time for SCC    0.00 s
wall time for SCC    0.00 s
speedup  1.00
cpu  time for grad    0.01 s
wall time for grad    0.01 s
 E :    -45.37053315  G :  0.013302    pred/act E change: -0.943D-03 -0.141D-03
Maxdispl :   0.0699   ||displ|| :   0.1167   Lambda : -0.451D-03
Largest |displ|/coords:  0.0699 (   8)  0.0407 (   3)  0.0351 (   9)
................................................................................
.............................. CYCLE   17 ......................................
................................................................................
   1    -45.6294688 -0.456295E+02  0.121E-01    9.41       0.0  T
   2    -45.6294728 -0.398376E-05  0.920E-02    9.41       1.0  T
   3    -45.6294759 -0.308694E-05  0.124E-02    9.41       1.7  T
   4    -45.6294764 -0.547080E-06  0.427E-03    9.41       4.9  T
   5    -45.6294764 -0.262470E-07  0.129E-03    9.41      16.2  T
   6    -45.6294764 -0.119402E-08  0.710E-04    9.41      29.4  T
speedup  0.89
cpu  time for SCC    0.00 s
wall time for SCC    0.00 s
speedup  1.00
cpu  time for grad    0.01 s
wall time for grad    0.01 s
 E :    -45.37075720  G :  0.005531    pred/act E change: -0.458D-03 -0.224D-03
Maxdispl :   0.0931   ||displ|| :   0.1462   Lambda : -0.187D-03
Largest |displ|/coords:  0.0931 (   2)  0.0527 (   8)  0.0463 (  16)
................................................................................
.............................. CYCLE   18 ......................................
................................................................................
   1    -45.6284182 -0.456284E+02  0.110E-01    9.44       0.0  T
   2    -45.6284208 -0.264373E-05  0.824E-02    9.44       1.0  T
   3    -45.6284233 -0.247559E-05  0.134E-02    9.44       1.6  T
   4    -45.6284236 -0.263190E-06  0.400E-03    9.44       5.2  T
   5    -45.6284236 -0.214956E-07  0.128E-03    9.44      16.3  T
   6    -45.6284236 -0.169046E-08  0.792E-04    9.44      26.3  T
speedup  0.91
cpu  time for SCC    0.00 s
wall time for SCC    0.00 s
speedup  1.00
cpu  time for grad    0.01 s
wall time for grad    0.01 s
 E :    -45.37080973  G :  0.008997    pred/act E change: -0.228D-03 -0.525D-04
Maxdispl :   0.0582   ||displ|| :   0.0789   Lambda : -0.120D-03
Largest |displ|/coords:  0.0582 (   2)  0.0202 (   6)  0.0183 (   8)
................................................................................
.............................. CYCLE   19 ......................................
................................................................................
   1    -45.6295843 -0.456296E+02  0.500E-02    9.44       0.0  T
   2    -45.6295851 -0.746388E-06  0.372E-02    9.44       1.0  T
   3    -45.6295854 -0.338902E-06  0.566E-03    9.44       3.7  T
   4    -45.6295855 -0.114206E-06  0.204E-03    9.44      10.2  T
   5    -45.6295855 -0.854492E-08  0.493E-04    9.44      42.3  T
speedup  1.08
cpu  time for SCC    0.00 s
wall time for SCC    0.00 s
speedup  0.98
cpu  time for grad    0.01 s
wall time for grad    0.01 s
 E :    -45.37089589  G :  0.005610    pred/act E change: -0.954D-04 -0.862D-04
Maxdispl :   0.1410   ||displ|| :   0.1940   Lambda : -0.149D-03
Largest |displ|/coords:  0.1410 (   2)  0.0536 (   1)  0.0529 (   3)
................................................................................
.............................. CYCLE   20 ......................................
................................................................................
   1    -45.6296426 -0.456296E+02  0.124E-01    9.41       0.0  T
   2    -45.6296447 -0.207684E-05  0.932E-02    9.41       1.0  T
   3    -45.6296463 -0.156109E-05  0.952E-03    9.41       2.2  T
   4    -45.6296465 -0.284427E-06  0.371E-03    9.41       5.6  T
   5    -45.6296466 -0.171910E-07  0.108E-03    9.41      19.3  T
   6    -45.6296466 -0.156209E-08  0.687E-04    9.41      30.4  T
speedup  0.89
cpu  time for SCC    0.00 s
wall time for SCC    0.00 s
speedup  0.99
cpu  time for grad    0.01 s
wall time for grad    0.01 s
 E :    -45.37098604  G :  0.004707    pred/act E change: -0.605D-04 -0.901D-04
Maxdispl :   0.1614   ||displ|| :   0.2120   Lambda : -0.110D-03
Largest |displ|/coords:  0.1614 (   2)  0.0713 (   1)  0.0555 (   9)
................................................................................
.............................. CYCLE   21 ......................................
................................................................................
   1    -45.6301997 -0.456302E+02  0.113E-01    9.43       0.0  T
   2    -45.6302023 -0.257232E-05  0.847E-02    9.43       1.0  T
   3    -45.6302040 -0.170711E-05  0.105E-02    9.42       2.0  T
   4    -45.6302044 -0.394608E-06  0.393E-03    9.42       5.3  T
   5    -45.6302044 -0.236772E-07  0.121E-03    9.42      17.2  T
   6    -45.6302044 -0.163134E-08  0.727E-04    9.42      28.7  T
speedup  0.89
cpu  time for SCC    0.00 s
wall time for SCC    0.00 s
speedup  1.00
cpu  time for grad    0.01 s
wall time for grad    0.01 s
 E :    -45.37105881  G :  0.005667    pred/act E change: -0.775D-04 -0.728D-04
Maxdispl :   0.2127   ||displ|| :   0.2644   Lambda : -0.116D-03
Largest |displ|/coords:  0.2127 (   2)  0.0832 (   1)  0.0646 (   3)
................................................................................
.............................. CYCLE   22 ......................................
................................................................................
   1    -45.6298530 -0.456299E+02  0.142E-01    9.45       0.0  T
   2    -45.6298554 -0.239855E-05  0.106E-01    9.44       1.0  T
   3    -45.6298570 -0.164385E-05  0.107E-02    9.44       1.9  T
   4    -45.6298574 -0.380979E-06  0.385E-03    9.44       5.4  T
   5    -45.6298574 -0.150649E-07  0.114E-03    9.44      18.3  T
   6    -45.6298574 -0.133168E-08  0.650E-04    9.44      32.1  T
speedup  1.09
cpu  time for SCC    0.00 s
wall time for SCC    0.00 s
speedup  1.07
cpu  time for grad    0.01 s
wall time for grad    0.01 s
 E :    -45.37113430  G :  0.005397    pred/act E change: -0.577D-04 -0.755D-04
Maxdispl :   0.1572   ||displ|| :   0.2228   Lambda : -0.108D-03
Largest |displ|/coords:  0.1572 (   2)  0.0986 (   1)  0.0803 (   3)
................................................................................
.............................. CYCLE   23 ......................................
................................................................................
   1    -45.6299342 -0.456299E+02  0.126E-01    9.45       0.0  T
   2    -45.6299365 -0.225521E-05  0.939E-02    9.45       1.0  T
   3    -45.6299386 -0.209266E-05  0.116E-02    9.44       1.8  T
   4    -45.6299388 -0.223917E-06  0.346E-03    9.45       6.0  T
   5    -45.6299388 -0.170833E-07  0.120E-03    9.45      17.4  T
   6    -45.6299388 -0.173764E-08  0.759E-04    9.45      27.5  T
speedup  1.09
cpu  time for SCC    0.00 s
wall time for SCC    0.00 s
speedup  0.99
cpu  time for grad    0.01 s
wall time for grad    0.01 s
 E :    -45.37120254  G :  0.006466    pred/act E change: -0.619D-04 -0.682D-04
Maxdispl :   0.1517   ||displ|| :   0.2106   Lambda : -0.112D-03
Largest |displ|/coords:  0.1517 (   2)  0.0835 (   3)  0.0772 (   1)
................................................................................
.............................. CYCLE   24 ......................................
................................................................................
   1    -45.6298805 -0.456299E+02  0.124E-01    9.45       0.0  T
   2    -45.6298822 -0.171646E-05  0.920E-02    9.45       1.0  T
   3    -45.6298837 -0.147538E-05  0.116E-02    9.44       1.8  T
   4    -45.6298839 -0.155051E-06  0.244E-03    9.45       8.5  T
   5    -45.6298839 -0.126726E-07  0.972E-04    9.45      21.5  T
speedup  1.03
cpu  time for SCC    0.00 s
wall time for SCC    0.00 s
speedup  0.96
cpu  time for grad    0.01 s
wall time for grad    0.01 s
 E :    -45.37128296  G :  0.006424    pred/act E change: -0.567D-04 -0.804D-04
Maxdispl :   0.1670   ||displ|| :   0.2668   Lambda : -0.154D-03
Largest |displ|/coords:  0.1670 (   2)  0.1219 (   3)  0.1122 (   1)
................................................................................
.............................. CYCLE   25 ......................................
................................................................................
   1    -45.6294128 -0.456294E+02  0.160E-01    9.44       0.0  T
   2    -45.6294157 -0.290365E-05  0.119E-01    9.43       1.0  T
   3    -45.6294184 -0.263823E-05  0.150E-02    9.43       1.4  T
   4    -45.6294186 -0.248553E-06  0.406E-03    9.43       5.1  T
   5    -45.6294186 -0.213676E-07  0.126E-03    9.43      16.5  T
   6    -45.6294186 -0.186002E-08  0.802E-04    9.43      26.0  T
speedup  1.09
cpu  time for SCC    0.00 s
wall time for SCC    0.00 s
speedup  0.99
cpu  time for grad    0.01 s
wall time for grad    0.01 s
 E :    -45.37137615  G :  0.007602    pred/act E change: -0.587D-04 -0.932D-04
Maxdispl :   0.1349   ||displ|| :   0.2517   Lambda : -0.216D-03
Largest |displ|/coords:  0.1349 (   3)  0.0880 (   2)  0.0833 (   8)

generating ANC from model Hessian ...
 Shifting diagonal of input Hessian by   4.824788199415678E-003
 Lowest  eigenvalues of input Hessian
   -0.000000   -0.000000   -0.000000   -0.000000    0.000000    0.000000
    0.005000    0.005105    0.005421    0.006011    0.006613    0.007285
    0.007739    0.008755    0.009132    0.010015    0.011391    0.013218
 Highest eigenvalues
    1.406673    1.423248    1.471988    2.704232    3.455853    3.485461
 
cpu  time for ANC gen    0.01 s
wall time for ANC gen    0.01 s
................................................................................
.............................. CYCLE   26 ......................................
................................................................................
   1    -45.6319298 -0.456319E+02  0.159E-01    9.42       0.0  T
   2    -45.6319340 -0.420988E-05  0.118E-01    9.42       1.0  T
   3    -45.6319371 -0.317066E-05  0.181E-02    9.42       1.2  T
   4    -45.6319376 -0.457348E-06  0.585E-03    9.42       3.6  T
   5    -45.6319376 -0.352389E-07  0.144E-03    9.42      14.5  T
   6    -45.6319376 -0.171747E-08  0.929E-04    9.42      22.4  T
   7    -45.6319376 -0.115286E-08  0.221E-04    9.42      94.4  T
speedup  1.13
cpu  time for SCC    0.01 s
wall time for SCC    0.01 s
speedup  1.07
cpu  time for grad    0.01 s
wall time for grad    0.01 s
 E :    -45.37144611  G :  0.009651    pred/act E change:  0.000D+00 -0.700D-04
Maxdispl :   0.0826   ||displ|| :   0.1608   Lambda : -0.336D-03
Largest |displ|/coords:  0.0826 (   2)  0.0728 (   7)  0.0627 (   1)
................................................................................
.............................. CYCLE   27 ......................................
................................................................................
   1    -45.6305898 -0.456306E+02  0.141E-01    9.44       0.0  T
   2    -45.6305927 -0.288107E-05  0.106E-01    9.44       1.0  T
   3    -45.6305954 -0.270508E-05  0.124E-02    9.44       1.7  T
   4    -45.6305957 -0.299196E-06  0.450E-03    9.44       4.6  T
   5    -45.6305957 -0.178950E-07  0.119E-03    9.44      17.5  T
   6    -45.6305957 -0.110956E-08  0.752E-04    9.44      27.7  T
speedup  1.09
cpu  time for SCC    0.00 s
wall time for SCC    0.00 s
speedup  0.99
cpu  time for grad    0.01 s
wall time for grad    0.01 s
 E :    -45.37169829  G :  0.005922    pred/act E change:  0.000D+00 -0.252D-03
Maxdispl :   0.1793   ||displ|| :   0.3489   Lambda : -0.500D-03
Largest |displ|/coords:  0.1793 (   2)  0.1593 (   1)  0.1172 (   4)
................................................................................
.............................. CYCLE   28 ......................................
................................................................................
   1    -45.6261495 -0.456261E+02  0.302E-01    9.45       0.0  T
   2    -45.6261611 -0.116359E-04  0.227E-01    9.46       1.0  T
   3    -45.6261734 -0.122073E-04  0.271E-02    9.46       1.0  T
   4    -45.6261742 -0.871664E-06  0.643E-03    9.46       3.2  T
   5    -45.6261743 -0.454201E-07  0.264E-03    9.46       7.9  T
   6    -45.6261743 -0.803834E-08  0.143E-03    9.46      14.6  T
speedup  1.11
cpu  time for SCC    0.00 s
wall time for SCC    0.00 s
speedup  1.00
cpu  time for grad    0.01 s
wall time for grad    0.01 s
 E :    -45.37189500  G :  0.015795    pred/act E change: -0.172D-03 -0.197D-03
Maxdispl :   0.0640   ||displ|| :   0.1224   Lambda : -0.306D-03
Largest |displ|/coords:  0.0640 (   4)  0.0395 (   2)  0.0363 (   3)
................................................................................
.............................. CYCLE   29 ......................................
................................................................................
   1    -45.6278836 -0.456279E+02  0.122E-01    9.46       0.0  T
   2    -45.6278869 -0.327925E-05  0.926E-02    9.46       1.0  T
   3    -45.6278900 -0.305655E-05  0.119E-02    9.46       1.8  T
   4    -45.6278903 -0.354427E-06  0.251E-03    9.46       8.3  T
   5    -45.6278903 -0.728266E-08  0.114E-03    9.46      18.3  T
speedup  1.05
cpu  time for SCC    0.00 s
wall time for SCC    0.00 s
speedup  0.97
cpu  time for grad    0.01 s
wall time for grad    0.01 s
 E :    -45.37206527  G :  0.006601    pred/act E change: -0.280D-03 -0.170D-03
Maxdispl :   0.1023   ||displ|| :   0.2022   Lambda : -0.225D-03
Largest |displ|/coords:  0.1023 (   1)  0.0945 (   2)  0.0834 (   4)
................................................................................
.............................. CYCLE   30 ......................................
................................................................................
   1    -45.6289032 -0.456289E+02  0.125E-01    9.45       0.0  T
   2    -45.6289056 -0.240553E-05  0.936E-02    9.46       1.0  T
   3    -45.6289081 -0.252389E-05  0.129E-02    9.46       1.6  T
   4    -45.6289083 -0.172252E-06  0.346E-03    9.46       6.0  T
   5    -45.6289083 -0.137639E-07  0.909E-04    9.46      22.9  T
   6    -45.6289083 -0.677538E-09  0.569E-04    9.46      36.6  T
speedup  0.89
cpu  time for SCC    0.00 s
wall time for SCC    0.00 s
speedup  1.00
cpu  time for grad    0.01 s
wall time for grad    0.01 s
 E :    -45.37222249  G :  0.005046    pred/act E change: -0.155D-03 -0.157D-03
Maxdispl :   0.2537   ||displ|| :   0.4558   Lambda : -0.320D-03
Largest |displ|/coords:  0.2537 (   2)  0.2311 (   1)  0.1916 (   4)
................................................................................
.............................. CYCLE   31 ......................................
................................................................................
   1    -45.6272796 -0.456273E+02  0.275E-01    9.39       0.0  T
   2    -45.6272882 -0.862365E-05  0.206E-01    9.39       1.0  T
   3    -45.6272984 -0.101850E-04  0.229E-02    9.39       1.0  T
   4    -45.6272989 -0.469021E-06  0.588E-03    9.39       3.5  T
   5    -45.6272989 -0.455220E-07  0.221E-03    9.39       9.4  T
   6    -45.6272989 -0.551499E-08  0.126E-03    9.39      16.6  T
speedup  1.09
cpu  time for SCC    0.01 s
wall time for SCC    0.00 s
speedup  0.99
cpu  time for grad    0.01 s
wall time for grad    0.01 s
 E :    -45.37245853  G :  0.008382    pred/act E change: -0.117D-03 -0.236D-03
Maxdispl :   0.2555   ||displ|| :   0.4558   Lambda : -0.298D-03
Largest |displ|/coords:  0.2555 (   2)  0.2354 (   1)  0.2069 (   4)
................................................................................
.............................. CYCLE   32 ......................................
................................................................................
   1    -45.6242967 -0.456243E+02  0.280E-01    9.34       0.0  T
   2    -45.6243069 -0.102347E-04  0.211E-01    9.34       1.0  T
   3    -45.6243183 -0.113655E-04  0.209E-02    9.35       1.0  T
   4    -45.6243190 -0.777145E-06  0.671E-03    9.35       3.1  T
   5    -45.6243191 -0.483555E-07  0.259E-03    9.35       8.1  T
   6    -45.6243191 -0.682558E-08  0.136E-03    9.35      15.3  T
speedup  1.06
cpu  time for SCC    0.00 s
wall time for SCC    0.00 s
speedup  0.97
cpu  time for grad    0.01 s
wall time for grad    0.01 s
 E :    -45.37262601  G :  0.015827    pred/act E change: -0.193D-03 -0.167D-03
Maxdispl :   0.2297   ||displ|| :   0.3560   Lambda : -0.540D-03
Largest |displ|/coords:  0.2297 (   2)  0.1482 (   1)  0.1171 (   4)
................................................................................
.............................. CYCLE   33 ......................................
................................................................................
   1    -45.6292781 -0.456293E+02  0.192E-01    9.44       0.0  T
   2    -45.6292915 -0.134112E-04  0.145E-01    9.44       1.0  T
   3    -45.6293027 -0.112018E-04  0.217E-02    9.43       1.0  T
   4    -45.6293043 -0.163575E-05  0.767E-03    9.44       2.7  T
   5    -45.6293044 -0.844652E-07  0.258E-03    9.44       8.1  T
   6    -45.6293044 -0.633278E-08  0.142E-03    9.44      14.7  T
speedup  1.09
cpu  time for SCC    0.00 s
wall time for SCC    0.00 s
speedup  0.99
cpu  time for grad    0.01 s
wall time for grad    0.01 s
 E :    -45.37256695  G :  0.024952    pred/act E change: -0.180D-03  0.591D-04
Maxdispl :   0.1183   ||displ|| :   0.1806   Lambda : -0.105D-02
Largest |displ|/coords:  0.1183 (   1)  0.0797 (  10)  0.0502 (  16)
................................................................................
.............................. CYCLE   34 ......................................
................................................................................
   1    -45.6336383 -0.456336E+02  0.189E-01    9.56       0.0  T
   2    -45.6336533 -0.150300E-04  0.142E-01    9.56       1.0  T
   3    -45.6336645 -0.112051E-04  0.240E-02    9.55       1.0  T
   4    -45.6336664 -0.192789E-05  0.594E-03    9.55       3.5  T
   5    -45.6336665 -0.405063E-07  0.277E-03    9.55       7.5  T
speedup  1.08
cpu  time for SCC    0.00 s
wall time for SCC    0.00 s
speedup  0.97
cpu  time for grad    0.01 s
wall time for grad    0.01 s
 E :    -45.37296484  G :  0.011986    pred/act E change: -0.304D-03 -0.398D-03
Maxdispl :   0.2223   ||displ|| :   0.3720   Lambda : -0.614D-03
Largest |displ|/coords:  0.2223 (   2)  0.2104 (   4)  0.1199 (   1)
................................................................................
.............................. CYCLE   35 ......................................
................................................................................
   1    -45.6239791 -0.456240E+02  0.258E-01    9.39       0.0  T
   2    -45.6239905 -0.113907E-04  0.194E-01    9.39       1.0  T
   3    -45.6240009 -0.104241E-04  0.221E-02    9.39       1.0  T
   4    -45.6240021 -0.119787E-05  0.637E-03    9.39       3.3  T
   5    -45.6240022 -0.572032E-07  0.249E-03    9.39       8.4  T
   6    -45.6240022 -0.723580E-08  0.137E-03    9.39      15.2  T
speedup  1.09
cpu  time for SCC    0.00 s
wall time for SCC    0.00 s
speedup  0.98
cpu  time for grad    0.01 s
wall time for grad    0.01 s
 E :    -45.37309895  G :  0.019460    pred/act E change: -0.542D-03 -0.134D-03
Maxdispl :   0.0373   ||displ|| :   0.0853   Lambda : -0.445D-03
Largest |displ|/coords:  0.0373 (   7)  0.0344 (   5)  0.0339 (   4)
................................................................................
.............................. CYCLE   36 ......................................
................................................................................
   1    -45.6295656 -0.456296E+02  0.873E-02    9.49       0.0  T
   2    -45.6295695 -0.395100E-05  0.649E-02    9.49       1.0  T
   3    -45.6295722 -0.269745E-05  0.133E-02    9.49       1.6  T
   4    -45.6295727 -0.438962E-06  0.306E-03    9.49       6.8  T
   5    -45.6295727 -0.197878E-07  0.123E-03    9.49      16.9  T
   6    -45.6295727 -0.114454E-08  0.689E-04    9.49      30.3  T
speedup  1.09
cpu  time for SCC    0.00 s
wall time for SCC    0.00 s
speedup  0.98
cpu  time for grad    0.01 s
wall time for grad    0.01 s
 E :    -45.37334496  G :  0.006878    pred/act E change: -0.350D-03 -0.246D-03
Maxdispl :   0.2613   ||displ|| :   0.4335   Lambda : -0.352D-03
Largest |displ|/coords:  0.2613 (   2)  0.2557 (   1)  0.1371 (   4)
................................................................................
.............................. CYCLE   37 ......................................
................................................................................
   1    -45.6301364 -0.456301E+02  0.211E-01    9.55       0.0  T
   2    -45.6301420 -0.561705E-05  0.159E-01    9.54       1.0  T
   3    -45.6301481 -0.609339E-05  0.152E-02    9.54       1.4  T
   4    -45.6301485 -0.447936E-06  0.547E-03    9.54       3.8  T
   5    -45.6301486 -0.278689E-07  0.183E-03    9.54      11.4  T
   6    -45.6301486 -0.354382E-08  0.103E-03    9.54      20.2  T
speedup  0.87
cpu  time for SCC    0.00 s
wall time for SCC    0.00 s
speedup  0.98
cpu  time for grad    0.01 s
wall time for grad    0.01 s
 E :    -45.37352623  G :  0.010503    pred/act E change: -0.224D-03 -0.181D-03
Maxdispl :   0.2504   ||displ|| :   0.4038   Lambda : -0.385D-03
Largest |displ|/coords:  0.2504 (   2)  0.1959 (   4)  0.1714 (   1)
................................................................................
.............................. CYCLE   38 ......................................
................................................................................
   1    -45.6301542 -0.456302E+02  0.211E-01    9.57       0.0  T
   2    -45.6301609 -0.664290E-05  0.158E-01    9.57       1.0  T
   3    -45.6301674 -0.651303E-05  0.186E-02    9.56       1.1  T
   4    -45.6301680 -0.629975E-06  0.535E-03    9.57       3.9  T
   5    -45.6301681 -0.385358E-07  0.188E-03    9.56      11.1  T
   6    -45.6301681 -0.470326E-08  0.115E-03    9.56      18.1  T
speedup  0.87
cpu  time for SCC    0.00 s
wall time for SCC    0.00 s
speedup  0.98
cpu  time for grad    0.01 s
wall time for grad    0.01 s
 E :    -45.37382618  G :  0.010474    pred/act E change: -0.209D-03 -0.300D-03
Maxdispl :   0.3227   ||displ|| :   0.5274   Lambda : -0.677D-03
Largest |displ|/coords:  0.3227 (   2)  0.2765 (   4)  0.1543 (   1)
................................................................................
.............................. CYCLE   39 ......................................
................................................................................
   1    -45.6284362 -0.456284E+02  0.301E-01    9.53       0.0  T
   2    -45.6284507 -0.145161E-04  0.225E-01    9.53       1.0  T
   3    -45.6284641 -0.133960E-04  0.297E-02    9.53       1.0  T
   4    -45.6284654 -0.133120E-05  0.842E-03    9.53       2.5  T
   5    -45.6284655 -0.888838E-07  0.257E-03    9.53       8.1  T
   6    -45.6284655 -0.815214E-08  0.154E-03    9.53      13.5  T
speedup  0.87
cpu  time for SCC    0.00 s
wall time for SCC    0.00 s
speedup  0.98
cpu  time for grad    0.01 s
wall time for grad    0.01 s
 E :    -45.37398055  G :  0.016441    pred/act E change: -0.224D-03 -0.154D-03
Maxdispl :   0.1578   ||displ|| :   0.3136   Lambda : -0.713D-03
Largest |displ|/coords:  0.1578 (   1)  0.1475 (   2)  0.1215 (   4)
................................................................................
.............................. CYCLE   40 ......................................
................................................................................
   1    -45.6282604 -0.456283E+02  0.187E-01    9.52       0.0  T
   2    -45.6282679 -0.751153E-05  0.140E-01    9.52       1.0  T
   3    -45.6282746 -0.668292E-05  0.175E-02    9.52       1.2  T
   4    -45.6282755 -0.857452E-06  0.467E-03    9.52       4.5  T
   5    -45.6282755 -0.235752E-07  0.222E-03    9.52       9.4  T
   6    -45.6282755 -0.516391E-08  0.105E-03    9.52      19.8  T
speedup  0.85
cpu  time for SCC    0.00 s
wall time for SCC    0.00 s
speedup  0.96
cpu  time for grad    0.01 s
wall time for grad    0.01 s
 E :    -45.37431297  G :  0.015229    pred/act E change: -0.433D-03 -0.332D-03
Maxdispl :   0.0880   ||displ|| :   0.1649   Lambda : -0.439D-03
Largest |displ|/coords:  0.0880 (   2)  0.0699 (   1)  0.0553 (  18)
................................................................................
.............................. CYCLE   41 ......................................
................................................................................
   1    -45.6332116 -0.456332E+02  0.106E-01    9.66       0.0  T
   2    -45.6332145 -0.284050E-05  0.785E-02    9.66       1.0  T
   3    -45.6332166 -0.215341E-05  0.136E-02    9.65       1.5  T
   4    -45.6332170 -0.317182E-06  0.475E-03    9.65       4.4  T
   5    -45.6332170 -0.235477E-07  0.122E-03    9.65      17.0  T
   6    -45.6332170 -0.106399E-08  0.744E-04    9.65      28.0  T
speedup  0.85
cpu  time for SCC    0.00 s
wall time for SCC    0.00 s
speedup  0.96
cpu  time for grad    0.01 s
wall time for grad    0.01 s
 E :    -45.37446681  G :  0.014677    pred/act E change: -0.392D-03 -0.154D-03
Maxdispl :   0.2408   ||displ|| :   0.4533   Lambda : -0.596D-03
Largest |displ|/coords:  0.2408 (   2)  0.2284 (   1)  0.2064 (   4)
................................................................................
.............................. CYCLE   42 ......................................
................................................................................
   1    -45.6297577 -0.456298E+02  0.209E-01    9.48       0.0  T
   2    -45.6297687 -0.110535E-04  0.156E-01    9.48       1.0  T
   3    -45.6297764 -0.771373E-05  0.216E-02    9.48       1.0  T
   4    -45.6297779 -0.142779E-05  0.778E-03    9.48       2.7  T
   5    -45.6297779 -0.831429E-07  0.191E-03    9.48      10.9  T
   6    -45.6297779 -0.401255E-08  0.113E-03    9.48      18.4  T
speedup  0.87
cpu  time for SCC    0.00 s
wall time for SCC    0.00 s
speedup  0.97
cpu  time for grad    0.01 s
wall time for grad    0.01 s
 E :    -45.37470052  G :  0.011439    pred/act E change: -0.226D-03 -0.234D-03
Maxdispl :   0.1857   ||displ|| :   0.3840   Lambda : -0.561D-03
Largest |displ|/coords:  0.1857 (   2)  0.1758 (   4)  0.1501 (   1)
................................................................................
.............................. CYCLE   43 ......................................
................................................................................
   1    -45.6287557 -0.456288E+02  0.208E-01    9.50       0.0  T
   2    -45.6287617 -0.605401E-05  0.156E-01    9.50       1.0  T
   3    -45.6287677 -0.594443E-05  0.159E-02    9.50       1.3  T
   4    -45.6287683 -0.602782E-06  0.492E-03    9.50       4.2  T
   5    -45.6287683 -0.287590E-07  0.185E-03    9.50      11.3  T
   6    -45.6287683 -0.320302E-08  0.982E-04    9.50      21.2  T
speedup  0.87
cpu  time for SCC    0.00 s
wall time for SCC    0.00 s
speedup  0.98
cpu  time for grad    0.01 s
wall time for grad    0.01 s
 E :    -45.37497527  G :  0.013984    pred/act E change: -0.359D-03 -0.275D-03
Maxdispl :   0.1112   ||displ|| :   0.3208   Lambda : -0.737D-03
Largest |displ|/coords:  0.1112 (  12)  0.1070 (   5)  0.1027 (   3)
................................................................................
.............................. CYCLE   44 ......................................
................................................................................
   1    -45.6393740 -0.456394E+02  0.152E-01    9.61       0.0  T
   2    -45.6393896 -0.156502E-04  0.112E-01    9.61       1.0  T
   3    -45.6394002 -0.105180E-04  0.242E-02    9.61       1.0  T
   4    -45.6394018 -0.166148E-05  0.612E-03    9.61       3.4  T
   5    -45.6394019 -0.561363E-07  0.269E-03    9.61       7.7  T
   6    -45.6394019 -0.540260E-08  0.135E-03    9.61      15.5  T
speedup  0.89
cpu  time for SCC    0.00 s
wall time for SCC    0.00 s
speedup  0.98
cpu  time for grad    0.01 s
wall time for grad    0.01 s
 E :    -45.37463377  G :  0.027491    pred/act E change: -0.322D-03  0.342D-03
Maxdispl :   0.2486   ||displ|| :   0.3651   Lambda : -0.155D-02
Largest |displ|/coords:  0.2486 (   2)  0.1594 (   1)  0.1149 (   4)
................................................................................
.............................. CYCLE   45 ......................................
................................................................................
   1    -45.6268574 -0.456269E+02  0.209E-01    9.50       0.0  T
   2    -45.6268789 -0.214906E-04  0.156E-01    9.50       1.0  T
   3    -45.6268914 -0.124839E-04  0.290E-02    9.51       1.0  T
   4    -45.6268944 -0.297234E-05  0.934E-03    9.51       2.2  T
   5    -45.6268945 -0.141410E-06  0.273E-03    9.50       7.7  T
   6    -45.6268945 -0.813196E-08  0.163E-03    9.50      12.8  T
speedup  0.87
cpu  time for SCC    0.00 s
wall time for SCC    0.00 s
speedup  0.89
cpu  time for grad    0.01 s
wall time for grad    0.01 s
 E :    -45.37511580  G :  0.020280    pred/act E change: -0.407D-03 -0.482D-03
Maxdispl :   0.1094   ||displ|| :   0.2566   Lambda : -0.117D-02
Largest |displ|/coords:  0.1094 (  10)  0.0992 (   8)  0.0958 (   6)
................................................................................
.............................. CYCLE   46 ......................................
................................................................................
   1    -45.6312452 -0.456312E+02  0.173E-01    9.53       0.0  T
   2    -45.6312673 -0.220923E-04  0.128E-01    9.53       1.0  T
   3    -45.6312790 -0.117196E-04  0.294E-02    9.53       1.0  T
   4    -45.6312818 -0.280974E-05  0.848E-03    9.53       2.5  T
   5    -45.6312819 -0.118587E-06  0.286E-03    9.53       7.3  T
   6    -45.6312820 -0.961597E-08  0.151E-03    9.53      13.8  T
speedup  1.11
cpu  time for SCC    0.00 s
wall time for SCC    0.00 s
speedup  1.07
cpu  time for grad    0.01 s
wall time for grad    0.01 s
 E :    -45.37506034  G :  0.022099    pred/act E change: -0.880D-03  0.555D-04
Maxdispl :   0.1429   ||displ|| :   0.3194   Lambda : -0.978D-03
Largest |displ|/coords:  0.1429 (   4)  0.1172 (   2)  0.1025 (   1)
................................................................................
.............................. CYCLE   47 ......................................
................................................................................
   1    -45.6318806 -0.456319E+02  0.183E-01    9.48       0.0  T
   2    -45.6318933 -0.126672E-04  0.137E-01    9.48       1.0  T
   3    -45.6319022 -0.893216E-05  0.227E-02    9.48       1.0  T
   4    -45.6319039 -0.167747E-05  0.700E-03    9.48       3.0  T
   5    -45.6319040 -0.839790E-07  0.233E-03    9.48       9.0  T
   6    -45.6319040 -0.471449E-08  0.129E-03    9.48      16.2  T
speedup  0.87
cpu  time for SCC    0.00 s
wall time for SCC    0.00 s
speedup  0.97
cpu  time for grad    0.01 s
wall time for grad    0.01 s
 E :    -45.37550774  G :  0.013841    pred/act E change: -0.625D-03 -0.447D-03
Maxdispl :   0.1184   ||displ|| :   0.2901   Lambda : -0.652D-03
Largest |displ|/coords:  0.1184 (   2)  0.0986 (   4)  0.0929 (  12)
................................................................................
.............................. CYCLE   48 ......................................
................................................................................
   1    -45.6306736 -0.456307E+02  0.169E-01    9.57       0.0  T
   2    -45.6306914 -0.178218E-04  0.126E-01    9.57       1.0  T
   3    -45.6307023 -0.108345E-04  0.282E-02    9.57       1.0  T
   4    -45.6307045 -0.223643E-05  0.935E-03    9.57       2.2  T
   5    -45.6307047 -0.171882E-06  0.283E-03    9.57       7.4  T
   6    -45.6307047 -0.757548E-08  0.163E-03    9.57      12.8  T
speedup  1.06
cpu  time for SCC    0.00 s
wall time for SCC    0.00 s
speedup  0.96
cpu  time for grad    0.01 s
wall time for grad    0.01 s
 E :    -45.37529402  G :  0.024837    pred/act E change: -0.539D-03  0.214D-03
Maxdispl :   0.1106   ||displ|| :   0.1801   Lambda : -0.968D-03
Largest |displ|/coords:  0.1106 (   1)  0.0662 (   2)  0.0522 (   8)
................................................................................
.............................. CYCLE   49 ......................................
................................................................................
   1    -45.6299579 -0.456300E+02  0.123E-01    9.54       0.0  T
   2    -45.6299673 -0.938432E-05  0.908E-02    9.54       1.0  T
   3    -45.6299737 -0.639651E-05  0.206E-02    9.54       1.0  T
   4    -45.6299747 -0.101735E-05  0.652E-03    9.54       3.2  T
   5    -45.6299747 -0.714002E-07  0.216E-03    9.54       9.6  T
   6    -45.6299747 -0.422252E-08  0.121E-03    9.54      17.3  T
speedup  1.09
cpu  time for SCC    0.00 s
wall time for SCC    0.00 s
speedup  0.97
cpu  time for grad    0.01 s
wall time for grad    0.01 s
 E :    -45.37576971  G :  0.011026    pred/act E change: -0.354D-03 -0.476D-03
Maxdispl :   0.1298   ||displ|| :   0.2418   Lambda : -0.307D-03
Largest |displ|/coords:  0.1298 (   2)  0.1069 (   1)  0.0804 (   4)
................................................................................
.............................. CYCLE   50 ......................................
................................................................................
   1    -45.6316463 -0.456316E+02  0.126E-01    9.39       0.0  T
   2    -45.6316512 -0.487459E-05  0.937E-02    9.39       1.0  T
   3    -45.6316542 -0.308102E-05  0.155E-02    9.39       1.3  T
   4    -45.6316548 -0.595244E-06  0.544E-03    9.39       3.8  T
   5    -45.6316549 -0.383965E-07  0.114E-03    9.39      18.2  T
   6    -45.6316549 -0.167932E-08  0.720E-04    9.39      28.9  T
speedup  1.09
cpu  time for SCC    0.00 s
wall time for SCC    0.00 s
speedup  1.05
cpu  time for grad    0.01 s
wall time for grad    0.01 s
 E :    -45.37575192  G :  0.014014    pred/act E change: -0.500D-03  0.178D-04
Maxdispl :   0.0609   ||displ|| :   0.1387   Lambda : -0.379D-03
Largest |displ|/coords:  0.0609 (   1)  0.0530 (   4)  0.0417 (   3)
................................................................................
.............................. CYCLE   51 ......................................
................................................................................
   1    -45.6317820 -0.456318E+02  0.780E-02    9.53       0.0  T
   2    -45.6317848 -0.276848E-05  0.587E-02    9.53       1.0  T
   3    -45.6317865 -0.165509E-05  0.123E-02    9.53       1.7  T
   4    -45.6317868 -0.370755E-06  0.449E-03    9.53       4.6  T
   5    -45.6317869 -0.251723E-07  0.987E-04    9.53      21.1  T
   6    -45.6317869 -0.929312E-09  0.597E-04    9.53      35.0  T
speedup  1.09
cpu  time for SCC    0.00 s
wall time for SCC    0.00 s
speedup  1.06
cpu  time for grad    0.01 s
wall time for grad    0.01 s
 E :    -45.37595768  G :  0.007768    pred/act E change: -0.163D-03 -0.206D-03
Maxdispl :   0.0671   ||displ|| :   0.1760   Lambda : -0.312D-03
Largest |displ|/coords:  0.0671 (   6)  0.0598 (   1)  0.0576 (  23)
................................................................................
.............................. CYCLE   52 ......................................
................................................................................
   1    -45.6339216 -0.456339E+02  0.114E-01    9.63       0.0  T
   2    -45.6339291 -0.750857E-05  0.849E-02    9.63       1.0  T
   3    -45.6339324 -0.329287E-05  0.201E-02    9.63       1.0  T
   4    -45.6339333 -0.903656E-06  0.559E-03    9.63       3.7  T
   5    -45.6339334 -0.815707E-07  0.134E-03    9.63      15.6  T
   6    -45.6339334 -0.110581E-08  0.803E-04    9.63      26.0  T
speedup  0.87
cpu  time for SCC    0.00 s
wall time for SCC    0.00 s
speedup  0.96
cpu  time for grad    0.01 s
wall time for grad    0.01 s
 E :    -45.37592100  G :  0.013320    pred/act E change: -0.193D-03  0.367D-04
Maxdispl :   0.1499   ||displ|| :   0.3040   Lambda : -0.398D-03
Largest |displ|/coords:  0.1499 (   2)  0.1440 (   4)  0.1235 (   1)

generating ANC from model Hessian ...
 Shifting diagonal of input Hessian by   4.732822539546786E-003
 Lowest  eigenvalues of input Hessian
   -0.000000    0.000000    0.000000    0.000000    0.000000    0.000000
    0.005000    0.005289    0.005325    0.005868    0.006919    0.007393
    0.008198    0.008809    0.009420    0.011135    0.012839    0.013117
 Highest eigenvalues
    1.385504    1.395931    1.493808    2.717217    3.374519    3.520680
 
cpu  time for ANC gen    0.02 s
wall time for ANC gen    0.02 s
................................................................................
.............................. CYCLE   53 ......................................
................................................................................
   1    -45.6288709 -0.456289E+02  0.162E-01    9.50       0.0  T
   2    -45.6288780 -0.707091E-05  0.121E-01    9.50       1.0  T
   3    -45.6288841 -0.611768E-05  0.181E-02    9.51       1.2  T
   4    -45.6288849 -0.779345E-06  0.539E-03    9.51       3.9  T
   5    -45.6288849 -0.398980E-07  0.186E-03    9.51      11.2  T
   6    -45.6288849 -0.321977E-08  0.110E-03    9.51      19.0  T
   7    -45.6288849 -0.184556E-08  0.257E-04    9.51      81.0  T
   8    -45.6288849 -0.236255E-09  0.987E-05    9.51     211.3  T
speedup  0.98
cpu  time for SCC    0.01 s
wall time for SCC    0.01 s
speedup  0.98
cpu  time for grad    0.01 s
wall time for grad    0.01 s
 E :    -45.37608570  G :  0.012844    pred/act E change:  0.000D+00 -0.165D-03
Maxdispl :   0.0689   ||displ|| :   0.1541   Lambda : -0.386D-03
Largest |displ|/coords:  0.0689 (   4)  0.0574 (   8)  0.0532 (   1)
................................................................................
.............................. CYCLE   54 ......................................
................................................................................
   1    -45.6316076 -0.456316E+02  0.167E-01    9.54       0.0  T
   2    -45.6316100 -0.241415E-05  0.126E-01    9.54       1.0  T
   3    -45.6316128 -0.278633E-05  0.858E-03    9.54       2.4  T
   4    -45.6316129 -0.151107E-06  0.318E-03    9.54       6.6  T
   5    -45.6316129 -0.883102E-08  0.125E-03    9.54      16.7  T
   6    -45.6316129 -0.180039E-08  0.625E-04    9.54      33.3  T
speedup  0.87
cpu  time for SCC    0.00 s
wall time for SCC    0.00 s
speedup  0.96
cpu  time for grad    0.01 s
wall time for grad    0.01 s
 E :    -45.37634780  G :  0.006330    pred/act E change:  0.000D+00 -0.262D-03
Maxdispl :   0.0850   ||displ|| :   0.1822   Lambda : -0.250D-03
Largest |displ|/coords:  0.0850 (   1)  0.0774 (   4)  0.0637 (   8)
................................................................................
.............................. CYCLE   55 ......................................
................................................................................
   1    -45.6332379 -0.456332E+02  0.188E-01    9.57       0.0  T
   2    -45.6332416 -0.365043E-05  0.142E-01    9.57       1.0  T
   3    -45.6332458 -0.418832E-05  0.111E-02    9.57       1.9  T
   4    -45.6332460 -0.270062E-06  0.411E-03    9.57       5.1  T
   5    -45.6332461 -0.158888E-07  0.155E-03    9.57      13.5  T
   6    -45.6332461 -0.161597E-08  0.699E-04    9.57      29.8  T
speedup  0.89
cpu  time for SCC    0.00 s
wall time for SCC    0.00 s
speedup  0.97
cpu  time for grad    0.01 s
wall time for grad    0.01 s
 E :    -45.37652018  G :  0.007622    pred/act E change: -0.198D-03 -0.172D-03
Maxdispl :   0.1048   ||displ|| :   0.2225   Lambda : -0.236D-03
Largest |displ|/coords:  0.1048 (   4)  0.1047 (   1)  0.0725 (   8)
................................................................................
.............................. CYCLE   56 ......................................
................................................................................
   1    -45.6341833 -0.456342E+02  0.180E-01    9.59       0.0  T
   2    -45.6341861 -0.285873E-05  0.136E-01    9.59       1.0  T
   3    -45.6341894 -0.330342E-05  0.107E-02    9.59       2.0  T
   4    -45.6341896 -0.202657E-06  0.407E-03    9.59       5.1  T
   5    -45.6341897 -0.127883E-07  0.146E-03    9.59      14.3  T
   6    -45.6341897 -0.178041E-08  0.694E-04    9.59      30.0  T
speedup  0.89
cpu  time for SCC    0.00 s
wall time for SCC    0.00 s
speedup  0.97
cpu  time for grad    0.01 s
wall time for grad    0.01 s
 E :    -45.37668706  G :  0.005187    pred/act E change: -0.129D-03 -0.167D-03
Maxdispl :   0.1439   ||displ|| :   0.2695   Lambda : -0.172D-03
Largest |displ|/coords:  0.1439 (   4)  0.1145 (   1)  0.1078 (   2)
................................................................................
.............................. CYCLE   57 ......................................
................................................................................
   1    -45.6324625 -0.456325E+02  0.211E-01    9.57       0.0  T
   2    -45.6324683 -0.579778E-05  0.159E-01    9.58       1.0  T
   3    -45.6324742 -0.591836E-05  0.159E-02    9.59       1.3  T
   4    -45.6324748 -0.609898E-06  0.558E-03    9.58       3.7  T
   5    -45.6324748 -0.293888E-07  0.194E-03    9.58      10.7  T
   6    -45.6324748 -0.235023E-08  0.961E-04    9.58      21.7  T
speedup  0.89
cpu  time for SCC    0.00 s
wall time for SCC    0.00 s
speedup  0.96
cpu  time for grad    0.01 s
wall time for grad    0.01 s
 E :    -45.37675813  G :  0.010363    pred/act E change: -0.124D-03 -0.711D-04
Maxdispl :   0.0788   ||displ|| :   0.1454   Lambda : -0.229D-03
Largest |displ|/coords:  0.0788 (   4)  0.0532 (  11)  0.0427 (   9)
................................................................................
.............................. CYCLE   58 ......................................
................................................................................
   1    -45.6344415 -0.456344E+02  0.795E-02    9.57       0.0  T
   2    -45.6344457 -0.420134E-05  0.590E-02    9.57       1.0  T
   3    -45.6344485 -0.271938E-05  0.127E-02    9.57       1.6  T
   4    -45.6344489 -0.464600E-06  0.297E-03    9.57       7.0  T
   5    -45.6344489 -0.134123E-07  0.126E-03    9.57      16.5  T
speedup  1.05
cpu  time for SCC    0.00 s
wall time for SCC    0.00 s
speedup  1.04
cpu  time for grad    0.01 s
wall time for grad    0.01 s
 E :    -45.37674085  G :  0.010094    pred/act E change: -0.921D-04  0.173D-04
Maxdispl :   0.0365   ||displ|| :   0.0763   Lambda : -0.209D-03
Largest |displ|/coords:  0.0365 (   9)  0.0285 (  12)  0.0274 (   7)
................................................................................
.............................. CYCLE   59 ......................................
................................................................................
   1    -45.6333007 -0.456333E+02  0.751E-02    9.57       0.0  T
   2    -45.6333027 -0.202702E-05  0.565E-02    9.57       1.0  T
   3    -45.6333044 -0.168454E-05  0.872E-03    9.57       2.4  T
   4    -45.6333047 -0.261510E-06  0.269E-03    9.57       7.7  T
   5    -45.6333047 -0.991548E-08  0.111E-03    9.57      18.9  T
speedup  1.05
cpu  time for SCC    0.00 s
wall time for SCC    0.00 s
speedup  1.04
cpu  time for grad    0.01 s
wall time for grad    0.01 s
 E :    -45.37683773  G :  0.003755    pred/act E change: -0.117D-03 -0.969D-04
Maxdispl :   0.0253   ||displ|| :   0.0493   Lambda : -0.457D-04
Largest |displ|/coords:  0.0253 (   3)  0.0205 (   4)  0.0173 (   8)
................................................................................
.............................. CYCLE   60 ......................................
................................................................................
   1    -45.6336223 -0.456336E+02  0.433E-02    9.58       0.0  T
   2    -45.6336227 -0.381140E-06  0.328E-02    9.58       1.0  T
   3    -45.6336231 -0.392036E-06  0.386E-03    9.58       5.4  T
   4    -45.6336231 -0.317233E-07  0.106E-03    9.58      19.6  T
   5    -45.6336231 -0.149129E-08  0.382E-04    9.58      54.5  T
   6    -45.6336231 -0.175554E-09  0.225E-04    9.58      92.7  T
speedup  0.89
cpu  time for SCC    0.00 s
wall time for SCC    0.00 s
speedup  1.03
cpu  time for grad    0.01 s
wall time for grad    0.01 s
 E :    -45.37685273  G :  0.004093    pred/act E change: -0.105D-03 -0.150D-04
Maxdispl :   0.0311   ||displ|| :   0.0452   Lambda : -0.253D-04
Largest |displ|/coords:  0.0311 (   4)  0.0198 (   2)  0.0152 (   5)
................................................................................
.............................. CYCLE   61 ......................................
................................................................................
   1    -45.6335299 -0.456335E+02  0.287E-02    9.58       0.0  T
   2    -45.6335300 -0.103245E-06  0.216E-02    9.58       1.0  T
   3    -45.6335300 -0.903743E-07  0.195E-03    9.58      10.7  T
   4    -45.6335301 -0.132545E-07  0.669E-04    9.58      31.2  T
speedup  1.00
cpu  time for SCC    0.00 s
wall time for SCC    0.00 s
speedup  1.02
cpu  time for grad    0.01 s
wall time for grad    0.01 s
 E :    -45.37687224  G :  0.002898    pred/act E change: -0.229D-04 -0.195D-04
Maxdispl :   0.0641   ||displ|| :   0.1071   Lambda : -0.448D-04
Largest |displ|/coords:  0.0641 (   4)  0.0505 (   2)  0.0304 (   3)
................................................................................
.............................. CYCLE   62 ......................................
................................................................................
   1    -45.6332346 -0.456332E+02  0.779E-02    9.56       0.0  T
   2    -45.6332354 -0.806273E-06  0.588E-02    9.56       1.0  T
   3    -45.6332362 -0.850799E-06  0.581E-03    9.56       3.6  T
   4    -45.6332363 -0.819507E-07  0.198E-03    9.56      10.5  T
   5    -45.6332363 -0.465687E-08  0.785E-04    9.56      26.6  T
   6    -45.6332363 -0.727717E-09  0.415E-04    9.56      50.2  T
speedup  1.06
cpu  time for SCC    0.00 s
wall time for SCC    0.00 s
speedup  1.01
cpu  time for grad    0.01 s
wall time for grad    0.01 s
 E :    -45.37689920  G :  0.001645    pred/act E change: -0.127D-04 -0.270D-04
Maxdispl :   0.0391   ||displ|| :   0.0858   Lambda : -0.252D-04
Largest |displ|/coords:  0.0391 (   2)  0.0358 (   3)  0.0287 (   9)
................................................................................
.............................. CYCLE   63 ......................................
................................................................................
   1    -45.6333308 -0.456333E+02  0.673E-02    9.56       0.0  T
   2    -45.6333313 -0.506381E-06  0.508E-02    9.56       1.0  T
   3    -45.6333319 -0.622763E-06  0.488E-03    9.56       4.3  T
   4    -45.6333319 -0.339643E-07  0.178E-03    9.56      11.7  T
   5    -45.6333319 -0.334587E-08  0.649E-04    9.56      32.1  T
   6    -45.6333319 -0.393705E-09  0.375E-04    9.56      55.6  T
speedup  1.06
cpu  time for SCC    0.00 s
wall time for SCC    0.00 s
speedup  1.01
cpu  time for grad    0.01 s
wall time for grad    0.01 s
 E :    -45.37691350  G :  0.002776    pred/act E change: -0.226D-04 -0.143D-04
Maxdispl :   0.0244   ||displ|| :   0.0573   Lambda : -0.176D-04
Largest |displ|/coords:  0.0244 (   3)  0.0226 (   8)  0.0215 (   2)
................................................................................
.............................. CYCLE   64 ......................................
................................................................................
   1    -45.6333308 -0.456333E+02  0.427E-02    9.56       0.0  T
   2    -45.6333310 -0.202906E-06  0.322E-02    9.56       1.0  T
   3    -45.6333313 -0.235302E-06  0.283E-03    9.56       7.4  T
   4    -45.6333313 -0.163810E-07  0.106E-03    9.56      19.7  T
   5    -45.6333313 -0.124383E-08  0.419E-04    9.56      49.8  T
   6    -45.6333313 -0.178652E-09  0.221E-04    9.56      94.3  T
speedup  1.09
cpu  time for SCC    0.00 s
wall time for SCC    0.00 s
speedup  1.03
cpu  time for grad    0.01 s
wall time for grad    0.01 s
 E :    -45.37692384  G :  0.001542    pred/act E change: -0.127D-04 -0.103D-04
Maxdispl :   0.0352   ||displ|| :   0.0588   Lambda : -0.126D-04
Largest |displ|/coords:  0.0352 (   2)  0.0222 (   4)  0.0214 (  14)
................................................................................
.............................. CYCLE   65 ......................................
................................................................................
   1    -45.6331381 -0.456331E+02  0.486E-02    9.56       0.0  T
   2    -45.6331384 -0.314787E-06  0.366E-02    9.56       1.0  T
   3    -45.6331388 -0.312215E-06  0.370E-03    9.56       5.6  T
   4    -45.6331388 -0.343051E-07  0.129E-03    9.56      16.2  T
   5    -45.6331388 -0.193334E-08  0.449E-04    9.56      46.4  T
   6    -45.6331388 -0.179760E-09  0.226E-04    9.56      92.1  T
speedup  0.89
cpu  time for SCC    0.00 s
wall time for SCC    0.00 s
speedup  0.95
cpu  time for grad    0.01 s
wall time for grad    0.01 s
 E :    -45.37692880  G :  0.002161    pred/act E change: -0.884D-05 -0.496D-05
Maxdispl :   0.0228   ||displ|| :   0.0424   Lambda : -0.111D-04
Largest |displ|/coords:  0.0228 (   4)  0.0206 (   1)  0.0160 (   5)
................................................................................
.............................. CYCLE   66 ......................................
................................................................................
   1    -45.6338934 -0.456339E+02  0.325E-02    9.57       0.0  T
   2    -45.6338937 -0.279558E-06  0.244E-02    9.57       1.0  T
   3    -45.6338939 -0.221874E-06  0.406E-03    9.57       5.1  T
   4    -45.6338940 -0.372414E-07  0.128E-03    9.57      16.2  T
   5    -45.6338940 -0.194972E-08  0.398E-04    9.57      52.4  T
   6    -45.6338940 -0.153577E-09  0.237E-04    9.57      87.9  T
speedup  1.11
cpu  time for SCC    0.00 s
wall time for SCC    0.00 s
speedup  1.03
cpu  time for grad    0.01 s
wall time for grad    0.01 s
 E :    -45.37693225  G :  0.001488    pred/act E change: -0.633D-05 -0.345D-05
Maxdispl :   0.0089   ||displ|| :   0.0163   Lambda : -0.576D-05
Largest |displ|/coords:  0.0089 (   4)  0.0075 (   3)  0.0053 (  11)
................................................................................
.............................. CYCLE   67 ......................................
................................................................................
   1    -45.6335923 -0.456336E+02  0.135E-02    9.57       0.0  T
   2    -45.6335923 -0.344540E-07  0.101E-02    9.57       2.1  T
   3    -45.6335924 -0.290768E-07  0.150E-03    9.57      13.9  T
   4    -45.6335924 -0.386975E-08  0.411E-04    9.57      50.7  T
   5    -45.6335924 -0.231992E-09  0.136E-04    9.57     153.4  T
speedup  1.05
cpu  time for SCC    0.00 s
wall time for SCC    0.00 s
speedup  1.01
cpu  time for grad    0.01 s
wall time for grad    0.01 s
 E :    -45.37693534  G :  0.000736    pred/act E change: -0.554D-05 -0.309D-05
Maxdispl :   0.0061   ||displ|| :   0.0120   Lambda : -0.184D-05
Largest |displ|/coords:  0.0061 (   2)  0.0050 (   6)  0.0045 (  12)
................................................................................
.............................. CYCLE   68 ......................................
................................................................................
   1    -45.6335165 -0.456335E+02  0.970E-03    9.57       0.0  T
   2    -45.6335165 -0.117991E-07  0.725E-03    9.57       2.9  T
   3    -45.6335165 -0.113287E-07  0.905E-04    9.57      23.1  T
   4    -45.6335165 -0.105404E-08  0.208E-04    9.57     100.4  T
speedup  1.00
cpu  time for SCC    0.00 s
wall time for SCC    0.00 s
speedup  0.98
cpu  time for grad    0.01 s
wall time for grad    0.01 s
 E :    -45.37693665  G :  0.000575    pred/act E change: -0.288D-05 -0.131D-05
Maxdispl :   0.0104   ||displ|| :   0.0205   Lambda : -0.170D-05
Largest |displ|/coords:  0.0104 (   2)  0.0095 (   1)  0.0077 (  12)
................................................................................
.............................. CYCLE   69 ......................................
................................................................................
   1    -45.6334616 -0.456335E+02  0.152E-02    9.57       0.0  T
   2    -45.6334616 -0.315979E-07  0.113E-02    9.57       1.8  T
   3    -45.6334616 -0.246243E-07  0.156E-03    9.57      13.4  T
   4    -45.6334616 -0.345140E-08  0.385E-04    9.57      54.2  T
   5    -45.6334616 -0.228603E-09  0.124E-04    9.57     168.3  T
speedup  1.05
cpu  time for SCC    0.00 s
wall time for SCC    0.00 s
speedup  1.00
cpu  time for grad    0.01 s
wall time for grad    0.01 s
 E :    -45.37693768  G :  0.000421    pred/act E change: -0.918D-06 -0.103D-05
Maxdispl :   0.0063   ||displ|| :   0.0106   Lambda : -0.509D-06
Largest |displ|/coords:  0.0063 (   2)  0.0040 (   1)  0.0038 (  12)
................................................................................
.............................. CYCLE   70 ......................................
................................................................................
   1    -45.6334861 -0.456335E+02  0.805E-03    9.57       0.0  T
   2    -45.6334861 -0.854414E-08  0.601E-03    9.57       3.5  T
   3    -45.6334861 -0.607420E-08  0.715E-04    9.57      29.2  T
   4    -45.6334861 -0.111079E-08  0.208E-04    9.57     100.4  T
speedup  0.97
cpu  time for SCC    0.00 s
wall time for SCC    0.00 s
speedup  0.98
cpu  time for grad    0.01 s
wall time for grad    0.01 s
 E :    -45.37693801  G :  0.000230    pred/act E change: -0.852D-06 -0.327D-06
Maxdispl :   0.0054   ||displ|| :   0.0080   Lambda : -0.291D-06
Largest |displ|/coords:  0.0054 (   2)  0.0027 (  10)  0.0022 (   7)
................................................................................
.............................. CYCLE   71 ......................................
................................................................................
   1    -45.6334854 -0.456335E+02  0.516E-03    9.57       0.0  T
   2    -45.6334854 -0.407965E-08  0.385E-03    9.57       5.4  T
   3    -45.6334854 -0.288819E-08  0.493E-04    9.57      42.3  T
   4    -45.6334854 -0.535074E-09  0.136E-04    9.57     153.5  T
speedup  0.97
cpu  time for SCC    0.00 s
wall time for SCC    0.00 s
speedup  1.07
cpu  time for grad    0.01 s
wall time for grad    0.01 s
 E :    -45.37693821  G :  0.000167    pred/act E change: -0.255D-06 -0.206D-06
Maxdispl :   0.0049   ||displ|| :   0.0077   Lambda : -0.203D-06
Largest |displ|/coords:  0.0049 (   2)  0.0024 (   5)  0.0024 (   8)
................................................................................
.............................. CYCLE   72 ......................................
................................................................................
   1    -45.6334765 -0.456335E+02  0.448E-03    9.57       0.0  T
   2    -45.6334765 -0.248922E-08  0.331E-03    9.57       6.3  T
   3    -45.6334765 -0.187332E-08  0.473E-04    9.57      44.0  T
   4    -45.6334765 -0.247567E-09  0.119E-04    9.57     175.1  T
speedup  0.97
cpu  time for SCC    0.00 s
wall time for SCC    0.00 s
speedup  0.98
cpu  time for grad    0.01 s
wall time for grad    0.01 s
 E :    -45.37693835  G :  0.000144    pred/act E change: -0.146D-06 -0.134D-06
Maxdispl :   0.0018   ||displ|| :   0.0041   Lambda : -0.760D-07
Largest |displ|/coords:  0.0018 (   5)  0.0016 (   2)  0.0016 (   4)
................................................................................
.............................. CYCLE   73 ......................................
................................................................................
   1    -45.6334722 -0.456335E+02  0.241E-03    9.57       0.0  T
   2    -45.6334722 -0.879680E-09  0.177E-03    9.57      11.8  T
   3    -45.6334722 -0.722679E-09  0.281E-04    9.57      74.2  T
   4    -45.6334722 -0.758149E-10  0.457E-05    9.57     456.2  T
speedup  1.00
cpu  time for SCC    0.00 s
wall time for SCC    0.00 s
speedup  0.98
cpu  time for grad    0.01 s
wall time for grad    0.01 s
 E :    -45.37693840  G :  0.000088    pred/act E change: -0.101D-06 -0.506D-07
Maxdispl :   0.0011   ||displ|| :   0.0021   Lambda : -0.267D-07
Largest |displ|/coords:  0.0011 (   8)  0.0008 (   5)  0.0007 (   2)

   *** GEOMETRY OPTIMIZATION CONVERGED AFTER 73 ITERATIONS ***

------------------------------------------------------------------------
 total energy gain (kcal):     -0.5351
------------------------------------------------------------------------
================
 final structure:
================
$coord
       -1.78993380805729        1.45021117498135       -0.72800468142719      S 
       -3.73458152140730        3.18399894388455       -2.11495380442769      O 
       -2.37300036895127        1.61688046286026        1.95267878678086      O 
       -2.12121139104154       -1.12646632532655       -1.66398420078408      O 
        0.73905345544235        2.39755430516529       -1.31731118292595      O 
        2.78324226402951        1.70357830970489        3.27540807887953      O 
        2.31072396584705        2.08156911654995        1.53255738766870      H 
        1.37621799235596        2.30770270718104        4.25111920118710      H 
        2.76640227967860       -3.34815315301798        3.05302093002871      O 
        3.09473577870427       -1.55719784215483        3.43450827465290      H 
        3.06923429668268       -3.47096581378088        1.22083784059677      H 
        2.68974968457204       -2.67852763816880       -1.94561097282135      O 
        0.89958312860201       -2.26421185477513       -2.12547853067535      H 
        3.55587604269507       -1.11551503256744       -2.26530456303110      H 
       -0.51803235563496        3.91285136203619       -5.88144255702723      O 
       -0.01610620775273        5.62728917966413       -6.19579941496669      H 
        0.44384696186598        3.34227940679015       -4.40954529301174      H 
       -3.02795254511455        3.47850120119557       -3.80047877904707      H 
       -2.07888404649271       -3.18306318901038        2.80837038994328      N 
       -2.42558103501535       -1.24210569472678        3.08866121467045      H 
       -3.20820272495006       -4.33498067219515        3.84173202316069      H 
       -2.39231034934604       -3.30359622766087        0.87581976308807      H 
       -0.04286949669704       -3.47763272664325        3.11320007059141      H 
$end
 
 Bond Distances (Angstroems)
 ---------------------------
S1-O2=1.5619         S1-O3=1.4544         S1-O4=1.4612         S1-O5=1.4627         O2-S1=1.5619         O2-H18=0.9796        
O3-S1=1.4544         O4-S1=1.4612         O5-S1=1.4627         O6-H7=0.9763         O6-H8=0.9608         H7-O6=0.9763         
H8-O6=0.9608         O9-H10=0.9844        O9-H11=0.9849        H10-O9=0.9844        H11-O9=0.9849        O12-H13=0.9770       
O12-H14=0.9606       H13-O12=0.9770       H14-O12=0.9606       O15-H16=0.9598       O15-H17=0.9782       H16-O15=0.9598       
H17-O15=0.9782       H18-O2=0.9796        N19-H20=1.0539       N19-H21=1.0138       N19-H22=1.0380       N19-H23=1.1005       
H20-N19=1.0539       H21-N19=1.0138       H22-N19=1.0380       H23-N19=1.1005       
 N  H  Rav=1.0515 sigma=0.0317  Rmin=1.0138  Rmax=1.1005     4
 O  H  Rav=0.9735 sigma=0.0097  Rmin=0.9598  Rmax=0.9849     9
 S  O  Rav=1.4851 sigma=0.0445  Rmin=1.4544  Rmax=1.5619     4
 
 selected bond angles (degree)
 --------------------
O3-S1-O2=106.44                O4-S1-O2=108.05                O4-S1-O3=111.21                O5-S1-O2=107.54                
O5-S1-O3=112.41                O5-S1-O4=110.93                H18-O2-S1=105.65               H8-O6-H7=103.95                
H11-O9-H10=103.69              
 
 selected dihedral angles (degree)
 ---------------------------------
H18-O2-S1-O3=162.96           H18-O2-S1-O4=282.49           H18-O2-S1-O5= 42.29           
 
 CMA Distance (Angstroems)
 ---------------------------
R(CMA):  1.9711

========================================================================
 FINAL SINGLEPOINT CALCULATION ON OPTIMIZED GEOMETRY
========================================================================

 Ncao       : 59
 Nao        : 58
 Nshell     : 34
 Nel        : 72
 T(el)      :   300.0
 intcut     :    25.0
 scfconv/Eh :  0.100E-05
   qconv/e  :  0.100E-03
 intneglect :  0.100E-07
 broydamp   :      0.250
 iter      E             dE          RMSdq      gap      omega  full diag
   1    -45.6334722 -0.456335E+02  0.180E-05    9.57       0.0  T
   2    -45.6334722 -0.369482E-12  0.108E-05    9.57    1934.5  T
   3    -45.6334722 -0.639488E-13  0.288E-06    9.57    7243.2  T
speedup  0.83
cpu  time for SCC    0.00 s
wall time for SCC    0.00 s

   *** convergence criteria satisfied after 3 iterations ***

          eigenvalues
 #    :          24         25         26         27         28         29         30         31
 occ. :        2.000      2.000      2.000      2.000      2.000      2.000      2.000      2.000
 eps  :       -13.905    -13.711    -13.241    -12.645    -12.418    -12.395    -12.309    -12.252
 #    :          32         33         34         35         36         37         38         39
 occ. :        2.000      2.000      2.000      2.000      2.000      0.000      0.000      0.000
 eps  :       -12.140    -12.102    -11.993    -11.937    -11.911     -2.345     -0.863     -0.280
 #    :          40         41         42         43         44         45         46         47
 occ. :        0.000      0.000      0.000      0.000      0.000      0.000      0.000      0.000
 eps  :         0.754      0.980      1.617      1.988      3.081      4.082      4.531      5.267


   #   Z            q   n(s)   n(p)   n(d)      C6AA      α(0)
   1  16 S      1.697  1.589  1.776  0.938    88.847    15.864
   2   8 O     -0.609  1.757  4.852  0.000    25.371     6.800
   3   8 O     -0.734  1.761  4.973  0.000    29.642     7.300
   4   8 O     -0.764  1.775  4.989  0.000    30.516     7.406
   5   8 O     -0.773  1.778  4.994  0.000    30.763     7.436
   6   8 O     -0.609  1.741  4.868  0.000    25.414     6.804
   7   1 H      0.315  0.685  0.000  0.000     0.678     1.293
   8   1 H      0.295  0.705  0.000  0.000     0.736     1.347
   9   8 O     -0.610  1.760  4.851  0.000    25.426     6.806
  10   1 H      0.332  0.668  0.000  0.000     0.633     1.250
  11   1 H      0.333  0.667  0.000  0.000     0.631     1.248
  12   8 O     -0.610  1.743  4.868  0.000    25.438     6.807
  13   1 H      0.315  0.685  0.000  0.000     0.678     1.293
  14   1 H      0.296  0.704  0.000  0.000     0.733     1.344
  15   8 O     -0.608  1.748  4.860  0.000    25.373     6.798
  16   1 H      0.294  0.706  0.000  0.000     0.739     1.350
  17   1 H      0.320  0.680  0.000  0.000     0.665     1.281
  18   1 H      0.374  0.626  0.000  0.000     0.529     1.140
  19   7 N     -0.353  1.275  4.079  0.000    29.078     8.009
  20   1 H      0.283  0.717  0.000  0.000     0.766     1.371
  21   1 H      0.233  0.767  0.000  0.000     0.952     1.529
  22   1 H      0.274  0.726  0.000  0.000     0.796     1.398
  23   1 H      0.310  0.690  0.000  0.000     0.684     1.295

 Mol. C6AA /au·bohr⁶  :       4507.971026
 Mol. C8AA /au·bohr⁸  :      99247.904276
 Mol. α(0) /au        :         97.170047

 
 Wiberg/Mayer (AO) data. WBOs > 0.1 written file <wbo>
 largest (>0.05) Wiberg bond orders for each atom
           total WBO             WBO to atom ...
     1  S   4.820    O    3 1.317    O    4 1.267    O    5 1.257    O    2 0.943
     2  O   1.972    S    1 0.943    H   18 0.774    O    5 0.080    O    4 0.077    O    3 0.065
     3  O   1.740    S    1 1.317    O    4 0.110    O    5 0.103    H   20 0.087    O    2 0.065
     4  O   1.707    S    1 1.267    O    3 0.110    O    5 0.106    O    2 0.077    H   13 0.051
     5  O   1.700    S    1 1.257    O    4 0.106    O    3 0.103    O    2 0.080    H   17 0.053
     6  O   1.871    H    8 0.905    H    7 0.847    H   10 0.060
     7  H   0.901    O    6 0.847
     8  H   0.913    O    6 0.905
     9  O   1.983    H   10 0.827    H   11 0.827    H   23 0.184    N   19 0.081
    10  H   0.890    O    9 0.827    O    6 0.060
    11  H   0.889    O    9 0.827    O   12 0.061
    12  O   1.872    H   14 0.906    H   13 0.845    H   11 0.061
    13  H   0.901    O   12 0.845    O    4 0.051
    14  H   0.912    O   12 0.906
    15  O   1.875    H   16 0.911    H   17 0.841    H   18 0.067
    16  H   0.913    O   15 0.911
    17  H   0.898    O   15 0.841    O    5 0.053
    18  H   0.860    O    2 0.774    O   15 0.067
    19  N   3.508    H   21 0.941    H   22 0.868    H   20 0.825    H   23 0.716    O    9 0.081
    20  H   0.920    N   19 0.825    O    3 0.087
    21  H   0.946    N   19 0.941
    22  H   0.925    N   19 0.868
    23  H   0.904    N   19 0.716    O    9 0.184
 MOs/occ written to file <molden.input>
 
molecular dipole:
                 x           y           z       tot (Debye)
 q only:       -0.530      -0.967       1.082
   full:       -0.841      -0.106       0.631       2.687
molecular quadrupole (traceless):
                xx          xy          yy          xz          yz          zz
 q only:       -5.945      10.229       5.692      -8.583     -12.364       0.253
  q+dip:       -5.814      12.533       6.976     -11.082     -12.530      -1.162
   full:       -6.042      12.467       6.954     -11.032     -12.980      -0.912

SCC energy    :     -45.6334722
rep           :       0.2563824
ES            :       0.2357632
AES           :      -0.0702187
AXC           :      -0.0084156
disp          :      -0.0176879
XB            :       0.0000000
fix           :       0.0000000
total E       :     -45.3769384
atomizationE  :       4.4600009     2798.69
(atE without considering molecular charge,
 total energy contains solvation terms)
H-L gap (eV)  :          9.5664
optimized geometry written to: xtbopt.xyz


------------------------------------------------------------------------
 * finished run on 2019/09/16 at 11:32:56.216     
------------------------------------------------------------------------
 total:
 * wall-time:     0 d,  0 h,  0 min,  1.717 sec
 *  cpu-time:     0 d,  0 h,  0 min,  1.463 sec
 * ratio c/w:     0.852 speedup
 SCF:
 * wall-time:     0 d,  0 h,  0 min,  0.347 sec
 *  cpu-time:     0 d,  0 h,  0 min,  0.123 sec
 * ratio c/w:     0.355 speedup
 ANC optimizer:
 * wall-time:     0 d,  0 h,  0 min,  1.345 sec
 *  cpu-time:     0 d,  0 h,  0 min,  1.318 sec
 * ratio c/w:     0.980 speedup

