      -----------------------------------------------------------      
     |                   =====================                   |     
     |                           x T B                           |     
     |                   =====================                   |     
     |                         S. Grimme                         |     
     |          Mulliken Center for Theoretical Chemistry        |     
     |                    University of Bonn                     |     
     |                 Version 6.0.1 (SAW181210)                 |     
      -----------------------------------------------------------      

   This program is distributed in the hope that it will be useful,
   but WITHOUT ANY WARRANTY; without even the implied warranty of
   MERCHANTABILITY or FITNESS FOR A PARTICULAR PURPOSE.
   
   FOR NON-COMMERCIAL, ACADEMIA USE ONLY.
   
   Cite this work as:
   S. Grimme, C. Bannwarth, P. Shushkov, J. Comput. Theory Chem., 2017,
   13, 1989-2009.
   C. Bannwarth, S. Ehlert and S. Grimme., ChemRxiv, 2018, preprint.
   http://doi.org/10.26434/chemrxiv.7246238.v1
   
   for sTDA-xTB:
   S. Grimme and C. Bannwarth, J. Chem. Phys., 2016, 145, 054103.
   
   in the mass-spec context:
   V. Asgeirsson, C. Bauer and S. Grimme, Chem. Sci., 2017, 8, 4879.
   
   if GBSA is used:
   P. Shushkov, F. März and S. Grimme, unpublished.
   
   for ANC optimizer:
   S. Grimme, unpublished.
   Rational Function algorithm used in ANCopt:
   F. Eckert, P. Pulay, H.-J. Werner, J. Comput. Chem., 1997, 18, 1473.
   
   with help from (in alphabetical order)
   C. Bannwarth, F. Bohle, G. Brandenburg, E. Caldeweyher, M. Checinski,
   S. Dohm, S. Ehlert, S. Ehrlich, F. März, H. Neugebauer, J. Pisarek,
   P. Pracht, P. Shushkov, and S. Spicher.
   
 * started run on 2019/09/16 at 11:43:58.145     
========================================================================
 # omp threads = 1
========================================================================
number of atoms            : 23
number of electrons        : 72
charge                     : 0
spin                       : .0
first test random number   : .6875

########################################################################
# WARNING! Please study the warnings concerning your input carefully
#  - XTBPATH is not set, using XTBHOME instead
#  - the use of '-opt' is discouraged, please use '--opt' next time
#  - the use of '-chrg' is discouraged, please use '--chrg' next time
#  - the use of '-uhf' is discouraged, please use '--uhf' next time
########################################################################

           ------------------------------------------------- 
          |                 G F N 2 - x T B                 |
          | Geometry, Frequencies, Noncovalent interactions |
          |            JCTC 2018 parametrisation            |
           ------------------------------------------------- 
      method parameters     
 k(s)        :  1.8500
 k(p)        :  2.2300
 k(d)        :  2.2300
 k(f)        :  2.0000
 kEN (H0ij)  : -2.0000
 D4 a1       :  0.5200
 D4 a2       :  5.0000
 D4 s6       :  1.0000
 D4 s8       :  2.7000
 D4 s9       :  5.0000
 alphaj      :  2.0000


            Z     q(EN)     CN     RAES       Cart. coordinates
     1  S   6.0    0.68    4.10    3.86     0.04956     0.94635    -1.57334
     2  O   6.0   -0.30    1.18    1.80    -0.94165     3.57782    -1.71834
     3  O   6.0   -0.31    1.17    1.80    -1.66595    -0.78200    -2.98684
     4  O   6.0   -0.31    1.25    1.80     2.62402     0.84922    -2.70948
     5  O   6.0   -0.35    1.31    1.80     0.18181     0.14037     1.12129
     6  O   6.0   -0.27    1.95    1.82    -0.95091    -1.80648     5.80321
     7  H   1.0    0.16    1.01    1.43    -0.82476    -0.58920     4.45527
     8  H   1.0    0.16    0.99    1.43    -1.80395    -3.24182     5.07744
     9  O   6.0   -0.29    2.06    1.83     4.13296    -1.04420     4.02123
    10  H   1.0    0.17    1.05    1.44     2.59514    -0.64792     3.13090
    11  H   1.0    0.16    0.97    1.43     3.59991    -1.72712     5.62250
    12  O   6.0   -0.27    1.96    1.82    -2.52423    -4.25615     1.38667
    13  H   1.0    0.16    0.97    1.43    -2.93578    -4.61614    -0.34989
    14  H   1.0    0.17    1.06    1.44    -1.54929    -2.71923     1.34177
    15  O   6.0   -0.22    2.88    2.50     6.55859     0.31331     0.02540
    16  H   1.0    0.12    0.96    1.43     7.34669     1.98666     0.28741
    17  H   1.0    0.14    1.06    1.44     5.91826    -0.41689     1.62127
    18  H   1.0    0.16    1.09    1.44     5.24176     0.36031    -1.29946
    19  N   5.0   -0.14    3.94    2.72    -5.01044     2.73462    -4.65139
    20  H   1.0    0.11    1.05    1.44    -3.81642     3.87323    -3.62071
    21  H   1.0    0.11    1.03    1.43    -4.37961     0.89596    -4.57493
    22  H   1.0    0.08    0.99    1.43    -6.80526     2.83584    -3.90788
    23  H   1.0    0.08    0.99    1.43    -5.04046     3.33344    -6.50206

  Z AO/shell   Hii/eV     exponent
  1     Wed Apr 25 08:07:45 CEST 2018   EN: 2.200 GM2: 0.406  GM3: 0.0800  RAES: 1.40
     1s    -10.707211    1.230000
  7     Wed Apr 25 08:07:45 CEST 2018   EN: 3.040 GM2: 0.461  GM3:-0.0640  RAES: 1.90
     2s    -16.686243    2.339881
     2p    -12.523956    2.014332
  8     Wed Apr 25 08:07:45 CEST 2018   EN: 3.440 GM2: 0.452  GM3:-0.0517  RAES: 1.80
     2s    -20.229985    2.439742
     2p    -15.503117    2.137023
 16     Tue Apr 24 11:44:34 CEST 2018   EN: 2.580 GM2: 0.340  GM3:-0.0502  RAES: 3.10
     3s    -20.029654    1.981333
     3p    -11.377694    2.025643
     3d     -0.420282    1.702555
 no old-style atom pair restraining (fixing) potential

molecular fragmentation (1/2 indicates fragments):
11111222222222222222222
# atoms in fragment 1/2:     5    18
 fragment masses (1/2) :       96.06       91.11
CMA distance (Bohr)    :   3.355
constraining FC (au)   :  0.0500
           ------------------------------------------------- 
          |        Self-Consistent Charge Iterations        |
           ------------------------------------------------- 

 Ncao       : 59
 Nao        : 58
 Nshell     : 34
 Nel        : 72
 T(el)      :   300.0
 intcut     :    25.0
 scfconv/Eh :  0.100E-05
   qconv/e  :  0.100E-03
 intneglect :  0.100E-07
 broydamp   :      0.250
 iter      E             dE          RMSdq      gap      omega  full diag
   1    -45.4624896 -0.454625E+02  0.715E+00   10.30       0.0  T
   2    -45.5007093 -0.382198E-01  0.515E+00    9.88       1.0  T
   3    -45.5336907 -0.329813E-01  0.113E+00    7.33       1.0  T
   4    -45.5372831 -0.359240E-02  0.555E-01    7.34       1.0  T
   5    -45.5380595 -0.776456E-03  0.231E-01    7.22       1.0  T
   6    -45.5382675 -0.207934E-03  0.126E-01    7.26       1.0  T
   7    -45.5383511 -0.836046E-04  0.448E-02    7.32       1.0  T
   8    -45.5383585 -0.741029E-05  0.256E-02    7.32       1.0  T
   9    -45.5383620 -0.353114E-05  0.785E-03    7.32       2.7  T
  10    -45.5383622 -0.206608E-06  0.169E-03    7.31      12.3  T
  11    -45.5383622 -0.141519E-07  0.837E-04    7.31      24.9  T
  12    -45.5383622 -0.327034E-08  0.345E-04    7.31      60.5  T
speedup  0.93
cpu  time for SCC    0.01 s
wall time for SCC    0.01 s

   *** convergence criteria satisfied after 12 iterations ***

          eigenvalues
 #    :          24         25         26         27         28         29         30         31
 occ. :        2.000      2.000      2.000      2.000      2.000      2.000      2.000      2.000
 eps  :       -11.984    -11.933    -11.666    -10.697    -10.482    -10.428    -10.372    -10.005
 #    :          32         33         34         35         36         37         38         39
 occ. :        2.000      2.000      2.000      2.000      2.000      0.000      0.000      0.000
 eps  :        -9.845     -9.781     -9.627     -9.529     -9.449     -2.135     -1.726      0.239
 #    :          40         41         42         43         44         45         46         47
 occ. :        0.000      0.000      0.000      0.000      0.000      0.000      0.000      0.000
 eps  :         2.055      2.342      2.513      2.730      3.051      3.676      3.803      4.760


   #   Z            q   n(s)   n(p)   n(d)      C6AA      α(0)
   1  16 S      1.479  1.606  1.910  1.005    93.955    16.314
   2   8 O     -0.791  1.780  5.011  0.000    31.304     7.501
   3   8 O     -0.792  1.778  5.014  0.000    31.353     7.507
   4   8 O     -0.785  1.773  5.012  0.000    31.133     7.481
   5   8 O     -0.796  1.777  5.019  0.000    31.461     7.520
   6   8 O     -0.621  1.744  4.877  0.000    25.697     6.842
   7   1 H      0.307  0.693  0.000  0.000     0.702     1.316
   8   1 H      0.301  0.699  0.000  0.000     0.719     1.332
   9   8 O     -0.645  1.727  4.917  0.000    26.278     6.919
  10   1 H      0.342  0.658  0.000  0.000     0.608     1.225
  11   1 H      0.314  0.686  0.000  0.000     0.681     1.296
  12   8 O     -0.627  1.742  4.886  0.000    25.851     6.862
  13   1 H      0.273  0.727  0.000  0.000     0.808     1.412
  14   1 H      0.318  0.682  0.000  0.000     0.668     1.284
  15   8 O     -0.396  1.641  4.754  0.000    20.709     6.146
  16   1 H      0.376  0.624  0.000  0.000     0.532     1.146
  17   1 H      0.427  0.573  0.000  0.000     0.438     1.039
  18   1 H      0.423  0.577  0.000  0.000     0.444     1.047
  19   7 N     -0.252  1.237  4.016  0.000    26.543     7.652
  20   1 H      0.319  0.681  0.000  0.000     0.660     1.273
  21   1 H      0.315  0.685  0.000  0.000     0.669     1.282
  22   1 H      0.257  0.743  0.000  0.000     0.858     1.451
  23   1 H      0.255  0.745  0.000  0.000     0.866     1.458

 Mol. C6AA /au·bohr⁶  :       4528.060199
 Mol. C8AA /au·bohr⁸  :     100293.785028
 Mol. α(0) /au        :         97.304534

 
 Wiberg/Mayer (AO) data. WBOs > 0.1 written file <wbo>
 largest (>0.05) Wiberg bond orders for each atom
           total WBO             WBO to atom ...
     1  S   5.022    O    3 1.268    O    2 1.265    O    4 1.230    O    5 1.218
     2  O   1.660    S    1 1.265    O    3 0.105    O    4 0.090    O    5 0.089    H   20 0.069
     3  O   1.654    S    1 1.268    O    2 0.105    O    5 0.090    O    4 0.088    H   21 0.057
     4  O   1.690    S    1 1.230    H   18 0.135    O    5 0.094    O    2 0.090    O    3 0.088
     5  O   1.675    S    1 1.218    O    4 0.094    O    3 0.090    O    2 0.089    H   10 0.058
     6  O   1.818    H    8 0.896    H    7 0.873
     7  H   0.906    O    6 0.873
     8  H   0.910    O    6 0.896
     9  O   1.847    H   11 0.878    H   10 0.814    H   17 0.087
    10  H   0.883    O    9 0.814    O    5 0.058
    11  H   0.901    O    9 0.878
    12  O   1.803    H   13 0.917    H   14 0.843
    13  H   0.925    O   12 0.917
    14  H   0.899    O   12 0.843
    15  O   2.338    H   16 0.853    H   17 0.721    H   18 0.676
    16  H   0.859    O   15 0.853
    17  H   0.818    O   15 0.721    O    9 0.087
    18  H   0.821    O   15 0.676    O    4 0.135
    19  N   3.587    H   23 0.930    H   22 0.929    H   21 0.836    H   20 0.822
    20  H   0.898    N   19 0.822    O    2 0.069
    21  H   0.900    N   19 0.836    O    3 0.057
    22  H   0.934    N   19 0.929
    23  H   0.935    N   19 0.930
 MOs/occ written to file <molden.input>
 
molecular dipole:
                 x           y           z       tot (Debye)
 q only:       -0.082       1.834      -2.218
   full:       -0.427       2.027      -2.537       8.325
molecular quadrupole (traceless):
                xx          xy          yy          xz          yz          zz
 q only:       37.988     -11.972     -23.765      32.724      -8.997     -14.223
  q+dip:       36.547     -10.812     -21.966      33.899      -7.739     -14.581
   full:       36.262     -10.429     -22.010      34.052      -7.957     -14.251

SCC energy    :     -45.5383622
rep           :       0.2625614
ES            :       0.3627011
AES           :      -0.0739616
AXC           :      -0.0093408
disp          :      -0.0152907
XB            :       0.0000000
fix           :       0.0000000
total E       :     -45.2757067
atomizationE  :       4.3587692     2735.17
(atE without considering molecular charge,
 total energy contains solvation terms)
H-L gap (eV)  :          7.3142
           ------------------------------------------------- 
          |                 ===============                 |
          |                   A N C O P T                   |
          |                 ===============                 |
          |          Approximate Normal Coordinate          |
          |           Rational Function Optimizer           |
           ------------------------------------------------- 
dumping coords to <xtbopt.coord> and <xtbopt.log>
 optlevel               2
 Maxcycle             460
 Maxmicro              25
 Econv         1.000000000000000E-007
 Gconv         2.000000000000000E-004
 Maxdispl       1.00000000000000     
 Hlow          5.000000000000000E-003
 S6             20.0000000000000     
 Nvar               63

generating ANC from model Hessian ...
 Shifting diagonal of input Hessian by   5.531076073304892E-003
 Lowest  eigenvalues of input Hessian
    0.005000    0.005369   -0.000000   -0.000000   -0.000000    0.000000
    0.000000    0.000000    0.005607    0.005787    0.006053    0.006492
    0.006712    0.007240    0.007698    0.008004    0.008422    0.008706
 Highest eigenvalues
    1.435274    1.549207    1.564610    3.081561    3.085411    3.090858
 
cpu  time for ANC gen    0.01 s
wall time for ANC gen    0.01 s
................................................................................
.............................. CYCLE    1 ......................................
................................................................................
   1    -45.5383622 -0.455384E+02  0.675E-05    7.31       0.0  T
   2    -45.5383622 -0.100400E-10  0.529E-05    7.31     394.3  T
   3    -45.5383622 -0.671463E-11  0.317E-05    7.31     658.5  T
speedup  0.83
cpu  time for SCC    0.00 s
wall time for SCC    0.00 s
speedup  0.97
cpu  time for grad    0.01 s
wall time for grad    0.01 s
 E :    -45.27570670  G :  0.127121    pred/act E change:  0.000D+00 -0.120D-08
Maxdispl :   0.3215   ||displ|| :   0.5354   Lambda : -0.293D-01
Largest |displ|/coords:  0.3215 (  19)  0.2384 (  26)  0.1606 (  18)
................................................................................
.............................. CYCLE    2 ......................................
................................................................................
   1    -45.5490785 -0.455491E+02  0.359E-01    7.66       0.0  T
   2    -45.5494773 -0.398779E-03  0.255E-01    7.79       1.0  T
   3    -45.5496430 -0.165670E-03  0.961E-02    8.01       1.0  T
   4    -45.5496619 -0.188620E-04  0.270E-02    8.03       1.0  T
   5    -45.5496627 -0.862291E-06  0.879E-03    8.03       2.4  T
   6    -45.5496628 -0.126633E-06  0.460E-03    8.02       4.5  T
   7    -45.5496629 -0.648467E-07  0.190E-03    8.02      11.0  T
speedup  1.09
cpu  time for SCC    0.01 s
wall time for SCC    0.01 s
speedup  0.98
cpu  time for grad    0.01 s
wall time for grad    0.01 s
 E :    -45.30208829  G :  0.087446    pred/act E change:  0.000D+00 -0.264D-01
Maxdispl :   0.3859   ||displ|| :   0.5871   Lambda : -0.237D-01
Largest |displ|/coords:  0.3859 (  19)  0.2502 (  26)  0.1880 (  18)
................................................................................
.............................. CYCLE    3 ......................................
................................................................................
   1    -45.5596435 -0.455596E+02  0.402E-01    8.35       0.0  T
   2    -45.5604789 -0.835371E-03  0.276E-01    8.46       1.0  T
   3    -45.5607999 -0.321023E-03  0.122E-01    8.60       1.0  T
   4    -45.5608225 -0.225360E-04  0.328E-02    8.64       1.0  T
   5    -45.5608238 -0.133869E-05  0.118E-02    8.64       1.8  T
   6    -45.5608240 -0.239811E-06  0.593E-03    8.63       3.5  T
   7    -45.5608242 -0.116703E-06  0.245E-03    8.63       8.5  T
speedup  0.94
cpu  time for SCC    0.01 s
wall time for SCC    0.01 s
speedup  1.03
cpu  time for grad    0.01 s
wall time for grad    0.01 s
 E :    -45.32197246  G :  0.062237    pred/act E change: -0.188D-01 -0.199D-01
Maxdispl :   0.3348   ||displ|| :   0.5127   Lambda : -0.134D-01
Largest |displ|/coords:  0.3348 (  19)  0.1815 (  18)  0.1546 (  26)
................................................................................
.............................. CYCLE    4 ......................................
................................................................................
   1    -45.5654141 -0.455654E+02  0.375E-01    8.73       0.0  T
   2    -45.5663191 -0.904954E-03  0.254E-01    8.72       1.0  T
   3    -45.5666590 -0.339943E-03  0.120E-01    8.69       1.0  T
   4    -45.5666794 -0.204055E-04  0.321E-02    8.67       1.0  T
   5    -45.5666808 -0.138854E-05  0.117E-02    8.67       1.8  T
   6    -45.5666811 -0.259805E-06  0.588E-03    8.67       3.5  T
   7    -45.5666812 -0.106954E-06  0.227E-03    8.67       9.2  T
speedup  0.96
cpu  time for SCC    0.00 s
wall time for SCC    0.01 s
speedup  0.95
cpu  time for grad    0.01 s
wall time for grad    0.01 s
 E :    -45.33167212  G :  0.050325    pred/act E change: -0.160D-01 -0.970D-02
Maxdispl :   0.1381   ||displ|| :   0.3134   Lambda : -0.489D-02
Largest |displ|/coords:  0.1381 (   6)  0.1011 (  29)  0.0873 (  19)
................................................................................
.............................. CYCLE    5 ......................................
................................................................................
   1    -45.5711786 -0.455712E+02  0.228E-01    8.75       0.0  T
   2    -45.5713474 -0.168721E-03  0.166E-01    8.74       1.0  T
   3    -45.5714215 -0.740936E-04  0.653E-02    8.71       1.0  T
   4    -45.5714296 -0.817583E-05  0.188E-02    8.70       1.1  T
   5    -45.5714304 -0.805699E-06  0.651E-03    8.70       3.2  T
   6    -45.5714305 -0.642046E-07  0.341E-03    8.71       6.1  T
   7    -45.5714305 -0.206379E-07  0.950E-04    8.71      22.0  T
speedup  0.94
cpu  time for SCC    0.00 s
wall time for SCC    0.01 s
speedup  0.94
cpu  time for grad    0.01 s
wall time for grad    0.01 s
 E :    -45.33552276  G :  0.044115    pred/act E change: -0.849D-02 -0.385D-02
Maxdispl :   0.2113   ||displ|| :   0.4959   Lambda : -0.649D-02
Largest |displ|/coords:  0.2113 (   6)  0.1703 (  19)  0.1625 (   2)
................................................................................
.............................. CYCLE    6 ......................................
................................................................................
   1    -45.5785671 -0.455786E+02  0.408E-01    8.91       0.0  T
   2    -45.5790503 -0.483193E-03  0.298E-01    8.87       1.0  T
   3    -45.5792558 -0.205505E-03  0.116E-01    8.80       1.0  T
   4    -45.5792824 -0.265983E-04  0.324E-02    8.79       1.0  T
   5    -45.5792851 -0.278131E-05  0.104E-02    8.79       2.0  T
   6    -45.5792853 -0.200370E-06  0.559E-03    8.79       3.7  T
   7    -45.5792854 -0.542884E-07  0.182E-03    8.80      11.5  T
speedup  0.93
cpu  time for SCC    0.00 s
wall time for SCC    0.01 s
speedup  1.02
cpu  time for grad    0.01 s
wall time for grad    0.01 s
 E :    -45.33950599  G :  0.046852    pred/act E change: -0.269D-02 -0.398D-02
Maxdispl :   0.2770   ||displ|| :   0.6115   Lambda : -0.927D-02
Largest |displ|/coords:  0.2770 (   6)  0.2244 (  11)  0.1698 (   2)
................................................................................
.............................. CYCLE    7 ......................................
................................................................................
   1    -45.6015055 -0.456015E+02  0.720E-01    9.06       0.0  T
   2    -45.6022412 -0.735741E-03  0.539E-01    9.04       1.0  T
   3    -45.6026426 -0.401419E-03  0.165E-01    8.97       1.0  T
   4    -45.6027144 -0.717759E-04  0.434E-02    8.96       1.0  T
   5    -45.6027192 -0.477319E-05  0.156E-02    8.96       1.3  T
   6    -45.6027195 -0.280943E-06  0.851E-03    8.96       2.5  T
   7    -45.6027196 -0.947916E-07  0.198E-03    8.96      10.5  T
   8    -45.6027196 -0.112962E-07  0.745E-04    8.96      28.0  T
speedup  1.00
cpu  time for SCC    0.01 s
wall time for SCC    0.01 s
speedup  0.97
cpu  time for grad    0.01 s
wall time for grad    0.01 s
 E :    -45.33616392  G :  0.109368    pred/act E change: -0.404D-02  0.334D-02
Maxdispl :   0.2021   ||displ|| :   0.5074   Lambda : -0.210D-01
Largest |displ|/coords:  0.2021 (  11)  0.1703 (  19)  0.1491 (  29)
................................................................................
.............................. CYCLE    8 ......................................
................................................................................
   1    -45.5784470 -0.455784E+02  0.683E-01    8.67       0.0  T
   2    -45.5793882 -0.941244E-03  0.505E-01    8.71       1.0  T
   3    -45.5798034 -0.415215E-03  0.169E-01    8.78       1.0  T
   4    -45.5798816 -0.781569E-04  0.462E-02    8.79       1.0  T
   5    -45.5798868 -0.519611E-05  0.137E-02    8.79       1.5  T
   6    -45.5798870 -0.260005E-06  0.913E-03    8.79       2.3  T
   7    -45.5798872 -0.110618E-06  0.194E-03    8.78      10.7  T
   8    -45.5798872 -0.106590E-07  0.771E-04    8.78      27.0  T
speedup  1.00
cpu  time for SCC    0.01 s
wall time for SCC    0.01 s
speedup  0.97
cpu  time for grad    0.01 s
wall time for grad    0.01 s
 E :    -45.34132600  G :  0.052591    pred/act E change: -0.637D-02 -0.516D-02
Maxdispl :   0.1774   ||displ|| :   0.4629   Lambda : -0.109D-01
Largest |displ|/coords:  0.1774 (   8)  0.1586 (   6)  0.1578 (   2)
................................................................................
.............................. CYCLE    9 ......................................
................................................................................
   1    -45.6074359 -0.456074E+02  0.552E-01    9.03       0.0  T
   2    -45.6080284 -0.592464E-03  0.411E-01    8.99       1.0  T
   3    -45.6083654 -0.336988E-03  0.148E-01    8.90       1.0  T
   4    -45.6084110 -0.455882E-04  0.408E-02    8.89       1.0  T
   5    -45.6084146 -0.366103E-05  0.153E-02    8.89       1.4  T
   6    -45.6084148 -0.222077E-06  0.808E-03    8.90       2.6  T
   7    -45.6084149 -0.963156E-07  0.185E-03    8.90      11.3  T
   8    -45.6084149 -0.953463E-08  0.654E-04    8.90      31.9  T
speedup  1.00
cpu  time for SCC    0.01 s
wall time for SCC    0.01 s
speedup  0.98
cpu  time for grad    0.01 s
wall time for grad    0.01 s
 E :    -45.34355833  G :  0.053998    pred/act E change: -0.132D-01 -0.223D-02
Maxdispl :   0.1260   ||displ|| :   0.2941   Lambda : -0.650D-02
Largest |displ|/coords:  0.1260 (  19)  0.0961 (  10)  0.0946 (  30)
................................................................................
.............................. CYCLE   10 ......................................
................................................................................
   1    -45.5920347 -0.455920E+02  0.328E-01    8.71       0.0  T
   2    -45.5922327 -0.197989E-03  0.244E-01    8.73       1.0  T
   3    -45.5923380 -0.105342E-03  0.840E-02    8.79       1.0  T
   4    -45.5923548 -0.168025E-04  0.215E-02    8.79       1.0  T
   5    -45.5923558 -0.991546E-06  0.855E-03    8.79       2.4  T
   6    -45.5923559 -0.100075E-06  0.525E-03    8.79       4.0  T
   7    -45.5923560 -0.335349E-07  0.108E-03    8.79      19.3  T
speedup  0.93
cpu  time for SCC    0.00 s
wall time for SCC    0.01 s
speedup  0.94
cpu  time for grad    0.01 s
wall time for grad    0.01 s
 E :    -45.34493343  G :  0.034244    pred/act E change: -0.659D-02 -0.138D-02
Maxdispl :   0.1067   ||displ|| :   0.2399   Lambda : -0.317D-02
Largest |displ|/coords:  0.1067 (   6)  0.0834 (  30)  0.0751 (  10)
................................................................................
.............................. CYCLE   11 ......................................
................................................................................
   1    -45.5969515 -0.455970E+02  0.242E-01    8.81       0.0  T
   2    -45.5970251 -0.736340E-04  0.182E-01    8.79       1.0  T
   3    -45.5970691 -0.439406E-04  0.550E-02    8.74       1.0  T
   4    -45.5970787 -0.963573E-05  0.153E-02    8.74       1.4  T
   5    -45.5970792 -0.431010E-06  0.694E-03    8.75       3.0  T
   6    -45.5970792 -0.422799E-07  0.330E-03    8.75       6.3  T
   7    -45.5970792 -0.203846E-07  0.748E-04    8.75      27.9  T
speedup  0.94
cpu  time for SCC    0.00 s
wall time for SCC    0.01 s
speedup  0.95
cpu  time for grad    0.01 s
wall time for grad    0.01 s
 E :    -45.34669454  G :  0.029590    pred/act E change: -0.353D-02 -0.176D-02
Maxdispl :   0.1894   ||displ|| :   0.3651   Lambda : -0.278D-02
Largest |displ|/coords:  0.1894 (   6)  0.1794 (   2)  0.0948 (   8)
................................................................................
.............................. CYCLE   12 ......................................
................................................................................
   1    -45.6112730 -0.456113E+02  0.270E-01    8.79       0.0  T
   2    -45.6113711 -0.981151E-04  0.202E-01    8.78       1.0  T
   3    -45.6114303 -0.591706E-04  0.628E-02    8.75       1.0  T
   4    -45.6114401 -0.984208E-05  0.196E-02    8.75       1.1  T
   5    -45.6114410 -0.844374E-06  0.678E-03    8.75       3.1  T
   6    -45.6114410 -0.402551E-07  0.372E-03    8.75       5.6  T
   7    -45.6114410 -0.186286E-07  0.115E-03    8.75      18.1  T
speedup  0.94
cpu  time for SCC    0.00 s
wall time for SCC    0.01 s
speedup  0.95
cpu  time for grad    0.01 s
wall time for grad    0.01 s
 E :    -45.34737360  G :  0.029668    pred/act E change: -0.167D-02 -0.679D-03
Maxdispl :   0.0938   ||displ|| :   0.2375   Lambda : -0.218D-02
Largest |displ|/coords:  0.0938 (   6)  0.0720 (   3)  0.0705 (  19)
................................................................................
.............................. CYCLE   13 ......................................
................................................................................
   1    -45.6070790 -0.456071E+02  0.222E-01    8.66       0.0  T
   2    -45.6070957 -0.167162E-04  0.169E-01    8.65       1.0  T
   3    -45.6071105 -0.148046E-04  0.247E-02    8.64       1.0  T
   4    -45.6071124 -0.187095E-05  0.100E-02    8.65       2.1  T
   5    -45.6071125 -0.141208E-06  0.303E-03    8.65       6.9  T
   6    -45.6071126 -0.941655E-08  0.172E-03    8.65      12.1  T
speedup  0.89
cpu  time for SCC    0.00 s
wall time for SCC    0.00 s
speedup  1.02
cpu  time for grad    0.01 s
wall time for grad    0.01 s
 E :    -45.34828790  G :  0.023170    pred/act E change: -0.158D-02 -0.914D-03
Maxdispl :   0.1389   ||displ|| :   0.3233   Lambda : -0.194D-02
Largest |displ|/coords:  0.1389 (  17)  0.1374 (   4)  0.1340 (   6)
................................................................................
.............................. CYCLE   14 ......................................
................................................................................
   1    -45.5986615 -0.455987E+02  0.396E-01    8.51       0.0  T
   2    -45.5987078 -0.462784E-04  0.301E-01    8.54       1.0  T
   3    -45.5987415 -0.337108E-04  0.388E-02    8.59       1.0  T
   4    -45.5987487 -0.718782E-05  0.105E-02    8.58       2.0  T
   5    -45.5987489 -0.187453E-06  0.437E-03    8.58       4.8  T
   6    -45.5987489 -0.201977E-07  0.203E-03    8.57      10.2  T
speedup  1.09
cpu  time for SCC    0.01 s
wall time for SCC    0.00 s
speedup  0.99
cpu  time for grad    0.01 s
wall time for grad    0.01 s
 E :    -45.34831848  G :  0.035610    pred/act E change: -0.115D-02 -0.306D-04
Maxdispl :   0.1181   ||displ|| :   0.1914   Lambda : -0.206D-02
Largest |displ|/coords:  0.1181 (  17)  0.0879 (   1)  0.0525 (  16)
................................................................................
.............................. CYCLE   15 ......................................
................................................................................
   1    -45.6067708 -0.456068E+02  0.259E-01    8.62       0.0  T
   2    -45.6067970 -0.261371E-04  0.196E-01    8.60       1.0  T
   3    -45.6068167 -0.196815E-04  0.318E-02    8.55       1.0  T
   4    -45.6068204 -0.378706E-05  0.808E-03    8.57       2.6  T
   5    -45.6068206 -0.121222E-06  0.368E-03    8.58       5.7  T
   6    -45.6068206 -0.956014E-08  0.172E-03    8.58      12.1  T
speedup  0.89
cpu  time for SCC    0.00 s
wall time for SCC    0.00 s
speedup  1.02
cpu  time for grad    0.01 s
wall time for grad    0.01 s
 E :    -45.34921187  G :  0.013718    pred/act E change: -0.107D-02 -0.893D-03
Maxdispl :   0.1181   ||displ|| :   0.2023   Lambda : -0.680D-03
Largest |displ|/coords:  0.1181 (   4)  0.0849 (   2)  0.0603 (  22)
................................................................................
.............................. CYCLE   16 ......................................
................................................................................
   1    -45.6093452 -0.456093E+02  0.182E-01    8.52       0.0  T
   2    -45.6093575 -0.123580E-04  0.137E-01    8.52       1.0  T
   3    -45.6093650 -0.749193E-05  0.221E-02    8.53       1.0  T
   4    -45.6093668 -0.177681E-05  0.614E-03    8.52       3.4  T
   5    -45.6093669 -0.724914E-07  0.211E-03    8.52       9.9  T
   6    -45.6093669 -0.298179E-08  0.123E-03    8.52      16.9  T
speedup  1.11
cpu  time for SCC    0.00 s
wall time for SCC    0.00 s
speedup  1.02
cpu  time for grad    0.01 s
wall time for grad    0.01 s
 E :    -45.34939656  G :  0.012883    pred/act E change: -0.107D-02 -0.185D-03
Maxdispl :   0.1304   ||displ|| :   0.2179   Lambda : -0.533D-03
Largest |displ|/coords:  0.1304 (   6)  0.0700 (   4)  0.0644 (  16)
................................................................................
.............................. CYCLE   17 ......................................
................................................................................
   1    -45.6084871 -0.456085E+02  0.194E-01    8.50       0.0  T
   2    -45.6084944 -0.723868E-05  0.147E-01    8.50       1.0  T
   3    -45.6085005 -0.609242E-05  0.171E-02    8.51       1.2  T
   4    -45.6085014 -0.919889E-06  0.517E-03    8.51       4.0  T
   5    -45.6085014 -0.258509E-07  0.158E-03    8.51      13.2  T
   6    -45.6085014 -0.291610E-08  0.861E-04    8.51      24.2  T
speedup  1.11
cpu  time for SCC    0.00 s
wall time for SCC    0.00 s
speedup  1.02
cpu  time for grad    0.01 s
wall time for grad    0.01 s
 E :    -45.34965823  G :  0.010771    pred/act E change: -0.354D-03 -0.262D-03
Maxdispl :   0.1701   ||displ|| :   0.2737   Lambda : -0.596D-03
Largest |displ|/coords:  0.1701 (   4)  0.0975 (   6)  0.0734 (  10)
................................................................................
.............................. CYCLE   18 ......................................
................................................................................
   1    -45.6070199 -0.456070E+02  0.225E-01    8.52       0.0  T
   2    -45.6070292 -0.935868E-05  0.170E-01    8.52       1.0  T
   3    -45.6070386 -0.933550E-05  0.230E-02    8.51       1.0  T
   4    -45.6070394 -0.841283E-06  0.649E-03    8.52       3.2  T
   5    -45.6070395 -0.488637E-07  0.243E-03    8.52       8.6  T
   6    -45.6070395 -0.504571E-08  0.141E-03    8.52      14.8  T
speedup  0.87
cpu  time for SCC    0.00 s
wall time for SCC    0.00 s
speedup  1.01
cpu  time for grad    0.01 s
wall time for grad    0.01 s
 E :    -45.34971179  G :  0.019555    pred/act E change: -0.279D-03 -0.536D-04
Maxdispl :   0.0577   ||displ|| :   0.1203   Lambda : -0.553D-03
Largest |displ|/coords:  0.0577 (  12)  0.0545 (   4)  0.0381 (   5)
................................................................................
.............................. CYCLE   19 ......................................
................................................................................
   1    -45.6095019 -0.456095E+02  0.110E-01    8.52       0.0  T
   2    -45.6095062 -0.423376E-05  0.825E-02    8.53       1.0  T
   3    -45.6095087 -0.253464E-05  0.132E-02    8.55       1.6  T
   4    -45.6095093 -0.620373E-06  0.381E-03    8.54       5.5  T
   5    -45.6095093 -0.224752E-07  0.116E-03    8.54      17.9  T
   6    -45.6095093 -0.509047E-09  0.641E-04    8.54      32.5  T
speedup  1.09
cpu  time for SCC    0.01 s
wall time for SCC    0.00 s
speedup  1.01
cpu  time for grad    0.01 s
wall time for grad    0.01 s
 E :    -45.34999632  G :  0.011154    pred/act E change: -0.320D-03 -0.285D-03
Maxdispl :   0.0995   ||displ|| :   0.1971   Lambda : -0.320D-03
Largest |displ|/coords:  0.0995 (   4)  0.0876 (   6)  0.0749 (   2)
................................................................................
.............................. CYCLE   20 ......................................
................................................................................
   1    -45.6086756 -0.456087E+02  0.117E-01    8.53       0.0  T
   2    -45.6086793 -0.374061E-05  0.868E-02    8.53       1.0  T
   3    -45.6086815 -0.216831E-05  0.143E-02    8.54       1.5  T
   4    -45.6086820 -0.508776E-06  0.383E-03    8.54       5.4  T
   5    -45.6086820 -0.261903E-07  0.118E-03    8.54      17.7  T
   6    -45.6086820 -0.144887E-08  0.668E-04    8.54      31.2  T
speedup  0.89
cpu  time for SCC    0.00 s
wall time for SCC    0.00 s
speedup  0.93
cpu  time for grad    0.01 s
wall time for grad    0.01 s
 E :    -45.35013415  G :  0.009402    pred/act E change: -0.280D-03 -0.138D-03
Maxdispl :   0.1176   ||displ|| :   0.2145   Lambda : -0.295D-03
Largest |displ|/coords:  0.1176 (   4)  0.0779 (   6)  0.0740 (   1)
................................................................................
.............................. CYCLE   21 ......................................
................................................................................
   1    -45.6088239 -0.456088E+02  0.115E-01    8.56       0.0  T
   2    -45.6088282 -0.426809E-05  0.847E-02    8.56       1.0  T
   3    -45.6088303 -0.208520E-05  0.160E-02    8.56       1.3  T
   4    -45.6088309 -0.644320E-06  0.407E-03    8.56       5.1  T
   5    -45.6088310 -0.193749E-07  0.114E-03    8.56      18.3  T
   6    -45.6088310 -0.211986E-08  0.609E-04    8.56      34.3  T
speedup  0.89
cpu  time for SCC    0.00 s
wall time for SCC    0.00 s
speedup  1.02
cpu  time for grad    0.01 s
wall time for grad    0.01 s
 E :    -45.35033004  G :  0.006706    pred/act E change: -0.166D-03 -0.196D-03
Maxdispl :   0.2493   ||displ|| :   0.3937   Lambda : -0.529D-03
Largest |displ|/coords:  0.2493 (   4)  0.1187 (   6)  0.1062 (   2)
................................................................................
.............................. CYCLE   22 ......................................
................................................................................
   1    -45.6092399 -0.456092E+02  0.201E-01    8.66       0.0  T
   2    -45.6092478 -0.787531E-05  0.150E-01    8.67       1.0  T
   3    -45.6092548 -0.706892E-05  0.218E-02    8.70       1.0  T
   4    -45.6092557 -0.888158E-06  0.605E-03    8.69       3.4  T
   5    -45.6092558 -0.503855E-07  0.233E-03    8.69       9.0  T
   6    -45.6092558 -0.633392E-08  0.130E-03    8.69      16.0  T
speedup  1.11
cpu  time for SCC    0.00 s
wall time for SCC    0.00 s
speedup  1.00
cpu  time for grad    0.01 s
wall time for grad    0.01 s
 E :    -45.35066506  G :  0.009740    pred/act E change: -0.154D-03 -0.335D-03
Maxdispl :   0.1812   ||displ|| :   0.3933   Lambda : -0.414D-03
Largest |displ|/coords:  0.1812 (   2)  0.1752 (   4)  0.1544 (   6)
................................................................................
.............................. CYCLE   23 ......................................
................................................................................
   1    -45.6083561 -0.456084E+02  0.171E-01    8.72       0.0  T
   2    -45.6083604 -0.431039E-05  0.128E-01    8.73       1.0  T
   3    -45.6083631 -0.269688E-05  0.178E-02    8.76       1.2  T
   4    -45.6083637 -0.648439E-06  0.492E-03    8.75       4.2  T
   5    -45.6083638 -0.296761E-07  0.162E-03    8.75      12.9  T
   6    -45.6083638 -0.148444E-08  0.900E-04    8.75      23.2  T
speedup  0.87
cpu  time for SCC    0.00 s
wall time for SCC    0.00 s
speedup  0.92
cpu  time for grad    0.01 s
wall time for grad    0.01 s
 E :    -45.35094430  G :  0.014569    pred/act E change: -0.305D-03 -0.279D-03
Maxdispl :   0.2113   ||displ|| :   0.5283   Lambda : -0.824D-03
Largest |displ|/coords:  0.2113 (   4)  0.2097 (   6)  0.1934 (   2)
................................................................................
.............................. CYCLE   24 ......................................
................................................................................
   1    -45.6093514 -0.456094E+02  0.219E-01    8.83       0.0  T
   2    -45.6093613 -0.992798E-05  0.163E-01    8.84       1.0  T
   3    -45.6093667 -0.538420E-05  0.275E-02    8.86       1.0  T
   4    -45.6093681 -0.147106E-05  0.771E-03    8.86       2.7  T
   5    -45.6093682 -0.722822E-07  0.226E-03    8.86       9.2  T
   6    -45.6093682 -0.299773E-08  0.130E-03    8.86      16.0  T
speedup  1.11
cpu  time for SCC    0.01 s
wall time for SCC    0.00 s
speedup  1.01
cpu  time for grad    0.01 s
wall time for grad    0.01 s
 E :    -45.35138345  G :  0.012598    pred/act E change: -0.239D-03 -0.439D-03
Maxdispl :   0.1792   ||displ|| :   0.4115   Lambda : -0.559D-03
Largest |displ|/coords:  0.1792 (   4)  0.1509 (   6)  0.1469 (   2)
................................................................................
.............................. CYCLE   25 ......................................
................................................................................
   1    -45.6049073 -0.456049E+02  0.213E-01    8.83       0.0  T
   2    -45.6049165 -0.922791E-05  0.158E-01    8.84       1.0  T
   3    -45.6049211 -0.461515E-05  0.242E-02    8.88       1.0  T
   4    -45.6049226 -0.148628E-05  0.627E-03    8.87       3.3  T
   5    -45.6049227 -0.700655E-07  0.222E-03    8.87       9.4  T
   6    -45.6049227 -0.305187E-08  0.125E-03    8.87      16.7  T
speedup  1.09
cpu  time for SCC    0.01 s
wall time for SCC    0.00 s
speedup  1.01
cpu  time for grad    0.01 s
wall time for grad    0.01 s
 E :    -45.35166524  G :  0.018459    pred/act E change: -0.527D-03 -0.282D-03
Maxdispl :   0.0951   ||displ|| :   0.2649   Lambda : -0.921D-03
Largest |displ|/coords:  0.0951 (  28)  0.0774 (   5)  0.0742 (  23)

generating ANC from model Hessian ...
 Shifting diagonal of input Hessian by   4.961236963697856E-003
 Lowest  eigenvalues of input Hessian
   -0.000000   -0.000000   -0.000000   -0.000000    0.000000    0.000000
    0.005000    0.005021    0.005687    0.006189    0.006221    0.006758
    0.007137    0.007289    0.007556    0.008168    0.008886    0.009112
 Highest eigenvalues
    1.403319    1.446932    1.478309    2.784574    3.340070    3.591448
 
cpu  time for ANC gen    0.01 s
wall time for ANC gen    0.01 s
................................................................................
.............................. CYCLE   26 ......................................
................................................................................
   1    -45.6131758 -0.456132E+02  0.171E-01    8.89       0.0  T
   2    -45.6132012 -0.253625E-04  0.128E-01    8.89       1.0  T
   3    -45.6132116 -0.103454E-04  0.338E-02    8.89       1.0  T
   4    -45.6132149 -0.331510E-05  0.992E-03    8.90       2.1  T
   5    -45.6132150 -0.177195E-06  0.290E-03    8.90       7.2  T
   6    -45.6132151 -0.988126E-08  0.157E-03    8.90      13.3  T
   7    -45.6132151 -0.296510E-08  0.513E-04    8.90      40.6  T
   8    -45.6132151 -0.601212E-09  0.124E-04    8.90     167.6  T
speedup  1.00
cpu  time for SCC    0.01 s
wall time for SCC    0.01 s
speedup  1.01
cpu  time for grad    0.01 s
wall time for grad    0.01 s
 E :    -45.35153056  G :  0.025059    pred/act E change:  0.000D+00  0.135D-03
Maxdispl :   0.1110   ||displ|| :   0.2574   Lambda : -0.132D-02
Largest |displ|/coords:  0.1110 (  10)  0.0988 (   5)  0.0954 (   2)
................................................................................
.............................. CYCLE   27 ......................................
................................................................................
   1    -45.6095482 -0.456095E+02  0.231E-01    8.87       0.0  T
   2    -45.6095552 -0.694897E-05  0.175E-01    8.88       1.0  T
   3    -45.6095626 -0.748595E-05  0.133E-02    8.88       1.6  T
   4    -45.6095633 -0.633760E-06  0.523E-03    8.88       4.0  T
   5    -45.6095633 -0.214274E-07  0.208E-03    8.88      10.0  T
speedup  1.05
cpu  time for SCC    0.00 s
wall time for SCC    0.00 s
speedup  0.99
cpu  time for grad    0.01 s
wall time for grad    0.01 s
 E :    -45.35234387  G :  0.010308    pred/act E change:  0.000D+00 -0.813D-03
Maxdispl :   0.1721   ||displ|| :   0.3278   Lambda : -0.100D-02
Largest |displ|/coords:  0.1721 (  12)  0.1355 (   7)  0.1081 (   2)
................................................................................
.............................. CYCLE   28 ......................................
................................................................................
   1    -45.6057975 -0.456058E+02  0.275E-01    8.85       0.0  T
   2    -45.6058136 -0.161349E-04  0.208E-01    8.85       1.0  T
   3    -45.6058249 -0.113397E-04  0.277E-02    8.84       1.0  T
   4    -45.6058275 -0.259817E-05  0.765E-03    8.84       2.7  T
   5    -45.6058276 -0.782362E-07  0.308E-03    8.84       6.8  T
   6    -45.6058276 -0.426201E-08  0.134E-03    8.84      15.5  T
   7    -45.6058276 -0.478948E-08  0.336E-04    8.84      62.1  T
speedup  0.93
cpu  time for SCC    0.00 s
wall time for SCC    0.01 s
speedup  1.03
cpu  time for grad    0.01 s
wall time for grad    0.01 s
 E :    -45.35253049  G :  0.015870    pred/act E change: -0.705D-03 -0.187D-03
Maxdispl :   0.1306   ||displ|| :   0.2046   Lambda : -0.769D-03
Largest |displ|/coords:  0.1306 (   2)  0.0732 (  12)  0.0702 (   3)
................................................................................
.............................. CYCLE   29 ......................................
................................................................................
   1    -45.6062321 -0.456062E+02  0.232E-01    8.83       0.0  T
   2    -45.6062382 -0.606465E-05  0.177E-01    8.84       1.0  T
   3    -45.6062461 -0.791886E-05  0.883E-03    8.84       2.4  T
   4    -45.6062462 -0.147440E-06  0.363E-03    8.84       5.7  T
   5    -45.6062463 -0.446118E-08  0.128E-03    8.84      16.3  T
   6    -45.6062463 -0.427755E-08  0.493E-04    8.84      42.3  T
speedup  1.11
cpu  time for SCC    0.01 s
wall time for SCC    0.00 s
speedup  1.01
cpu  time for grad    0.01 s
wall time for grad    0.01 s
 E :    -45.35295456  G :  0.012996    pred/act E change: -0.554D-03 -0.424D-03
Maxdispl :   0.1294   ||displ|| :   0.2210   Lambda : -0.515D-03
Largest |displ|/coords:  0.1294 (   2)  0.0884 (   6)  0.0728 (   7)
................................................................................
.............................. CYCLE   30 ......................................
................................................................................
   1    -45.6080030 -0.456080E+02  0.137E-01    8.86       0.0  T
   2    -45.6080073 -0.433183E-05  0.104E-01    8.86       1.0  T
   3    -45.6080109 -0.350443E-05  0.109E-02    8.86       1.9  T
   4    -45.6080115 -0.625680E-06  0.415E-03    8.86       5.0  T
   5    -45.6080115 -0.284487E-07  0.144E-03    8.86      14.5  T
   6    -45.6080115 -0.114249E-08  0.770E-04    8.86      27.1  T
speedup  1.04
cpu  time for SCC    0.00 s
wall time for SCC    0.00 s
speedup  0.98
cpu  time for grad    0.01 s
wall time for grad    0.01 s
 E :    -45.35323928  G :  0.009960    pred/act E change: -0.400D-03 -0.285D-03
Maxdispl :   0.2760   ||displ|| :   0.3813   Lambda : -0.570D-03
Largest |displ|/coords:  0.2760 (   2)  0.1323 (   3)  0.1154 (   7)
................................................................................
.............................. CYCLE   31 ......................................
................................................................................
   1    -45.6082843 -0.456083E+02  0.199E-01    8.86       0.0  T
   2    -45.6082907 -0.643825E-05  0.151E-01    8.86       1.0  T
   3    -45.6082962 -0.550330E-05  0.155E-02    8.85       1.3  T
   4    -45.6082971 -0.925659E-06  0.629E-03    8.85       3.3  T
   5    -45.6082972 -0.415943E-07  0.197E-03    8.85      10.6  T
   6    -45.6082972 -0.294330E-08  0.101E-03    8.85      20.7  T
speedup  0.87
cpu  time for SCC    0.00 s
wall time for SCC    0.00 s
speedup  1.00
cpu  time for grad    0.01 s
wall time for grad    0.01 s
 E :    -45.35361091  G :  0.009087    pred/act E change: -0.270D-03 -0.372D-03
Maxdispl :   0.3907   ||displ|| :   0.6349   Lambda : -0.964D-03
Largest |displ|/coords:  0.3907 (   2)  0.2301 (   7)  0.2096 (   3)
................................................................................
.............................. CYCLE   32 ......................................
................................................................................
   1    -45.6024493 -0.456024E+02  0.365E-01    8.77       0.0  T
   2    -45.6024732 -0.239541E-04  0.274E-01    8.79       1.0  T
   3    -45.6024860 -0.127965E-04  0.325E-02    8.84       1.0  T
   4    -45.6024902 -0.422929E-05  0.992E-03    8.83       2.1  T
   5    -45.6024904 -0.167839E-06  0.357E-03    8.82       5.8  T
   6    -45.6024904 -0.565884E-08  0.191E-03    8.82      10.9  T
   7    -45.6024904 -0.742870E-08  0.376E-04    8.82      55.4  T
speedup  1.11
cpu  time for SCC    0.01 s
wall time for SCC    0.01 s
speedup  1.02
cpu  time for grad    0.01 s
wall time for grad    0.01 s
 E :    -45.35367879  G :  0.030938    pred/act E change: -0.327D-03 -0.679D-04
Maxdispl :   0.1171   ||displ|| :   0.2028   Lambda : -0.155D-02
Largest |displ|/coords:  0.1171 (  10)  0.0785 (  11)  0.0663 (   4)
................................................................................
.............................. CYCLE   33 ......................................
................................................................................
   1    -45.6112898 -0.456113E+02  0.165E-01    8.92       0.0  T
   2    -45.6113053 -0.155224E-04  0.123E-01    8.92       1.0  T
   3    -45.6113141 -0.871773E-05  0.238E-02    8.90       1.0  T
   4    -45.6113160 -0.195031E-05  0.575E-03    8.91       3.6  T
   5    -45.6113161 -0.546082E-07  0.249E-03    8.91       8.4  T
speedup  0.79
cpu  time for SCC    0.00 s
wall time for SCC    0.00 s
speedup  0.98
cpu  time for grad    0.01 s
wall time for grad    0.01 s
 E :    -45.35407419  G :  0.016198    pred/act E change: -0.677D-03 -0.395D-03
Maxdispl :   0.1640   ||displ|| :   0.2503   Lambda : -0.882D-03
Largest |displ|/coords:  0.1640 (   2)  0.0796 (   3)  0.0758 (   9)
................................................................................
.............................. CYCLE   34 ......................................
................................................................................
   1    -45.6054893 -0.456055E+02  0.201E-01    8.90       0.0  T
   2    -45.6054989 -0.966336E-05  0.152E-01    8.91       1.0  T
   3    -45.6055061 -0.720544E-05  0.187E-02    8.91       1.1  T
   4    -45.6055074 -0.131680E-05  0.482E-03    8.91       4.3  T
   5    -45.6055075 -0.279548E-07  0.210E-03    8.91       9.9  T
   6    -45.6055075 -0.187394E-08  0.100E-03    8.91      20.8  T
speedup  1.11
cpu  time for SCC    0.01 s
wall time for SCC    0.00 s
speedup  1.01
cpu  time for grad    0.01 s
wall time for grad    0.01 s
 E :    -45.35429499  G :  0.016963    pred/act E change: -0.806D-03 -0.221D-03
Maxdispl :   0.1074   ||displ|| :   0.2369   Lambda : -0.706D-03
Largest |displ|/coords:  0.1074 (   2)  0.1044 (   3)  0.0834 (   5)
................................................................................
.............................. CYCLE   35 ......................................
................................................................................
   1    -45.6066282 -0.456066E+02  0.151E-01    8.91       0.0  T
   2    -45.6066344 -0.622449E-05  0.113E-01    8.92       1.0  T
   3    -45.6066383 -0.391963E-05  0.154E-02    8.94       1.3  T
   4    -45.6066392 -0.876452E-06  0.421E-03    8.93       5.0  T
   5    -45.6066392 -0.254069E-07  0.173E-03    8.93      12.0  T
   6    -45.6066392 -0.174688E-08  0.898E-04    8.93      23.2  T
speedup  1.09
cpu  time for SCC    0.00 s
wall time for SCC    0.00 s
speedup  1.00
cpu  time for grad    0.01 s
wall time for grad    0.01 s
 E :    -45.35462275  G :  0.014083    pred/act E change: -0.468D-03 -0.328D-03
Maxdispl :   0.1758   ||displ|| :   0.3381   Lambda : -0.546D-03
Largest |displ|/coords:  0.1758 (   2)  0.1503 (   7)  0.1229 (   6)
................................................................................
.............................. CYCLE   36 ......................................
................................................................................
   1    -45.6060457 -0.456060E+02  0.190E-01    8.98       0.0  T
   2    -45.6060522 -0.649768E-05  0.144E-01    8.98       1.0  T
   3    -45.6060582 -0.604511E-05  0.150E-02    8.99       1.4  T
   4    -45.6060589 -0.725930E-06  0.558E-03    8.99       3.7  T
   5    -45.6060590 -0.388121E-07  0.190E-03    8.99      11.0  T
   6    -45.6060590 -0.184085E-08  0.963E-04    8.99      21.7  T
speedup  1.09
cpu  time for SCC    0.00 s
wall time for SCC    0.00 s
speedup  1.00
cpu  time for grad    0.01 s
wall time for grad    0.01 s
 E :    -45.35476857  G :  0.020663    pred/act E change: -0.373D-03 -0.146D-03
Maxdispl :   0.0982   ||displ|| :   0.1876   Lambda : -0.525D-03
Largest |displ|/coords:  0.0982 (   2)  0.0913 (   7)  0.0878 (   3)
................................................................................
.............................. CYCLE   37 ......................................
................................................................................
   1    -45.6077015 -0.456077E+02  0.879E-02    9.02       0.0  T
   2    -45.6077052 -0.364446E-05  0.662E-02    9.02       1.0  T
   3    -45.6077081 -0.296073E-05  0.120E-02    9.01       1.7  T
   4    -45.6077086 -0.453486E-06  0.396E-03    9.01       5.3  T
   5    -45.6077086 -0.195166E-07  0.135E-03    9.01      15.4  T
speedup  1.28
cpu  time for SCC    0.00 s
wall time for SCC    0.00 s
speedup  1.07
cpu  time for grad    0.01 s
wall time for grad    0.01 s
 E :    -45.35511795  G :  0.008396    pred/act E change: -0.304D-03 -0.349D-03
Maxdispl :   0.2814   ||displ|| :   0.4761   Lambda : -0.598D-03
Largest |displ|/coords:  0.2814 (   2)  0.2281 (   3)  0.1912 (   7)
................................................................................
.............................. CYCLE   38 ......................................
................................................................................
   1    -45.6052995 -0.456053E+02  0.237E-01    9.01       0.0  T
   2    -45.6053060 -0.658869E-05  0.178E-01    9.02       1.0  T
   3    -45.6053130 -0.699770E-05  0.156E-02    9.03       1.3  T
   4    -45.6053136 -0.536503E-06  0.606E-03    9.02       3.4  T
   5    -45.6053136 -0.339356E-07  0.214E-03    9.02       9.8  T
   6    -45.6053136 -0.365700E-08  0.116E-03    9.02      18.0  T
speedup  1.04
cpu  time for SCC    0.00 s
wall time for SCC    0.00 s
speedup  0.98
cpu  time for grad    0.01 s
wall time for grad    0.01 s
 E :    -45.35537525  G :  0.015179    pred/act E change: -0.272D-03 -0.257D-03
Maxdispl :   0.1759   ||displ|| :   0.3120   Lambda : -0.507D-03
Largest |displ|/coords:  0.1759 (   7)  0.1116 (   3)  0.1105 (   2)
................................................................................
.............................. CYCLE   39 ......................................
................................................................................
   1    -45.6066973 -0.456067E+02  0.144E-01    9.10       0.0  T
   2    -45.6067014 -0.402821E-05  0.108E-01    9.09       1.0  T
   3    -45.6067054 -0.399585E-05  0.140E-02    9.09       1.5  T
   4    -45.6067058 -0.438426E-06  0.554E-03    9.09       3.8  T
   5    -45.6067058 -0.318044E-07  0.154E-03    9.09      13.5  T
   6    -45.6067058 -0.211285E-08  0.930E-04    9.09      22.4  T
speedup  0.87
cpu  time for SCC    0.00 s
wall time for SCC    0.00 s
speedup  1.00
cpu  time for grad    0.01 s
wall time for grad    0.01 s
 E :    -45.35570696  G :  0.011309    pred/act E change: -0.367D-03 -0.332D-03
Maxdispl :   0.2045   ||displ|| :   0.3830   Lambda : -0.413D-03
Largest |displ|/coords:  0.2045 (   7)  0.1614 (   2)  0.1613 (   3)
................................................................................
.............................. CYCLE   40 ......................................
................................................................................
   1    -45.6078914 -0.456079E+02  0.174E-01    9.11       0.0  T
   2    -45.6078958 -0.443582E-05  0.130E-01    9.12       1.0  T
   3    -45.6079003 -0.450910E-05  0.172E-02    9.12       1.2  T
   4    -45.6079008 -0.442697E-06  0.556E-03    9.12       3.7  T
   5    -45.6079008 -0.334951E-07  0.174E-03    9.12      12.0  T
   6    -45.6079008 -0.238597E-08  0.995E-04    9.12      20.9  T
speedup  1.09
cpu  time for SCC    0.00 s
wall time for SCC    0.00 s
speedup  1.00
cpu  time for grad    0.01 s
wall time for grad    0.01 s
 E :    -45.35594931  G :  0.012735    pred/act E change: -0.278D-03 -0.242D-03
Maxdispl :   0.2282   ||displ|| :   0.4211   Lambda : -0.300D-03
Largest |displ|/coords:  0.2282 (   7)  0.1751 (   3)  0.1703 (   2)
................................................................................
.............................. CYCLE   41 ......................................
................................................................................
   1    -45.6060215 -0.456060E+02  0.184E-01    9.10       0.0  T
   2    -45.6060251 -0.359633E-05  0.138E-01    9.10       1.0  T
   3    -45.6060289 -0.378298E-05  0.151E-02    9.10       1.4  T
   4    -45.6060292 -0.305191E-06  0.422E-03    9.10       4.9  T
   5    -45.6060292 -0.239128E-07  0.169E-03    9.10      12.4  T
   6    -45.6060292 -0.238931E-08  0.811E-04    9.10      25.7  T
speedup  1.11
cpu  time for SCC    0.00 s
wall time for SCC    0.00 s
speedup  1.00
cpu  time for grad    0.01 s
wall time for grad    0.01 s
 E :    -45.35612514  G :  0.015415    pred/act E change: -0.237D-03 -0.176D-03
Maxdispl :   0.1629   ||displ|| :   0.3048   Lambda : -0.582D-03
Largest |displ|/coords:  0.1629 (   7)  0.1383 (   9)  0.0984 (   3)
................................................................................
.............................. CYCLE   42 ......................................
................................................................................
   1    -45.6129223 -0.456129E+02  0.178E-01    9.09       0.0  T
   2    -45.6129396 -0.172286E-04  0.128E-01    9.09       1.0  T
   3    -45.6129492 -0.963157E-05  0.348E-02    9.08       1.0  T
   4    -45.6129510 -0.179109E-05  0.931E-03    9.08       2.2  T
   5    -45.6129511 -0.154318E-06  0.284E-03    9.09       7.3  T
   6    -45.6129512 -0.746816E-08  0.159E-03    9.09      13.1  T
speedup  1.11
cpu  time for SCC    0.00 s
wall time for SCC    0.00 s
speedup  1.00
cpu  time for grad    0.01 s
wall time for grad    0.01 s
 E :    -45.35624154  G :  0.013520    pred/act E change: -0.176D-03 -0.116D-03
Maxdispl :   0.2072   ||displ|| :   0.3586   Lambda : -0.645D-03
Largest |displ|/coords:  0.2072 (   7)  0.1786 (   3)  0.1575 (   2)
................................................................................
.............................. CYCLE   43 ......................................
................................................................................
   1    -45.6042419 -0.456042E+02  0.242E-01    8.99       0.0  T
   2    -45.6042562 -0.142830E-04  0.182E-01    9.01       1.0  T
   3    -45.6042701 -0.138815E-04  0.250E-02    9.03       1.0  T
   4    -45.6042717 -0.161272E-05  0.879E-03    9.02       2.4  T
   5    -45.6042718 -0.115088E-06  0.338E-03    9.02       6.2  T
   6    -45.6042718 -0.845805E-08  0.169E-03    9.02      12.3  T
   7    -45.6042718 -0.679061E-08  0.284E-04    9.02      73.4  T
speedup  0.94
cpu  time for SCC    0.01 s
wall time for SCC    0.01 s
speedup  0.93
cpu  time for grad    0.01 s
wall time for grad    0.01 s
 E :    -45.35623800  G :  0.021892    pred/act E change: -0.318D-03  0.354D-05
Maxdispl :   0.0695   ||displ|| :   0.1709   Lambda : -0.919D-03
Largest |displ|/coords:  0.0695 (   1)  0.0618 (  12)  0.0591 (   4)
................................................................................
.............................. CYCLE   44 ......................................
................................................................................
   1    -45.6062094 -0.456062E+02  0.169E-01    9.05       0.0  T
   2    -45.6062184 -0.898437E-05  0.128E-01    9.05       1.0  T
   3    -45.6062262 -0.787410E-05  0.181E-02    9.04       1.2  T
   4    -45.6062273 -0.104966E-05  0.594E-03    9.04       3.5  T
   5    -45.6062273 -0.456996E-07  0.234E-03    9.05       8.9  T
speedup  1.05
cpu  time for SCC    0.00 s
wall time for SCC    0.00 s
speedup  0.98
cpu  time for grad    0.01 s
wall time for grad    0.01 s
 E :    -45.35643583  G :  0.015247    pred/act E change: -0.364D-03 -0.198D-03
Maxdispl :   0.0543   ||displ|| :   0.1240   Lambda : -0.511D-03
Largest |displ|/coords:  0.0543 (  12)  0.0421 (  10)  0.0408 (   2)
................................................................................
.............................. CYCLE   45 ......................................
................................................................................
   1    -45.6102452 -0.456102E+02  0.120E-01    9.09       0.0  T
   2    -45.6102500 -0.478477E-05  0.920E-02    9.09       1.0  T
   3    -45.6102557 -0.576132E-05  0.118E-02    9.09       1.8  T
   4    -45.6102561 -0.349009E-06  0.442E-03    9.10       4.7  T
   5    -45.6102561 -0.217550E-07  0.153E-03    9.10      13.7  T
   6    -45.6102561 -0.259791E-08  0.730E-04    9.10      28.6  T
speedup  1.09
cpu  time for SCC    0.00 s
wall time for SCC    0.00 s
speedup  1.00
cpu  time for grad    0.01 s
wall time for grad    0.01 s
 E :    -45.35653570  G :  0.013747    pred/act E change: -0.473D-03 -0.999D-04
Maxdispl :   0.0603   ||displ|| :   0.1040   Lambda : -0.316D-03
Largest |displ|/coords:  0.0603 (   8)  0.0397 (   4)  0.0354 (   7)
................................................................................
.............................. CYCLE   46 ......................................
................................................................................
   1    -45.6103095 -0.456103E+02  0.890E-02    9.08       0.0  T
   2    -45.6103131 -0.360534E-05  0.677E-02    9.09       1.0  T
   3    -45.6103172 -0.408879E-05  0.119E-02    9.09       1.8  T
   4    -45.6103175 -0.361287E-06  0.502E-03    9.08       4.2  T
   5    -45.6103176 -0.296294E-07  0.147E-03    9.08      14.2  T
   6    -45.6103176 -0.236552E-08  0.747E-04    9.08      27.9  T
speedup  0.85
cpu  time for SCC    0.00 s
wall time for SCC    0.00 s
speedup  0.98
cpu  time for grad    0.01 s
wall time for grad    0.01 s
 E :    -45.35669737  G :  0.007791    pred/act E change: -0.260D-03 -0.162D-03
Maxdispl :   0.1858   ||displ|| :   0.2896   Lambda : -0.220D-03
Largest |displ|/coords:  0.1858 (   7)  0.1367 (   3)  0.0802 (   1)
................................................................................
.............................. CYCLE   47 ......................................
................................................................................
   1    -45.6053184 -0.456053E+02  0.153E-01    9.03       0.0  T
   2    -45.6053222 -0.378052E-05  0.115E-01    9.03       1.0  T
   3    -45.6053262 -0.400131E-05  0.143E-02    9.03       1.5  T
   4    -45.6053266 -0.348797E-06  0.485E-03    9.03       4.3  T
   5    -45.6053266 -0.324966E-07  0.175E-03    9.03      11.9  T
   6    -45.6053266 -0.258366E-08  0.913E-04    9.03      22.8  T
speedup  1.06
cpu  time for SCC    0.00 s
wall time for SCC    0.00 s
speedup  1.07
cpu  time for grad    0.01 s
wall time for grad    0.01 s
 E :    -45.35677858  G :  0.012317    pred/act E change: -0.160D-03 -0.812D-04
Maxdispl :   0.0471   ||displ|| :   0.0732   Lambda : -0.182D-03
Largest |displ|/coords:  0.0471 (   1)  0.0186 (  10)  0.0174 (   3)
................................................................................
.............................. CYCLE   48 ......................................
................................................................................
   1    -45.6077227 -0.456077E+02  0.414E-02    9.06       0.0  T
   2    -45.6077234 -0.656317E-06  0.310E-02    9.06       1.0  T
   3    -45.6077239 -0.454404E-06  0.514E-03    9.06       4.1  T
   4    -45.6077239 -0.865544E-07  0.159E-03    9.06      13.1  T
   5    -45.6077239 -0.445502E-08  0.527E-04    9.06      39.5  T
speedup  1.05
cpu  time for SCC    0.00 s
wall time for SCC    0.00 s
speedup  0.97
cpu  time for grad    0.01 s
wall time for grad    0.01 s
 E :    -45.35691427  G :  0.007949    pred/act E change: -0.119D-03 -0.136D-03
Maxdispl :   0.1469   ||displ|| :   0.2829   Lambda : -0.418D-03
Largest |displ|/coords:  0.1469 (   1)  0.1124 (   2)  0.0989 (   7)
................................................................................
.............................. CYCLE   49 ......................................
................................................................................
   1    -45.6111441 -0.456111E+02  0.169E-01    9.09       0.0  T
   2    -45.6111503 -0.613539E-05  0.127E-01    9.09       1.0  T
   3    -45.6111574 -0.715100E-05  0.165E-02    9.09       1.3  T
   4    -45.6111579 -0.497368E-06  0.499E-03    9.09       4.2  T
   5    -45.6111579 -0.373093E-07  0.206E-03    9.09      10.1  T
   6    -45.6111580 -0.478139E-08  0.106E-03    9.09      19.6  T
speedup  0.87
cpu  time for SCC    0.00 s
wall time for SCC    0.00 s
speedup  1.00
cpu  time for grad    0.01 s
wall time for grad    0.01 s
 E :    -45.35715842  G :  0.007660    pred/act E change: -0.915D-04 -0.244D-03
Maxdispl :   0.2856   ||displ|| :   0.5489   Lambda : -0.399D-03
Largest |displ|/coords:  0.2856 (   7)  0.2509 (   1)  0.2284 (   3)
................................................................................
.............................. CYCLE   50 ......................................
................................................................................
   1    -45.6064378 -0.456064E+02  0.327E-01    9.04       0.0  T
   2    -45.6064576 -0.197185E-04  0.246E-01    9.05       1.0  T
   3    -45.6064758 -0.182618E-04  0.284E-02    9.05       1.0  T
   4    -45.6064782 -0.232701E-05  0.101E-02    9.05       2.1  T
   5    -45.6064783 -0.136704E-06  0.380E-03    9.05       5.5  T
   6    -45.6064783 -0.140840E-07  0.211E-03    9.05       9.9  T
   7    -45.6064783 -0.806776E-08  0.459E-04    9.05      45.4  T
speedup  1.15
cpu  time for SCC    0.01 s
wall time for SCC    0.01 s
speedup  1.03
cpu  time for grad    0.01 s
wall time for grad    0.01 s
 E :    -45.35711415  G :  0.023069    pred/act E change: -0.226D-03  0.443D-04
Maxdispl :   0.0539   ||displ|| :   0.1315   Lambda : -0.745D-03
Largest |displ|/coords:  0.0539 (   7)  0.0509 (   8)  0.0491 (   5)
................................................................................
.............................. CYCLE   51 ......................................
................................................................................
   1    -45.6090613 -0.456091E+02  0.956E-02    9.06       0.0  T
   2    -45.6090730 -0.117227E-04  0.691E-02    9.06       1.0  T
   3    -45.6090793 -0.636358E-05  0.189E-02    9.04       1.1  T
   4    -45.6090802 -0.894890E-06  0.350E-03    9.05       6.0  T
   5    -45.6090803 -0.203453E-07  0.166E-03    9.05      12.5  T
speedup  1.03
cpu  time for SCC    0.00 s
wall time for SCC    0.00 s
speedup  0.97
cpu  time for grad    0.01 s
wall time for grad    0.01 s
 E :    -45.35730634  G :  0.011934    pred/act E change: -0.260D-03 -0.192D-03
Maxdispl :   0.0728   ||displ|| :   0.1490   Lambda : -0.532D-03
Largest |displ|/coords:  0.0728 (   9)  0.0670 (  12)  0.0633 (   2)
................................................................................
.............................. CYCLE   52 ......................................
................................................................................
   1    -45.6111227 -0.456111E+02  0.135E-01    9.03       0.0  T
   2    -45.6111307 -0.798839E-05  0.101E-01    9.04       1.0  T
   3    -45.6111362 -0.550907E-05  0.172E-02    9.04       1.2  T
   4    -45.6111372 -0.105898E-05  0.513E-03    9.03       4.1  T
   5    -45.6111373 -0.332555E-07  0.209E-03    9.03      10.0  T
   6    -45.6111373 -0.357592E-08  0.104E-03    9.03      20.0  T
speedup  0.89
cpu  time for SCC    0.00 s
wall time for SCC    0.00 s
speedup  0.92
cpu  time for grad    0.01 s
wall time for grad    0.01 s
 E :    -45.35721963  G :  0.022484    pred/act E change: -0.379D-03  0.867D-04
Maxdispl :   0.0458   ||displ|| :   0.1172   Lambda : -0.610D-03
Largest |displ|/coords:  0.0458 (   1)  0.0381 (   8)  0.0350 (  10)

generating ANC from model Hessian ...
 Shifting diagonal of input Hessian by   5.141294869953237E-003
 Lowest  eigenvalues of input Hessian
    0.005000   -0.000000   -0.000000   -0.000000    0.000000    0.000000
    0.000000    0.005245    0.005756    0.005860    0.006069    0.006106
    0.007188    0.008098    0.009397    0.010048    0.011031    0.012372
 Highest eigenvalues
    1.394796    1.440369    1.471683    2.700439    3.369909    3.618368
 
cpu  time for ANC gen    0.01 s
wall time for ANC gen    0.01 s
................................................................................
.............................. CYCLE   53 ......................................
................................................................................
   1    -45.6103457 -0.456103E+02  0.102E-01    9.06       0.0  T
   2    -45.6103503 -0.453411E-05  0.772E-02    9.07       1.0  T
   3    -45.6103533 -0.299562E-05  0.131E-02    9.07       1.6  T
   4    -45.6103539 -0.590891E-06  0.464E-03    9.07       4.5  T
   5    -45.6103539 -0.426018E-07  0.138E-03    9.07      15.1  T
   6    -45.6103539 -0.149408E-08  0.762E-04    9.07      27.4  T
   7    -45.6103539 -0.745793E-09  0.181E-04    9.07     115.1  T
speedup  1.13
cpu  time for SCC    0.01 s
wall time for SCC    0.01 s
speedup  1.05
cpu  time for grad    0.01 s
wall time for grad    0.01 s
 E :    -45.35749143  G :  0.008196    pred/act E change:  0.000D+00 -0.272D-03
Maxdispl :   0.0876   ||displ|| :   0.1666   Lambda : -0.306D-03
Largest |displ|/coords:  0.0876 (   1)  0.0726 (   8)  0.0636 (   2)
................................................................................
.............................. CYCLE   54 ......................................
................................................................................
   1    -45.6095718 -0.456096E+02  0.158E-01    9.07       0.0  T
   2    -45.6095740 -0.214361E-05  0.120E-01    9.07       1.0  T
   3    -45.6095769 -0.297547E-05  0.721E-03    9.06       2.9  T
   4    -45.6095770 -0.691575E-07  0.271E-03    9.07       7.7  T
   5    -45.6095770 -0.733982E-08  0.118E-03    9.07      17.6  T
speedup  1.03
cpu  time for SCC    0.00 s
wall time for SCC    0.00 s
speedup  1.07
cpu  time for grad    0.01 s
wall time for grad    0.01 s
 E :    -45.35772676  G :  0.005957    pred/act E change:  0.000D+00 -0.235D-03
Maxdispl :   0.2140   ||displ|| :   0.3373   Lambda : -0.387D-03
Largest |displ|/coords:  0.2140 (   1)  0.1753 (   2)  0.0979 (   3)
................................................................................
.............................. CYCLE   55 ......................................
................................................................................
   1    -45.6067881 -0.456068E+02  0.256E-01    9.05       0.0  T
   2    -45.6067922 -0.409020E-05  0.193E-01    9.05       1.0  T
   3    -45.6067972 -0.500727E-05  0.122E-02    9.05       1.7  T
   4    -45.6067974 -0.237106E-06  0.459E-03    9.06       4.5  T
   5    -45.6067975 -0.227182E-07  0.201E-03    9.06      10.4  T
   6    -45.6067975 -0.496826E-08  0.917E-04    9.06      22.7  T
speedup  1.11
cpu  time for SCC    0.01 s
wall time for SCC    0.00 s
speedup  1.00
cpu  time for grad    0.01 s
wall time for grad    0.01 s
 E :    -45.35786874  G :  0.016369    pred/act E change: -0.157D-03 -0.142D-03
Maxdispl :   0.0522   ||displ|| :   0.0880   Lambda : -0.271D-03
Largest |displ|/coords:  0.0522 (   2)  0.0281 (  12)  0.0263 (   9)
................................................................................
.............................. CYCLE   56 ......................................
................................................................................
   1    -45.6085414 -0.456085E+02  0.670E-02    9.07       0.0  T
   2    -45.6085434 -0.200067E-05  0.502E-02    9.07       1.0  T
   3    -45.6085447 -0.127142E-05  0.847E-03    9.07       2.5  T
   4    -45.6085450 -0.286042E-06  0.171E-03    9.07      12.2  T
   5    -45.6085450 -0.246536E-08  0.895E-04    9.07      23.3  T
speedup  1.08
cpu  time for SCC    0.00 s
wall time for SCC    0.00 s
speedup  0.99
cpu  time for grad    0.01 s
wall time for grad    0.01 s
 E :    -45.35803273  G :  0.005905    pred/act E change: -0.216D-03 -0.164D-03
Maxdispl :   0.1719   ||displ|| :   0.2604   Lambda : -0.253D-03
Largest |displ|/coords:  0.1719 (   2)  0.1328 (   1)  0.0921 (   3)
................................................................................
.............................. CYCLE   57 ......................................
................................................................................
   1    -45.6087212 -0.456087E+02  0.132E-01    9.07       0.0  T
   2    -45.6087241 -0.287981E-05  0.100E-01    9.07       1.0  T
   3    -45.6087280 -0.390293E-05  0.892E-03    9.08       2.3  T
   4    -45.6087282 -0.164241E-06  0.365E-03    9.08       5.7  T
   5    -45.6087282 -0.163586E-07  0.137E-03    9.08      15.2  T
   6    -45.6087282 -0.286583E-08  0.639E-04    9.08      32.6  T
speedup  0.89
cpu  time for SCC    0.00 s
wall time for SCC    0.00 s
speedup  1.01
cpu  time for grad    0.01 s
wall time for grad    0.01 s
 E :    -45.35822082  G :  0.003142    pred/act E change: -0.137D-03 -0.188D-03
Maxdispl :   0.3601   ||displ|| :   0.5238   Lambda : -0.340D-03
Largest |displ|/coords:  0.3601 (   2)  0.3015 (   1)  0.1592 (   3)
................................................................................
.............................. CYCLE   58 ......................................
................................................................................
   1    -45.6063956 -0.456064E+02  0.255E-01    9.07       0.0  T
   2    -45.6064030 -0.737889E-05  0.192E-01    9.08       1.0  T
   3    -45.6064124 -0.946021E-05  0.151E-02    9.10       1.4  T
   4    -45.6064129 -0.467824E-06  0.525E-03    9.10       4.0  T
   5    -45.6064129 -0.321205E-07  0.264E-03    9.09       7.9  T
   6    -45.6064130 -0.119639E-07  0.101E-03    9.10      20.6  T
   7    -45.6064130 -0.184227E-08  0.240E-04    9.10      87.0  T
   8    -45.6064130 -0.117097E-09  0.846E-05    9.10     246.4  T
speedup  1.00
cpu  time for SCC    0.01 s
wall time for SCC    0.01 s
speedup  1.02
cpu  time for grad    0.01 s
wall time for grad    0.01 s
 E :    -45.35844042  G :  0.009620    pred/act E change: -0.135D-03 -0.220D-03
Maxdispl :   0.2179   ||displ|| :   0.3160   Lambda : -0.269D-03
Largest |displ|/coords:  0.2179 (   2)  0.1901 (   1)  0.0493 (   8)
................................................................................
.............................. CYCLE   59 ......................................
................................................................................
   1    -45.6080505 -0.456081E+02  0.131E-01    9.09       0.0  T
   2    -45.6080524 -0.188295E-05  0.989E-02    9.09       1.0  T
   3    -45.6080545 -0.212028E-05  0.818E-03    9.10       2.5  T
   4    -45.6080547 -0.136021E-06  0.292E-03    9.10       7.1  T
   5    -45.6080547 -0.769062E-08  0.112E-03    9.10      18.6  T
speedup  1.05
cpu  time for SCC    0.00 s
wall time for SCC    0.00 s
speedup  0.98
cpu  time for grad    0.01 s
wall time for grad    0.01 s
 E :    -45.35859760  G :  0.004998    pred/act E change: -0.217D-03 -0.157D-03
Maxdispl :   0.2431   ||displ|| :   0.3527   Lambda : -0.198D-03
Largest |displ|/coords:  0.2431 (   2)  0.2035 (   1)  0.0901 (   5)
................................................................................
.............................. CYCLE   60 ......................................
................................................................................
   1    -45.6069650 -0.456070E+02  0.156E-01    9.10       0.0  T
   2    -45.6069674 -0.234584E-05  0.117E-01    9.10       1.0  T
   3    -45.6069702 -0.283031E-05  0.934E-03    9.11       2.2  T
   4    -45.6069704 -0.160492E-06  0.312E-03    9.11       6.7  T
   5    -45.6069704 -0.110707E-07  0.147E-03    9.11      14.2  T
   6    -45.6069704 -0.237705E-08  0.586E-04    9.11      35.6  T
speedup  0.89
cpu  time for SCC    0.00 s
wall time for SCC    0.00 s
speedup  0.92
cpu  time for grad    0.01 s
wall time for grad    0.01 s
 E :    -45.35872748  G :  0.007408    pred/act E change: -0.148D-03 -0.130D-03
Maxdispl :   0.2134   ||displ|| :   0.3085   Lambda : -0.289D-03
Largest |displ|/coords:  0.2134 (   2)  0.1117 (   5)  0.0945 (   7)
................................................................................
.............................. CYCLE   61 ......................................
................................................................................
   1    -45.6086618 -0.456087E+02  0.139E-01    9.11       0.0  T
   2    -45.6086658 -0.399661E-05  0.105E-01    9.11       1.0  T
   3    -45.6086704 -0.459296E-05  0.138E-02    9.10       1.5  T
   4    -45.6086707 -0.341612E-06  0.442E-03    9.10       4.7  T
   5    -45.6086708 -0.263828E-07  0.177E-03    9.10      11.8  T
   6    -45.6086708 -0.326480E-08  0.916E-04    9.10      22.8  T
speedup  0.89
cpu  time for SCC    0.00 s
wall time for SCC    0.00 s
speedup  0.99
cpu  time for grad    0.01 s
wall time for grad    0.01 s
 E :    -45.35886817  G :  0.010579    pred/act E change: -0.111D-03 -0.141D-03
Maxdispl :   0.3212   ||displ|| :   0.4329   Lambda : -0.305D-03
Largest |displ|/coords:  0.3212 (   2)  0.1761 (   1)  0.1101 (   6)
................................................................................
.............................. CYCLE   62 ......................................
................................................................................
   1    -45.6043334 -0.456043E+02  0.227E-01    9.04       0.0  T
   2    -45.6043389 -0.549659E-05  0.171E-01    9.04       1.0  T
   3    -45.6043444 -0.543940E-05  0.141E-02    9.04       1.5  T
   4    -45.6043449 -0.495238E-06  0.547E-03    9.04       3.8  T
   5    -45.6043449 -0.315726E-07  0.189E-03    9.04      11.0  T
   6    -45.6043449 -0.271955E-08  0.107E-03    9.04      19.6  T
speedup  0.89
cpu  time for SCC    0.00 s
wall time for SCC    0.00 s
speedup  1.01
cpu  time for grad    0.01 s
wall time for grad    0.01 s
 E :    -45.35894836  G :  0.015172    pred/act E change: -0.158D-03 -0.802D-04
Maxdispl :   0.0596   ||displ|| :   0.1276   Lambda : -0.325D-03
Largest |displ|/coords:  0.0596 (   3)  0.0440 (   1)  0.0413 (   7)
................................................................................
.............................. CYCLE   63 ......................................
................................................................................
   1    -45.6078236 -0.456078E+02  0.806E-02    9.06       0.0  T
   2    -45.6078281 -0.447158E-05  0.601E-02    9.06       1.0  T
   3    -45.6078314 -0.328721E-05  0.134E-02    9.06       1.6  T
   4    -45.6078319 -0.515659E-06  0.354E-03    9.06       5.9  T
   5    -45.6078319 -0.186599E-07  0.145E-03    9.06      14.4  T
   6    -45.6078319 -0.150301E-08  0.693E-04    9.06      30.1  T
speedup  1.11
cpu  time for SCC    0.01 s
wall time for SCC    0.00 s
speedup  1.00
cpu  time for grad    0.01 s
wall time for grad    0.01 s
 E :    -45.35903675  G :  0.008823    pred/act E change: -0.181D-03 -0.884D-04
Maxdispl :   0.1245   ||displ|| :   0.1845   Lambda : -0.210D-03
Largest |displ|/coords:  0.1245 (   2)  0.0847 (   1)  0.0596 (   3)
................................................................................
.............................. CYCLE   64 ......................................
................................................................................
   1    -45.6082485 -0.456082E+02  0.868E-02    9.08       0.0  T
   2    -45.6082506 -0.217225E-05  0.661E-02    9.08       1.0  T
   3    -45.6082535 -0.288781E-05  0.752E-03    9.09       2.8  T
   4    -45.6082537 -0.123860E-06  0.299E-03    9.09       7.0  T
   5    -45.6082537 -0.104832E-07  0.984E-04    9.09      21.2  T
speedup  1.08
cpu  time for SCC    0.00 s
wall time for SCC    0.00 s
speedup  0.98
cpu  time for grad    0.01 s
wall time for grad    0.01 s
 E :    -45.35911202  G :  0.008049    pred/act E change: -0.165D-03 -0.753D-04
Maxdispl :   0.1303   ||displ|| :   0.1759   Lambda : -0.148D-03
Largest |displ|/coords:  0.1303 (   2)  0.0645 (   1)  0.0483 (   7)
................................................................................
.............................. CYCLE   65 ......................................
................................................................................
   1    -45.6082243 -0.456082E+02  0.907E-02    9.08       0.0  T
   2    -45.6082262 -0.191201E-05  0.685E-02    9.08       1.0  T
   3    -45.6082280 -0.176382E-05  0.867E-03    9.09       2.4  T
   4    -45.6082281 -0.199252E-06  0.362E-03    9.09       5.8  T
   5    -45.6082282 -0.142230E-07  0.104E-03    9.09      20.0  T
   6    -45.6082282 -0.978318E-09  0.603E-04    9.09      34.6  T
speedup  0.65
cpu  time for SCC    0.00 s
wall time for SCC    0.00 s
speedup  0.90
cpu  time for grad    0.01 s
wall time for grad    0.01 s
 E :    -45.35914831  G :  0.008841    pred/act E change: -0.108D-03 -0.363D-04
[...]
................................................................................
   1    -45.6099816 -0.456100E+02  0.247E-02    9.03       0.0  T
   2    -45.6099818 -0.168040E-06  0.186E-02    9.02       1.1  T
   3    -45.6099820 -0.180976E-06  0.255E-03    9.02       8.2  T
   4    -45.6099820 -0.156595E-07  0.672E-04    9.02      31.0  T
   5    -45.6099820 -0.554358E-09  0.330E-04    9.02      63.1  T
speedup  1.03
cpu  time for SCC    0.00 s
wall time for SCC    0.00 s
speedup  1.02
cpu  time for grad    0.01 s
wall time for grad    0.01 s
 E :    -45.36003098  G :  0.001277    pred/act E change: -0.466D-05 -0.368D-05
Maxdispl :   0.0718   ||displ|| :   0.0884   Lambda : -0.367D-05
Largest |displ|/coords:  0.0718 (   2)  0.0269 (  13)  0.0207 (   4)
................................................................................
.............................. CYCLE   98 ......................................
................................................................................
   1    -45.6096397 -0.456096E+02  0.363E-02    9.02       0.0  T
   2    -45.6096399 -0.223134E-06  0.275E-02    9.02       1.0  T
   3    -45.6096402 -0.264353E-06  0.274E-03    9.02       7.6  T
   4    -45.6096402 -0.176256E-07  0.125E-03    9.02      16.7  T
   5    -45.6096402 -0.158413E-08  0.409E-04    9.02      50.9  T
   6    -45.6096402 -0.201339E-09  0.221E-04    9.02      94.5  T
speedup  1.09
cpu  time for SCC    0.00 s
wall time for SCC    0.00 s
speedup  1.04
cpu  time for grad    0.01 s
wall time for grad    0.01 s
 E :    -45.36003247  G :  0.000875    pred/act E change: -0.380D-05 -0.149D-05
Maxdispl :   0.0298   ||displ|| :   0.0362   Lambda : -0.160D-05
Largest |displ|/coords:  0.0298 (   2)  0.0104 (   4)  0.0089 (  13)
................................................................................
.............................. CYCLE   99 ......................................
................................................................................
   1    -45.6098763 -0.456099E+02  0.134E-02    9.02       0.0  T
   2    -45.6098763 -0.312171E-07  0.101E-02    9.02       2.1  T
   3    -45.6098763 -0.357617E-07  0.124E-03    9.02      16.8  T
   4    -45.6098763 -0.269338E-08  0.493E-04    9.02      42.3  T
   5    -45.6098763 -0.249401E-09  0.148E-04    9.02     140.4  T
speedup  1.05
cpu  time for SCC    0.00 s
wall time for SCC    0.00 s
speedup  1.03
cpu  time for grad    0.01 s
wall time for grad    0.01 s
 E :    -45.36003341  G :  0.000457    pred/act E change: -0.185D-05 -0.941D-06
Maxdispl :   0.0023   ||displ|| :   0.0053   Lambda : -0.612D-06
Largest |displ|/coords:  0.0023 (   5)  0.0020 (   3)  0.0015 (  20)
................................................................................
.............................. CYCLE  100 ......................................
................................................................................
   1    -45.6099881 -0.456100E+02  0.403E-03    9.02       0.0  T
   2    -45.6099881 -0.763938E-08  0.305E-03    9.02       6.8  T
   3    -45.6099881 -0.453739E-08  0.554E-04    9.02      37.6  T
   4    -45.6099881 -0.134562E-08  0.216E-04    9.02      96.6  T
speedup  0.97
cpu  time for SCC    0.00 s
wall time for SCC    0.00 s
speedup  0.99
cpu  time for grad    0.01 s
wall time for grad    0.01 s
 E :    -45.36003382  G :  0.000339    pred/act E change: -0.798D-06 -0.412D-06
Maxdispl :   0.0044   ||displ|| :   0.0077   Lambda : -0.370D-06
Largest |displ|/coords:  0.0044 (   2)  0.0027 (   5)  0.0022 (   1)
................................................................................
.............................. CYCLE  101 ......................................
................................................................................
   1    -45.6100542 -0.456101E+02  0.502E-03    9.02       0.0  T
   2    -45.6100542 -0.869353E-08  0.380E-03    9.02       5.5  T
   3    -45.6100542 -0.480523E-08  0.581E-04    9.02      35.9  T
   4    -45.6100542 -0.157588E-08  0.244E-04    9.02      85.6  T
speedup  0.97
cpu  time for SCC    0.00 s
wall time for SCC    0.00 s
speedup  1.00
cpu  time for grad    0.01 s
wall time for grad    0.01 s
 E :    -45.36003408  G :  0.000246    pred/act E change: -0.306D-06 -0.256D-06
Maxdispl :   0.0033   ||displ|| :   0.0068   Lambda : -0.240D-06
Largest |displ|/coords:  0.0033 (   5)  0.0025 (   1)  0.0022 (   2)
................................................................................
.............................. CYCLE  102 ......................................
................................................................................
   1    -45.6100838 -0.456101E+02  0.442E-03    9.02       0.0  T
   2    -45.6100838 -0.625284E-08  0.332E-03    9.02       6.3  T
   3    -45.6100838 -0.288668E-08  0.558E-04    9.02      37.4  T
   4    -45.6100838 -0.106903E-08  0.236E-04    9.02      88.4  T
speedup  0.97
cpu  time for SCC    0.00 s
wall time for SCC    0.00 s
speedup  1.00
cpu  time for grad    0.01 s
wall time for grad    0.01 s
 E :    -45.36003425  G :  0.000253    pred/act E change: -0.185D-06 -0.175D-06
Maxdispl :   0.0046   ||displ|| :   0.0081   Lambda : -0.208D-06
Largest |displ|/coords:  0.0046 (   1)  0.0041 (   5)  0.0024 (   9)
................................................................................
.............................. CYCLE  103 ......................................
................................................................................
   1    -45.6100789 -0.456101E+02  0.507E-03    9.02       0.0  T
   2    -45.6100789 -0.693750E-08  0.378E-03    9.02       5.5  T
   3    -45.6100789 -0.381915E-08  0.618E-04    9.02      33.8  T
   4    -45.6100789 -0.103574E-08  0.270E-04    9.02      77.2  T
speedup  1.00
cpu  time for SCC    0.00 s
wall time for SCC    0.00 s
speedup  1.01
cpu  time for grad    0.01 s
wall time for grad    0.01 s
 E :    -45.36003441  G :  0.000258    pred/act E change: -0.120D-06 -0.152D-06
Maxdispl :   0.0045   ||displ|| :   0.0090   Lambda : -0.178D-06
Largest |displ|/coords:  0.0045 (   5)  0.0044 (   1)  0.0037 (   2)
................................................................................
.............................. CYCLE  104 ......................................
................................................................................
   1    -45.6100555 -0.456101E+02  0.487E-03    9.02       0.0  T
   2    -45.6100555 -0.536891E-08  0.361E-03    9.02       5.8  T
   3    -45.6100555 -0.304436E-08  0.593E-04    9.02      35.2  T
   4    -45.6100555 -0.752586E-09  0.236E-04    9.02      88.2  T
speedup  1.00
cpu  time for SCC    0.00 s
wall time for SCC    0.00 s
speedup  1.01
cpu  time for grad    0.01 s
wall time for grad    0.01 s
 E :    -45.36003454  G :  0.000231    pred/act E change: -0.104D-06 -0.135D-06
Maxdispl :   0.0069   ||displ|| :   0.0119   Lambda : -0.178D-06
Largest |displ|/coords:  0.0069 (   2)  0.0056 (   5)  0.0049 (   1)
................................................................................
.............................. CYCLE  105 ......................................
................................................................................
   1    -45.6100168 -0.456100E+02  0.564E-03    9.02       0.0  T
   2    -45.6100168 -0.655542E-08  0.420E-03    9.02       5.0  T
   3    -45.6100168 -0.417410E-08  0.655E-04    9.02      31.8  T
   4    -45.6100168 -0.927805E-09  0.246E-04    9.02      84.8  T
speedup  0.97
cpu  time for SCC    0.00 s
wall time for SCC    0.00 s
speedup  1.00
cpu  time for grad    0.01 s
wall time for grad    0.01 s
 E :    -45.36003467  G :  0.000181    pred/act E change: -0.890D-07 -0.132D-06
Maxdispl :   0.0087   ||displ|| :   0.0121   Lambda : -0.143D-06
Largest |displ|/coords:  0.0087 (   2)  0.0050 (   5)  0.0040 (   4)
................................................................................
.............................. CYCLE  106 ......................................
................................................................................
   1    -45.6099863 -0.456100E+02  0.516E-03    9.02       0.0  T
   2    -45.6099863 -0.499610E-08  0.387E-03    9.02       5.4  T
   3    -45.6099863 -0.355427E-08  0.535E-04    9.02      39.0  T
   4    -45.6099863 -0.739462E-09  0.198E-04    9.02     105.5  T
speedup  1.00
cpu  time for SCC    0.00 s
wall time for SCC    0.00 s
speedup  1.01
cpu  time for grad    0.01 s
wall time for grad    0.01 s
 E :    -45.36003478  G :  0.000153    pred/act E change: -0.889D-07 -0.110D-06
Maxdispl :   0.0070   ||displ|| :   0.0100   Lambda : -0.121D-06
Largest |displ|/coords:  0.0070 (   2)  0.0043 (   5)  0.0042 (   4)
................................................................................
.............................. CYCLE  107 ......................................
................................................................................
   1    -45.6099677 -0.456100E+02  0.418E-03    9.02       0.0  T
   2    -45.6099677 -0.390807E-08  0.314E-03    9.02       6.6  T
   3    -45.6099677 -0.239835E-08  0.450E-04    9.02      46.4  T
   4    -45.6099677 -0.633825E-09  0.158E-04    9.02     132.3  T
speedup  0.97
cpu  time for SCC    0.00 s
wall time for SCC    0.00 s
speedup  1.00
cpu  time for grad    0.01 s
wall time for grad    0.01 s
 E :    -45.36003488  G :  0.000140    pred/act E change: -0.717D-07 -0.935D-07
Maxdispl :   0.0033   ||displ|| :   0.0058   Lambda : -0.103D-06
Largest |displ|/coords:  0.0033 (   5)  0.0032 (   4)  0.0019 (   2)

   *** GEOMETRY OPTIMIZATION CONVERGED AFTER 107 ITERATIONS ***

------------------------------------------------------------------------
 total energy gain (kcal):     -0.0989
------------------------------------------------------------------------
================
 final structure:
================
$coord
       -0.92803841642649        2.12236003563233       -0.69020415985270      S 
       -2.71608708145632        4.06188477069389       -1.55396900742121      O 
       -1.79992326355776       -0.39554675989363       -1.51362169751789      O 
        1.49202456421799        2.67530921163401       -2.27668873549840      O 
       -0.35673071376234        2.23353793694571        1.96650597620924      O 
        0.89999536792834       -4.67793663478284        4.79407807401806      O 
        0.65846014013519       -4.98304700878313        6.56284134141048      H 
       -0.68374552156484       -3.92530241407408        4.17614426304646      H 
        3.67686923640240       -0.55729712264348        3.54422177486462      O 
        2.27054896346134        0.59929388020886        3.28588072026144      H 
        2.90733604269766       -2.17947684465268        4.00255825018886      H 
       -3.09770737470062       -1.99029262126986        3.16913496735005      O 
       -2.88374709471153       -1.99401504579897        1.34795375423444      H 
       -2.48659000879435       -0.33408195811469        3.63947086251173      H 
        5.05470102331234       -0.37680407907127       -1.13561695928528      O 
        6.62378491806378        0.53209216487459       -1.15297651097776      H 
        4.64735324148221       -0.65857307813730        0.69902555350252      H 
        2.88995975870357        1.42380953029580       -1.87020327000667      H 
       -3.27566118116147        1.67343473835450       -5.53944072295124      N 
       -3.23412956665596        3.16183006173168       -4.02106554785534      H 
       -2.69683307131171        0.22035907946673       -4.24739592849528      H 
       -5.01033332237071        1.37379894829516       -6.29826668995945      H 
       -1.95150663989371        1.99466317129679       -6.88836626995260      H 
$end
 
 Bond Distances (Angstroems)
 ---------------------------
S1-O2=1.4689         S1-O3=1.4758         S1-O4=1.5590         S1-O5=1.4392         O2-S1=1.4689         O3-S1=1.4758         
O4-S1=1.5590         O4-H18=1.0159        O5-S1=1.4392         O6-H7=0.9584         O6-H8=0.9838         H7-O6=0.9584         
H8-O6=0.9838         O9-H10=0.9732        O9-H11=0.9806        H10-O9=0.9732        H11-O9=0.9806        O12-H13=0.9704       
O12-H14=0.9668       H13-O12=0.9704       H14-O12=0.9668       O15-H16=0.9596       O15-H17=1.0056       H16-O15=0.9596       
H17-O15=1.0056       H18-O4=1.0159        N19-H20=1.1254       N19-H21=1.0736       N19-H22=1.0144       N19-H23=1.0146       
H20-N19=1.1254       H21-N19=1.0736       H22-N19=1.0144       H23-N19=1.0146       
 N  H  Rav=1.0570 sigma=0.0463  Rmin=1.0144  Rmax=1.1254     4
 O  H  Rav=0.9794 sigma=0.0187  Rmin=0.9584  Rmax=1.0159     9
 S  O  Rav=1.4857 sigma=0.0445  Rmin=1.4392  Rmax=1.5590     4
 
 selected bond angles (degree)
 --------------------
O3-S1-O2=109.73                O4-S1-O2=103.32                O4-S1-O3=105.50                O5-S1-O2=114.25                
O5-S1-O3=113.02                O5-S1-O4=110.23                H18-O4-S1=111.21               H8-O6-H7=106.21                
H11-O9-H10=105.53              
 
 selected dihedral angles (degree)
 ---------------------------------
H18-O4-S1-O2=180.90           H18-O4-S1-O3=296.09           H18-O4-S1-O5= 58.41           
 
 CMA Distance (Angstroems)
 ---------------------------
R(CMA):  2.1225

========================================================================
 FINAL SINGLEPOINT CALCULATION ON OPTIMIZED GEOMETRY
========================================================================

 Ncao       : 59
 Nao        : 58
 Nshell     : 34
 Nel        : 72
 T(el)      :   300.0
 intcut     :    25.0
 scfconv/Eh :  0.100E-05
   qconv/e  :  0.100E-03
 intneglect :  0.100E-07
 broydamp   :      0.250
 iter      E             dE          RMSdq      gap      omega  full diag
   1    -45.6099677 -0.456100E+02  0.458E-05    9.02       0.0  T
   2    -45.6099677 -0.174794E-11  0.293E-05    9.02     711.2  T
   3    -45.6099677 -0.817124E-12  0.789E-06    9.02    2644.3  T
speedup  0.83
cpu  time for SCC    0.00 s
wall time for SCC    0.00 s

   *** convergence criteria satisfied after 3 iterations ***

          eigenvalues
 #    :          24         25         26         27         28         29         30         31
 occ. :        2.000      2.000      2.000      2.000      2.000      2.000      2.000      2.000
 eps  :       -13.488    -13.296    -13.064    -12.666    -12.424    -12.225    -12.128    -12.079
 #    :          32         33         34         35         36         37         38         39
 occ. :        2.000      2.000      2.000      2.000      2.000      0.000      0.000      0.000
 eps  :       -11.994    -11.926    -11.611    -11.506    -11.440     -2.424     -1.212     -0.252
 #    :          40         41         42         43         44         45         46         47
 occ. :        0.000      0.000      0.000      0.000      0.000      0.000      0.000      0.000
 eps  :         0.515      1.263      1.503      2.288      3.226      3.957      4.363      4.923


   #   Z            q   n(s)   n(p)   n(d)      C6AA      α(0)
   1  16 S      1.678  1.590  1.787  0.945    89.259    15.901
   2   8 O     -0.713  1.771  4.942  0.000    28.998     7.222
   3   8 O     -0.763  1.778  4.985  0.000    30.479     7.402
   4   8 O     -0.649  1.764  4.884  0.000    26.355     6.930
   5   8 O     -0.706  1.755  4.951  0.000    28.871     7.204
   6   8 O     -0.611  1.751  4.861  0.000    25.464     6.811
   7   1 H      0.279  0.721  0.000  0.000     0.788     1.394
   8   1 H      0.326  0.674  0.000  0.000     0.649     1.265
   9   8 O     -0.628  1.756  4.872  0.000    25.876     6.866
  10   1 H      0.311  0.689  0.000  0.000     0.688     1.303
  11   1 H      0.328  0.672  0.000  0.000     0.643     1.260
  12   8 O     -0.604  1.740  4.864  0.000    25.283     6.786
  13   1 H      0.308  0.692  0.000  0.000     0.699     1.313
  14   1 H      0.302  0.698  0.000  0.000     0.715     1.328
  15   8 O     -0.616  1.762  4.853  0.000    25.562     6.824
  16   1 H      0.293  0.707  0.000  0.000     0.743     1.354
  17   1 H      0.346  0.654  0.000  0.000     0.599     1.216
  18   1 H      0.383  0.617  0.000  0.000     0.515     1.127
  19   7 N     -0.350  1.269  4.081  0.000    28.991     7.997
  20   1 H      0.315  0.685  0.000  0.000     0.667     1.277
  21   1 H      0.296  0.704  0.000  0.000     0.725     1.334
  22   1 H      0.238  0.762  0.000  0.000     0.932     1.512
  23   1 H      0.238  0.762  0.000  0.000     0.931     1.512

 Mol. C6AA /au·bohr⁶  :       4502.873028
 Mol. C8AA /au·bohr⁸  :      99151.245683
 Mol. α(0) /au        :         97.137372

 
 Wiberg/Mayer (AO) data. WBOs > 0.1 written file <wbo>
 largest (>0.05) Wiberg bond orders for each atom
           total WBO             WBO to atom ...
     1  S   4.841    O    5 1.376    O    2 1.248    O    3 1.221    O    4 0.963
     2  O   1.804    S    1 1.248    H   20 0.205    O    3 0.101    O    5 0.097    N   19 0.075    O    4 0.064
     3  O   1.726    S    1 1.221    H   21 0.120    O    5 0.104    O    2 0.101    O    4 0.080    N   19 0.051
     4  O   1.937    S    1 0.963    H   18 0.691    O    5 0.087    O    3 0.080    O    2 0.064
     5  O   1.756    S    1 1.376    O    3 0.104    O    2 0.097    O    4 0.087
     6  O   1.864    H    7 0.919    H    8 0.827    H   11 0.057
     7  H   0.922    O    6 0.919
     8  H   0.894    O    6 0.827    O   12 0.066
     9  O   1.905    H   10 0.861    H   11 0.833    H   17 0.110
    10  H   0.903    O    9 0.861
    11  H   0.893    O    9 0.833    O    6 0.057
    12  O   1.882    H   14 0.886    H   13 0.869    H    8 0.066
    13  H   0.905    O   12 0.869
    14  H   0.909    O   12 0.886
    15  O   1.930    H   16 0.912    H   17 0.769    H   18 0.145
    16  H   0.914    O   15 0.912
    17  H   0.880    O   15 0.769    O    9 0.110
    18  H   0.853    O    4 0.691    O   15 0.145
    19  N   3.488    H   23 0.940    H   22 0.940    H   21 0.782    H   20 0.683    O    2 0.075    O    3 0.051
    20  H   0.901    N   19 0.683    O    2 0.205
    21  H   0.912    N   19 0.782    O    3 0.120
    22  H   0.943    N   19 0.940
    23  H   0.943    N   19 0.940
 MOs/occ written to file <molden.input>
 
molecular dipole:
                 x           y           z       tot (Debye)
 q only:       -0.757       0.138      -2.673
   full:       -0.757       0.403      -2.598       6.955
molecular quadrupole (traceless):
                xx          xy          yy          xz          yz          zz
 q only:       -0.455       1.704     -18.300      12.691      -7.035      18.755
  q+dip:       -1.104       3.231     -19.631      12.082      -6.947      20.735
   full:       -0.934       3.262     -19.933      12.088      -7.210      20.867

SCC energy    :     -45.6099677
rep           :       0.2498136
ES            :       0.2380312
AES           :      -0.0625307
AXC           :      -0.0085020
disp          :      -0.0160144
XB            :       0.0000000
fix           :       0.0000000
total E       :     -45.3600349
atomizationE  :       4.4430974     2788.09
(atE without considering molecular charge,
 total energy contains solvation terms)
H-L gap (eV)  :          9.0165
optimized geometry written to: xtbopt.xyz


------------------------------------------------------------------------
 * finished run on 2019/09/16 at 11:44:00.124     
------------------------------------------------------------------------
 total:
 * wall-time:     0 d,  0 h,  0 min,  1.977 sec
 *  cpu-time:     0 d,  0 h,  0 min,  1.958 sec
 * ratio c/w:     0.990 speedup
 SCF:
 * wall-time:     0 d,  0 h,  0 min,  0.128 sec
 *  cpu-time:     0 d,  0 h,  0 min,  0.125 sec
 * ratio c/w:     0.980 speedup
 ANC optimizer:
 * wall-time:     0 d,  0 h,  0 min,  1.825 sec
 *  cpu-time:     0 d,  0 h,  0 min,  1.811 sec
 * ratio c/w:     0.992 speedup

