      -----------------------------------------------------------      
     |                   =====================                   |     
     |                           x T B                           |     
     |                   =====================                   |     
     |                         S. Grimme                         |     
     |          Mulliken Center for Theoretical Chemistry        |     
     |                    University of Bonn                     |     
     |                 Version 6.0.1 (SAW181210)                 |     
      -----------------------------------------------------------      

   This program is distributed in the hope that it will be useful,
   but WITHOUT ANY WARRANTY; without even the implied warranty of
   MERCHANTABILITY or FITNESS FOR A PARTICULAR PURPOSE.
   
   FOR NON-COMMERCIAL, ACADEMIA USE ONLY.
   
   Cite this work as:
   S. Grimme, C. Bannwarth, P. Shushkov, J. Comput. Theory Chem., 2017,
   13, 1989-2009.
   C. Bannwarth, S. Ehlert and S. Grimme., ChemRxiv, 2018, preprint.
   http://doi.org/10.26434/chemrxiv.7246238.v1
   
   for sTDA-xTB:
   S. Grimme and C. Bannwarth, J. Chem. Phys., 2016, 145, 054103.
   
   in the mass-spec context:
   V. Asgeirsson, C. Bauer and S. Grimme, Chem. Sci., 2017, 8, 4879.
   
   if GBSA is used:
   P. Shushkov, F. März and S. Grimme, unpublished.
   
   for ANC optimizer:
   S. Grimme, unpublished.
   Rational Function algorithm used in ANCopt:
   F. Eckert, P. Pulay, H.-J. Werner, J. Comput. Chem., 1997, 18, 1473.
   
   with help from (in alphabetical order)
   C. Bannwarth, F. Bohle, G. Brandenburg, E. Caldeweyher, M. Checinski,
   S. Dohm, S. Ehlert, S. Ehrlich, F. März, H. Neugebauer, J. Pisarek,
   P. Pracht, P. Shushkov, and S. Spicher.
   
 * started run on 2019/09/16 at 11:46:37.378     
========================================================================
 # omp threads = 1
========================================================================
number of atoms            : 23
number of electrons        : 72
charge                     : 0
spin                       : .0
first test random number   : .4506

########################################################################
# WARNING! Please study the warnings concerning your input carefully
#  - XTBPATH is not set, using XTBHOME instead
#  - the use of '-opt' is discouraged, please use '--opt' next time
#  - the use of '-chrg' is discouraged, please use '--chrg' next time
#  - the use of '-uhf' is discouraged, please use '--uhf' next time
########################################################################

           ------------------------------------------------- 
          |                 G F N 2 - x T B                 |
          | Geometry, Frequencies, Noncovalent interactions |
          |            JCTC 2018 parametrisation            |
           ------------------------------------------------- 
      method parameters     
 k(s)        :  1.8500
 k(p)        :  2.2300
 k(d)        :  2.2300
 k(f)        :  2.0000
 kEN (H0ij)  : -2.0000
 D4 a1       :  0.5200
 D4 a2       :  5.0000
 D4 s6       :  1.0000
 D4 s8       :  2.7000
 D4 s9       :  5.0000
 alphaj      :  2.0000


            Z     q(EN)     CN     RAES       Cart. coordinates
     1  S   6.0    0.68    4.08    3.82     0.41991    -1.33289    -0.61644
     2  O   6.0   -0.30    1.16    1.80    -1.53948    -1.31238    -2.63844
     3  O   6.0   -0.33    1.27    1.80     2.01900     0.97427    -0.83566
     4  O   6.0   -0.31    1.18    1.80    -0.83340    -1.37012     1.90466
     5  O   6.0   -0.30    1.18    1.80     2.03351    -3.62331    -0.89633
     6  O   6.0   -0.28    1.93    1.82    -6.07959     4.61833     2.01432
     7  H   1.0    0.14    0.97    1.43    -6.75768     6.26943     1.65558
     8  H   1.0    0.15    0.99    1.43    -4.27086     4.81755     1.95573
     9  O   6.0   -0.27    1.97    1.82    -0.64921     3.93761     2.67021
    10  H   1.0    0.17    1.02    1.43    -0.85757     2.15306     2.96445
    11  H   1.0    0.16    0.99    1.43     0.58873     4.06514     1.34135
    12  O   6.0   -0.29    2.07    1.83     7.05658    -4.36856    -0.81965
    13  H   1.0    0.15    0.97    1.43     7.75861    -5.26430     0.60141
    14  H   1.0    0.17    1.03    1.43     5.25577    -4.60650    -0.69681
    15  O   6.0   -0.22    2.88    2.50     6.58033     0.19701    -2.35579
    16  H   1.0    0.12    0.96    1.43     6.75799     0.24503    -4.21482
    17  H   1.0    0.16    1.10    1.44     4.86422     0.68669    -1.80334
    18  H   1.0    0.14    1.07    1.44     7.09894    -1.45192    -1.64616
    19  N   5.0   -0.14    3.92    2.65    -5.88916    -0.92683     0.28315
    20  H   1.0    0.08    0.99    1.43    -7.00341    -2.51805     0.38767
    21  H   1.0    0.11    1.03    1.43    -4.93714    -0.91213    -1.41328
    22  H   1.0    0.09    0.99    1.43    -7.00907     0.65862     0.41201
    23  H   1.0    0.11    1.02    1.43    -4.60704    -0.93576     1.74620

  Z AO/shell   Hii/eV     exponent
  1     Wed Apr 25 08:07:45 CEST 2018   EN: 2.200 GM2: 0.406  GM3: 0.0800  RAES: 1.40
     1s    -10.707211    1.230000
  7     Wed Apr 25 08:07:45 CEST 2018   EN: 3.040 GM2: 0.461  GM3:-0.0640  RAES: 1.90
     2s    -16.686243    2.339881
     2p    -12.523956    2.014332
  8     Wed Apr 25 08:07:45 CEST 2018   EN: 3.440 GM2: 0.452  GM3:-0.0517  RAES: 1.80
     2s    -20.229985    2.439742
     2p    -15.503117    2.137023
 16     Tue Apr 24 11:44:34 CEST 2018   EN: 2.580 GM2: 0.340  GM3:-0.0502  RAES: 3.10
     3s    -20.029654    1.981333
     3p    -11.377694    2.025643
     3d     -0.420282    1.702555
 no old-style atom pair restraining (fixing) potential

molecular fragmentation (1/2 indicates fragments):
11111222222222222222222
# atoms in fragment 1/2:     5    18
 fragment masses (1/2) :       96.06       91.11
CMA distance (Bohr)    :   2.211
constraining FC (au)   :  0.0500
           ------------------------------------------------- 
          |        Self-Consistent Charge Iterations        |
           ------------------------------------------------- 

 Ncao       : 59
 Nao        : 58
 Nshell     : 34
 Nel        : 72
 T(el)      :   300.0
 intcut     :    25.0
 scfconv/Eh :  0.100E-05
   qconv/e  :  0.100E-03
 intneglect :  0.100E-07
 broydamp   :      0.250
 iter      E             dE          RMSdq      gap      omega  full diag
   1    -45.4628693 -0.454629E+02  0.713E+00   10.50       0.0  T
   2    -45.5004708 -0.376015E-01  0.513E+00   10.00       1.0  T
   3    -45.5323706 -0.318997E-01  0.113E+00    7.21       1.0  T
   4    -45.5359453 -0.357475E-02  0.524E-01    7.17       1.0  T
   5    -45.5366036 -0.658302E-03  0.223E-01    7.03       1.0  T
   6    -45.5367975 -0.193925E-03  0.116E-01    7.06       1.0  T
   7    -45.5368671 -0.695657E-04  0.438E-02    7.13       1.0  T
   8    -45.5368739 -0.675515E-05  0.255E-02    7.13       1.0  T
   9    -45.5368773 -0.347171E-05  0.867E-03    7.13       2.4  T
  10    -45.5368776 -0.269862E-06  0.175E-03    7.12      11.9  T
  11    -45.5368776 -0.129845E-07  0.835E-04    7.12      25.0  T
  12    -45.5368776 -0.312644E-08  0.319E-04    7.12      65.4  T
speedup  1.00
cpu  time for SCC    0.01 s
wall time for SCC    0.01 s

   *** convergence criteria satisfied after 12 iterations ***

          eigenvalues
 #    :          24         25         26         27         28         29         30         31
 occ. :        2.000      2.000      2.000      2.000      2.000      2.000      2.000      2.000
 eps  :       -11.900    -11.687    -11.589    -11.551    -10.721    -10.235     -9.989     -9.505
 #    :          32         33         34         35         36         37         38         39
 occ. :        2.000      2.000      2.000      2.000      2.000      0.000      0.000      0.000
 eps  :        -9.269     -9.218     -8.997     -8.941     -8.783     -1.661     -1.471      0.903
 #    :          40         41         42         43         44         45         46         47
 occ. :        0.000      0.000      0.000      0.000      0.000      0.000      0.000      0.000
 eps  :         2.290      2.337      3.046      3.243      3.402      3.461      3.934      4.770


   #   Z            q   n(s)   n(p)   n(d)      C6AA      α(0)
   1  16 S      1.442  1.607  1.935  1.017    94.887    16.395
   2   8 O     -0.792  1.780  5.012  0.000    31.354     7.507
   3   8 O     -0.792  1.771  5.021  0.000    31.337     7.505
   4   8 O     -0.796  1.779  5.016  0.000    31.452     7.519
   5   8 O     -0.791  1.776  5.015  0.000    31.312     7.502
   6   8 O     -0.608  1.739  4.869  0.000    25.380     6.799
   7   1 H      0.274  0.726  0.000  0.000     0.806     1.410
   8   1 H      0.322  0.678  0.000  0.000     0.658     1.274
   9   8 O     -0.619  1.736  4.883  0.000    25.654     6.836
  10   1 H      0.309  0.691  0.000  0.000     0.696     1.310
  11   1 H      0.294  0.706  0.000  0.000     0.740     1.351
  12   8 O     -0.607  1.729  4.878  0.000    25.348     6.795
  13   1 H      0.291  0.709  0.000  0.000     0.747     1.358
  14   1 H      0.351  0.649  0.000  0.000     0.585     1.201
  15   8 O     -0.399  1.643  4.757  0.000    20.783     6.157
  16   1 H      0.373  0.627  0.000  0.000     0.538     1.152
  17   1 H      0.419  0.581  0.000  0.000     0.451     1.055
  18   1 H      0.417  0.583  0.000  0.000     0.455     1.060
  19   7 N     -0.248  1.232  4.015  0.000    26.433     7.636
  20   1 H      0.254  0.746  0.000  0.000     0.869     1.461
  21   1 H      0.314  0.686  0.000  0.000     0.672     1.285
  22   1 H      0.279  0.721  0.000  0.000     0.781     1.384
  23   1 H      0.314  0.686  0.000  0.000     0.673     1.285

 Mol. C6AA /au·bohr⁶  :       4519.581335
 Mol. C8AA /au·bohr⁸  :     100178.392876
 Mol. α(0) /au        :         97.238262

 
 Wiberg/Mayer (AO) data. WBOs > 0.1 written file <wbo>
 largest (>0.05) Wiberg bond orders for each atom
           total WBO             WBO to atom ...
     1  S   5.057    O    5 1.285    O    2 1.276    O    4 1.262    O    3 1.204
     2  O   1.651    S    1 1.276    O    4 0.104    O    5 0.094    O    3 0.089    H   21 0.054
     3  O   1.696    S    1 1.204    H   17 0.144    O    5 0.098    O    2 0.089    O    4 0.086
     4  O   1.656    S    1 1.262    O    2 0.104    O    5 0.093    O    3 0.086
     5  O   1.648    S    1 1.285    O    3 0.098    O    2 0.094    O    4 0.093    H   14 0.052
     6  O   1.821    H    7 0.924    H    8 0.869
     7  H   0.925    O    6 0.924
     8  H   0.896    O    6 0.869
     9  O   1.833    H   11 0.897    H   10 0.871
    10  H   0.905    O    9 0.871
    11  H   0.914    O    9 0.897
    12  O   1.901    H   13 0.907    H   14 0.820    H   18 0.108
    13  H   0.915    O   12 0.907
    14  H   0.877    O   12 0.820    O    5 0.052
    15  O   2.333    H   16 0.854    H   18 0.713    H   17 0.670
    16  H   0.861    O   15 0.854
    17  H   0.824    O   15 0.670    O    3 0.144
    18  H   0.826    O   15 0.713    O   12 0.108
    19  N   3.595    H   20 0.931    H   22 0.909    H   23 0.855    H   21 0.840
    20  H   0.936    N   19 0.931
    21  H   0.901    N   19 0.840    O    2 0.054
    22  H   0.922    N   19 0.909
    23  H   0.901    N   19 0.855
 MOs/occ written to file <molden.input>
 
molecular dipole:
                 x           y           z       tot (Debye)
 q only:       -0.490       0.569      -0.828
   full:       -0.461       0.387      -0.910       2.773
molecular quadrupole (traceless):
                xx          xy          yy          xz          yz          zz
 q only:       49.191       2.448     -24.686     -12.220      -9.053     -24.504
  q+dip:       45.200       0.248     -20.887      -9.666     -11.595     -24.312
   full:       45.272       0.197     -20.727      -9.789     -11.844     -24.545

SCC energy    :     -45.5368776
rep           :       0.2623098
ES            :       0.3691689
AES           :      -0.0711024
AXC           :      -0.0097037
disp          :      -0.0147377
XB            :       0.0000000
fix           :       0.0000000
total E       :     -45.2745395
atomizationE  :       4.3576020     2734.44
(atE without considering molecular charge,
 total energy contains solvation terms)
H-L gap (eV)  :          7.1225
           ------------------------------------------------- 
          |                 ===============                 |
          |                   A N C O P T                   |
          |                 ===============                 |
          |          Approximate Normal Coordinate          |
          |           Rational Function Optimizer           |
           ------------------------------------------------- 
dumping coords to <xtbopt.coord> and <xtbopt.log>
 optlevel               2
 Maxcycle             460
 Maxmicro              25
 Econv         1.000000000000000E-007
 Gconv         2.000000000000000E-004
 Maxdispl       1.00000000000000     
 Hlow          5.000000000000000E-003
 S6             20.0000000000000     
 Nvar               63

generating ANC from model Hessian ...
 Shifting diagonal of input Hessian by   5.076599046132999E-003
 Lowest  eigenvalues of input Hessian
    0.005000   -0.000000   -0.000000    0.000000    0.000000    0.000000
    0.000000    0.005196    0.005397    0.005436    0.005552    0.005640
    0.005755    0.005991    0.006710    0.007416    0.007768    0.007876
 Highest eigenvalues
    1.421989    1.550661    1.565459    3.075588    3.076945    3.084354
 
cpu  time for ANC gen    0.01 s
wall time for ANC gen    0.01 s
................................................................................
.............................. CYCLE    1 ......................................
................................................................................
   1    -45.5368776 -0.455369E+02  0.859E-05    7.12       0.0  T
   2    -45.5368776 -0.172165E-10  0.668E-05    7.12     311.9  T
   3    -45.5368776 -0.130669E-10  0.332E-05    7.12     627.8  T
speedup  0.83
cpu  time for SCC    0.00 s
wall time for SCC    0.00 s
speedup  1.00
cpu  time for grad    0.01 s
wall time for grad    0.01 s
 E :    -45.27453952  G :  0.133906    pred/act E change:  0.000D+00  0.518D-08
Maxdispl :   0.3597   ||displ|| :   0.5988   Lambda : -0.332D-01
Largest |displ|/coords:  0.3597 (  18)  0.2250 (  24)  0.1651 (  29)
................................................................................
.............................. CYCLE    2 ......................................
................................................................................
   1    -45.5465249 -0.455465E+02  0.508E-01    7.45       0.0  T
   2    -45.5468380 -0.313055E-03  0.373E-01    7.56       1.0  T
   3    -45.5469822 -0.144198E-03  0.101E-01    7.79       1.0  T
   4    -45.5470133 -0.311106E-04  0.292E-02    7.79       1.0  T
   5    -45.5470145 -0.115638E-05  0.957E-03    7.78       2.2  T
   6    -45.5470146 -0.136804E-06  0.490E-03    7.78       4.3  T
   7    -45.5470147 -0.694745E-07  0.215E-03    7.78       9.7  T
speedup  0.93
cpu  time for SCC    0.00 s
wall time for SCC    0.01 s
speedup  0.95
cpu  time for grad    0.01 s
wall time for grad    0.01 s
 E :    -45.30408391  G :  0.094622    pred/act E change:  0.000D+00 -0.295D-01
Maxdispl :   0.4392   ||displ|| :   0.6453   Lambda : -0.265D-01
Largest |displ|/coords:  0.4392 (  18)  0.2013 (  24)  0.1661 (  29)
................................................................................
.............................. CYCLE    3 ......................................
................................................................................
   1    -45.5600253 -0.455600E+02  0.405E-01    8.08       0.0  T
   2    -45.5606165 -0.591263E-03  0.277E-01    8.19       1.0  T
   3    -45.5608656 -0.249082E-03  0.104E-01    8.36       1.0  T
   4    -45.5608861 -0.204784E-04  0.297E-02    8.38       1.0  T
   5    -45.5608876 -0.148366E-05  0.116E-02    8.39       1.8  T
   6    -45.5608878 -0.243586E-06  0.600E-03    8.38       3.5  T
   7    -45.5608879 -0.122319E-06  0.255E-03    8.38       8.2  T
speedup  0.96
cpu  time for SCC    0.01 s
wall time for SCC    0.01 s
speedup  0.96
cpu  time for grad    0.01 s
wall time for grad    0.01 s
 E :    -45.32701106  G :  0.070153    pred/act E change: -0.226D-01 -0.229D-01
Maxdispl :   0.4344   ||displ|| :   0.6461   Lambda : -0.180D-01
Largest |displ|/coords:  0.4344 (  18)  0.1893 (  20)  0.1477 (   4)
................................................................................
.............................. CYCLE    4 ......................................
................................................................................
   1    -45.5674529 -0.455675E+02  0.391E-01    8.57       0.0  T
   2    -45.5682493 -0.796327E-03  0.263E-01    8.64       1.0  T
   3    -45.5685534 -0.304098E-03  0.115E-01    8.72       1.0  T
   4    -45.5685733 -0.199766E-04  0.305E-02    8.75       1.0  T
   5    -45.5685748 -0.147550E-05  0.117E-02    8.74       1.8  T
   6    -45.5685750 -0.232608E-06  0.588E-03    8.74       3.5  T
   7    -45.5685752 -0.120903E-06  0.258E-03    8.74       8.1  T
speedup  0.94
cpu  time for SCC    0.01 s
wall time for SCC    0.01 s
speedup  0.95
cpu  time for grad    0.01 s
wall time for grad    0.01 s
 E :    -45.34097747  G :  0.059088    pred/act E change: -0.188D-01 -0.140D-01
Maxdispl :   0.1836   ||displ|| :   0.5201   Lambda : -0.917D-02
Largest |displ|/coords:  0.1836 (  18)  0.1744 (   6)  0.1725 (   7)
................................................................................
.............................. CYCLE    5 ......................................
................................................................................
   1    -45.5784171 -0.455784E+02  0.332E-01    8.91       0.0  T
   2    -45.5787370 -0.319915E-03  0.240E-01    8.94       1.0  T
   3    -45.5788670 -0.129968E-03  0.909E-02    8.98       1.0  T
   4    -45.5788849 -0.178709E-04  0.205E-02    8.99       1.0  T
   5    -45.5788861 -0.128978E-05  0.733E-03    8.98       2.8  T
   6    -45.5788863 -0.108090E-06  0.397E-03    8.98       5.2  T
   7    -45.5788863 -0.347763E-07  0.137E-03    8.98      15.3  T
speedup  0.94
cpu  time for SCC    0.00 s
wall time for SCC    0.01 s
speedup  0.96
cpu  time for grad    0.01 s
wall time for grad    0.01 s
 E :    -45.34732215  G :  0.052951    pred/act E change: -0.128D-01 -0.634D-02
Maxdispl :   0.2410   ||displ|| :   0.5138   Lambda : -0.769D-02
Largest |displ|/coords:  0.2410 (   4)  0.1721 (   7)  0.1707 (  10)
................................................................................
.............................. CYCLE    6 ......................................
................................................................................
   1    -45.5678686 -0.455679E+02  0.612E-01    9.10       0.0  T
   2    -45.5680987 -0.230132E-03  0.461E-01    9.11       1.0  T
   3    -45.5682073 -0.108628E-03  0.904E-02    9.13       1.0  T
   4    -45.5682447 -0.373821E-04  0.210E-02    9.13       1.0  T
   5    -45.5682458 -0.104055E-05  0.679E-03    9.13       3.1  T
   6    -45.5682458 -0.421185E-07  0.406E-03    9.13       5.1  T
   7    -45.5682458 -0.187051E-07  0.105E-03    9.13      19.9  T
speedup  1.11
cpu  time for SCC    0.01 s
wall time for SCC    0.01 s
speedup  1.03
cpu  time for grad    0.01 s
wall time for grad    0.01 s
 E :    -45.34800302  G :  0.077482    pred/act E change: -0.582D-02 -0.681D-03
Maxdispl :   0.2260   ||displ|| :   0.5174   Lambda : -0.201D-01
Largest |displ|/coords:  0.2260 (   6)  0.1925 (   5)  0.1915 (   8)
................................................................................
.............................. CYCLE    7 ......................................
................................................................................
   1    -45.5927188 -0.455927E+02  0.779E-01    9.23       0.0  T
   2    -45.5930485 -0.329676E-03  0.589E-01    9.23       1.0  T
   3    -45.5932434 -0.194897E-03  0.109E-01    9.25       1.0  T
   4    -45.5932938 -0.504074E-04  0.220E-02    9.25       1.0  T
   5    -45.5932949 -0.111541E-05  0.107E-02    9.25       2.0  T
   6    -45.5932950 -0.507738E-07  0.560E-03    9.25       3.7  T
   7    -45.5932950 -0.228803E-07  0.966E-04    9.25      21.6  T
speedup  0.93
cpu  time for SCC    0.01 s
wall time for SCC    0.01 s
speedup  0.94
cpu  time for grad    0.01 s
wall time for grad    0.01 s
 E :    -45.35182136  G :  0.055843    pred/act E change: -0.486D-02 -0.382D-02
Maxdispl :   0.1253   ||displ|| :   0.3094   Lambda : -0.545D-02
Largest |displ|/coords:  0.1253 (  14)  0.1181 (   7)  0.0967 (   9)
................................................................................
.............................. CYCLE    8 ......................................
................................................................................
   1    -45.5944436 -0.455944E+02  0.282E-01    9.31       0.0  T
   2    -45.5945106 -0.670372E-04  0.211E-01    9.31       1.0  T
   3    -45.5945430 -0.323670E-04  0.541E-02    9.32       1.0  T
   4    -45.5945513 -0.833196E-05  0.154E-02    9.32       1.4  T
   5    -45.5945517 -0.444557E-06  0.462E-03    9.32       4.5  T
   6    -45.5945517 -0.183289E-07  0.286E-03    9.32       7.3  T
speedup  0.89
cpu  time for SCC    0.00 s
wall time for SCC    0.00 s
speedup  1.02
cpu  time for grad    0.01 s
wall time for grad    0.01 s
 E :    -45.35588317  G :  0.040206    pred/act E change: -0.128D-01 -0.406D-02
Maxdispl :   0.1328   ||displ|| :   0.4187   Lambda : -0.709D-02
Largest |displ|/coords:  0.1328 (   8)  0.1259 (   1)  0.1204 (  19)
................................................................................
.............................. CYCLE    9 ......................................
................................................................................
   1    -45.5975335 -0.455975E+02  0.488E-01    9.42       0.0  T
   2    -45.5977378 -0.204285E-03  0.363E-01    9.43       1.0  T
   3    -45.5978488 -0.111001E-03  0.954E-02    9.43       1.0  T
   4    -45.5978716 -0.227889E-04  0.288E-02    9.44       1.0  T
   5    -45.5978727 -0.112950E-05  0.853E-03    9.44       2.4  T
   6    -45.5978728 -0.695423E-07  0.534E-03    9.44       3.9  T
   7    -45.5978728 -0.347820E-07  0.121E-03    9.44      17.3  T
speedup  0.94
cpu  time for SCC    0.00 s
wall time for SCC    0.01 s
speedup  1.03
cpu  time for grad    0.01 s
wall time for grad    0.01 s
 E :    -45.35764800  G :  0.053252    pred/act E change: -0.299D-02 -0.176D-02
Maxdispl :   0.1466   ||displ|| :   0.3886   Lambda : -0.887D-02
Largest |displ|/coords:  0.1466 (  16)  0.1277 (   8)  0.1176 (  19)
................................................................................
.............................. CYCLE   10 ......................................
................................................................................
   1    -45.6046644 -0.456047E+02  0.443E-01    9.41       0.0  T
   2    -45.6047698 -0.105385E-03  0.334E-01    9.41       1.0  T
   3    -45.6048264 -0.566076E-04  0.612E-02    9.40       1.0  T
   4    -45.6048429 -0.165249E-04  0.168E-02    9.40       1.2  T
   5    -45.6048435 -0.575196E-06  0.590E-03    9.40       3.5  T
   6    -45.6048435 -0.259276E-07  0.316E-03    9.40       6.6  T
speedup  1.11
cpu  time for SCC    0.00 s
wall time for SCC    0.00 s
speedup  1.00
cpu  time for grad    0.01 s
wall time for grad    0.01 s
 E :    -45.35976162  G :  0.032885    pred/act E change: -0.417D-02 -0.211D-02
Maxdispl :   0.0627   ||displ|| :   0.1872   Lambda : -0.339D-02
Largest |displ|/coords:  0.0627 (  13)  0.0574 (  60)  0.0573 (  30)
................................................................................
.............................. CYCLE   11 ......................................
................................................................................
   1    -45.6118948 -0.456119E+02  0.200E-01    9.43       0.0  T
   2    -45.6119612 -0.664330E-04  0.149E-01    9.44       1.0  T
   3    -45.6120016 -0.403341E-04  0.540E-02    9.44       1.0  T
   4    -45.6120075 -0.594022E-05  0.160E-02    9.45       1.3  T
   5    -45.6120080 -0.458851E-06  0.635E-03    9.45       3.3  T
   6    -45.6120080 -0.346066E-07  0.328E-03    9.45       6.4  T
   7    -45.6120080 -0.137856E-07  0.705E-04    9.45      29.6  T
speedup  0.94
cpu  time for SCC    0.01 s
wall time for SCC    0.01 s
speedup  1.03
cpu  time for grad    0.01 s
wall time for grad    0.01 s
 E :    -45.36181665  G :  0.022545    pred/act E change: -0.511D-02 -0.206D-02
Maxdispl :   0.1335   ||displ|| :   0.3158   Lambda : -0.399D-02
Largest |displ|/coords:  0.1335 (  29)  0.1066 (  11)  0.0914 (  60)
................................................................................
.............................. CYCLE   12 ......................................
................................................................................
   1    -45.6170408 -0.456170E+02  0.273E-01    9.42       0.0  T
   2    -45.6170769 -0.360852E-04  0.198E-01    9.43       1.0  T
   3    -45.6171001 -0.231369E-04  0.450E-02    9.44       1.0  T
   4    -45.6171027 -0.267762E-05  0.152E-02    9.44       1.4  T
   5    -45.6171030 -0.215771E-06  0.301E-03    9.44       6.9  T
   6    -45.6171030 -0.115840E-07  0.204E-03    9.44      10.2  T
speedup  1.11
cpu  time for SCC    0.01 s
wall time for SCC    0.00 s
speedup  1.02
cpu  time for grad    0.01 s
wall time for grad    0.01 s
 E :    -45.36270493  G :  0.031499    pred/act E change: -0.176D-02 -0.888D-03
Maxdispl :   0.0610   ||displ|| :   0.1746   Lambda : -0.189D-02
Largest |displ|/coords:  0.0610 (  15)  0.0564 (  18)  0.0538 (  12)
................................................................................
.............................. CYCLE   13 ......................................
................................................................................
   1    -45.6188383 -0.456188E+02  0.128E-01    9.39       0.0  T
   2    -45.6188561 -0.178397E-04  0.951E-02    9.39       1.0  T
   3    -45.6188653 -0.912796E-05  0.270E-02    9.39       1.0  T
   4    -45.6188675 -0.222886E-05  0.745E-03    9.39       2.8  T
   5    -45.6188676 -0.100505E-06  0.278E-03    9.39       7.5  T
   6    -45.6188676 -0.101882E-07  0.145E-03    9.39      14.4  T
speedup  0.89
cpu  time for SCC    0.00 s
wall time for SCC    0.00 s
speedup  0.93
cpu  time for grad    0.01 s
wall time for grad    0.01 s
 E :    -45.36371586  G :  0.014574    pred/act E change: -0.220D-02 -0.101D-02
Maxdispl :   0.1025   ||displ|| :   0.1989   Lambda : -0.916D-03
Largest |displ|/coords:  0.1025 (   7)  0.0690 (  19)  0.0646 (  21)
................................................................................
.............................. CYCLE   14 ......................................
................................................................................
   1    -45.6164699 -0.456165E+02  0.205E-01    9.34       0.0  T
   2    -45.6164981 -0.282249E-04  0.151E-01    9.34       1.0  T
   3    -45.6165146 -0.165123E-04  0.345E-02    9.34       1.0  T
   4    -45.6165180 -0.342924E-05  0.833E-03    9.34       2.5  T
   5    -45.6165182 -0.127903E-06  0.296E-03    9.34       7.0  T
   6    -45.6165182 -0.928335E-08  0.165E-03    9.34      12.7  T
speedup  0.89
cpu  time for SCC    0.00 s
wall time for SCC    0.00 s
speedup  1.02
cpu  time for grad    0.01 s
wall time for grad    0.01 s
 E :    -45.36360062  G :  0.024353    pred/act E change: -0.972D-03  0.115D-03
Maxdispl :   0.0810   ||displ|| :   0.1638   Lambda : -0.119D-02
Largest |displ|/coords:  0.0810 (   9)  0.0745 (   2)  0.0587 (  11)
................................................................................
.............................. CYCLE   15 ......................................
................................................................................
   1    -45.6213170 -0.456213E+02  0.151E-01    9.30       0.0  T
   2    -45.6213351 -0.181552E-04  0.112E-01    9.30       1.0  T
   3    -45.6213472 -0.120292E-04  0.261E-02    9.30       1.0  T
   4    -45.6213493 -0.216310E-05  0.692E-03    9.30       3.0  T
   5    -45.6213494 -0.889334E-07  0.272E-03    9.30       7.7  T
   6    -45.6213494 -0.442245E-08  0.134E-03    9.30      15.6  T
speedup  0.87
cpu  time for SCC    0.00 s
wall time for SCC    0.00 s
speedup  0.92
cpu  time for grad    0.01 s
wall time for grad    0.01 s
 E :    -45.36415789  G :  0.008141    pred/act E change: -0.476D-03 -0.557D-03
Maxdispl :   0.0999   ||displ|| :   0.1788   Lambda : -0.530D-03
Largest |displ|/coords:  0.0999 (  13)  0.0587 (   3)  0.0555 (  22)
................................................................................
.............................. CYCLE   16 ......................................
................................................................................
   1    -45.6169968 -0.456170E+02  0.165E-01    9.26       0.0  T
   2    -45.6170031 -0.634312E-05  0.125E-01    9.26       1.0  T
   3    -45.6170096 -0.645638E-05  0.147E-02    9.26       1.4  T
   4    -45.6170103 -0.664125E-06  0.497E-03    9.27       4.2  T
   5    -45.6170103 -0.317167E-07  0.210E-03    9.27       9.9  T
   6    -45.6170103 -0.490544E-08  0.114E-03    9.27      18.3  T
speedup  1.11
cpu  time for SCC    0.01 s
wall time for SCC    0.00 s
speedup  1.01
cpu  time for grad    0.01 s
wall time for grad    0.01 s
 E :    -45.36416011  G :  0.013845    pred/act E change: -0.613D-03 -0.222D-05
Maxdispl :   0.0611   ||displ|| :   0.1279   Lambda : -0.629D-03
Largest |displ|/coords:  0.0611 (  13)  0.0550 (  22)  0.0339 (  21)
................................................................................
.............................. CYCLE   17 ......................................
................................................................................
   1    -45.6217618 -0.456218E+02  0.142E-01    9.26       0.0  T
   2    -45.6217695 -0.777098E-05  0.107E-01    9.26       1.0  T
   3    -45.6217745 -0.497957E-05  0.207E-02    9.26       1.0  T
   4    -45.6217756 -0.108935E-05  0.475E-03    9.26       4.4  T
   5    -45.6217757 -0.342620E-07  0.185E-03    9.26      11.3  T
   6    -45.6217757 -0.312247E-08  0.105E-03    9.26      19.9  T
speedup  0.87
cpu  time for SCC    0.00 s
wall time for SCC    0.00 s
speedup  0.92
cpu  time for grad    0.01 s
wall time for grad    0.01 s
 E :    -45.36438839  G :  0.009846    pred/act E change: -0.274D-03 -0.228D-03
Maxdispl :   0.0643   ||displ|| :   0.1379   Lambda : -0.423D-03
Largest |displ|/coords:  0.0643 (   7)  0.0626 (   9)  0.0571 (  13)
................................................................................
.............................. CYCLE   18 ......................................
................................................................................
   1    -45.6211199 -0.456211E+02  0.134E-01    9.24       0.0  T
   2    -45.6211264 -0.647974E-05  0.976E-02    9.24       1.0  T
   3    -45.6211311 -0.472500E-05  0.204E-02    9.25       1.0  T
   4    -45.6211317 -0.547457E-06  0.572E-03    9.25       3.6  T
   5    -45.6211317 -0.479160E-07  0.153E-03    9.25      13.6  T
   6    -45.6211317 -0.295182E-08  0.925E-04    9.25      22.5  T
speedup  1.09
cpu  time for SCC    0.00 s
wall time for SCC    0.00 s
speedup  1.01
cpu  time for grad    0.01 s
wall time for grad    0.01 s
 E :    -45.36452165  G :  0.006990    pred/act E change: -0.319D-03 -0.133D-03
Maxdispl :   0.0385   ||displ|| :   0.0889   Lambda : -0.184D-03
Largest |displ|/coords:  0.0385 (  13)  0.0286 (   6)  0.0283 (  11)
................................................................................
.............................. CYCLE   19 ......................................
................................................................................
   1    -45.6196780 -0.456197E+02  0.737E-02    9.23       0.0  T
   2    -45.6196795 -0.149365E-05  0.540E-02    9.23       1.0  T
   3    -45.6196808 -0.126985E-05  0.102E-02    9.23       2.1  T
   4    -45.6196809 -0.146934E-06  0.233E-03    9.23       8.9  T
   5    -45.6196809 -0.117716E-07  0.929E-04    9.23      22.4  T
speedup  1.03
cpu  time for SCC    0.00 s
wall time for SCC    0.00 s
speedup  0.97
cpu  time for grad    0.01 s
wall time for grad    0.01 s
 E :    -45.36463822  G :  0.005103    pred/act E change: -0.215D-03 -0.117D-03
Maxdispl :   0.0671   ||displ|| :   0.1857   Lambda : -0.267D-03
Largest |displ|/coords:  0.0671 (   6)  0.0587 (   1)  0.0567 (   8)
................................................................................
.............................. CYCLE   20 ......................................
................................................................................
   1    -45.6213173 -0.456213E+02  0.160E-01    9.24       0.0  T
   2    -45.6213226 -0.533426E-05  0.118E-01    9.23       1.0  T
   3    -45.6213278 -0.523268E-05  0.217E-02    9.23       1.0  T
   4    -45.6213284 -0.520799E-06  0.464E-03    9.23       4.5  T
   5    -45.6213284 -0.474677E-07  0.219E-03    9.23       9.5  T
   6    -45.6213284 -0.717254E-08  0.124E-03    9.23      16.9  T
speedup  0.87
cpu  time for SCC    0.00 s
wall time for SCC    0.00 s
speedup  1.01
cpu  time for grad    0.01 s
wall time for grad    0.01 s
 E :    -45.36463277  G :  0.009733    pred/act E change: -0.929D-04  0.545D-05
Maxdispl :   0.0342   ||displ|| :   0.0702   Lambda : -0.262D-03
Largest |displ|/coords:  0.0342 (  12)  0.0210 (   6)  0.0209 (  15)
................................................................................
.............................. CYCLE   21 ......................................
................................................................................
   1    -45.6200850 -0.456201E+02  0.694E-02    9.23       0.0  T
   2    -45.6200866 -0.153277E-05  0.522E-02    9.23       1.0  T
   3    -45.6200877 -0.107816E-05  0.840E-03    9.23       2.5  T
   4    -45.6200879 -0.219057E-06  0.221E-03    9.23       9.4  T
   5    -45.6200879 -0.675838E-08  0.762E-04    9.23      27.4  T
speedup  1.05
cpu  time for SCC    0.00 s
wall time for SCC    0.00 s
speedup  0.98
cpu  time for grad    0.01 s
wall time for grad    0.01 s
 E :    -45.36478373  G :  0.004897    pred/act E change: -0.138D-03 -0.151D-03
Maxdispl :   0.0344   ||displ|| :   0.0605   Lambda : -0.701D-04
Largest |displ|/coords:  0.0344 (   7)  0.0260 (   6)  0.0184 (  11)
................................................................................
.............................. CYCLE   22 ......................................
................................................................................
   1    -45.6205838 -0.456206E+02  0.494E-02    9.24       0.0  T
   2    -45.6205844 -0.632374E-06  0.371E-02    9.24       1.0  T
   3    -45.6205849 -0.465793E-06  0.556E-03    9.24       3.7  T
   4    -45.6205850 -0.853944E-07  0.155E-03    9.24      13.4  T
   5    -45.6205850 -0.304468E-08  0.422E-04    9.24      49.4  T
speedup  0.77
cpu  time for SCC    0.00 s
wall time for SCC    0.00 s
speedup  0.87
cpu  time for grad    0.01 s
wall time for grad    0.01 s
 E :    -45.36483183  G :  0.004453    pred/act E change: -0.132D-03 -0.481D-04
Maxdispl :   0.0624   ||displ|| :   0.1345   Lambda : -0.111D-03
Largest |displ|/coords:  0.0624 (   6)  0.0513 (  11)  0.0470 (   7)
................................................................................
.............................. CYCLE   23 ......................................
................................................................................
   1    -45.6213368 -0.456213E+02  0.943E-02    9.28       0.0  T
   2    -45.6213384 -0.157033E-05  0.708E-02    9.28       1.0  T
   3    -45.6213394 -0.986024E-06  0.106E-02    9.28       2.0  T
   4    -45.6213396 -0.258077E-06  0.216E-03    9.28       9.6  T
   5    -45.6213396 -0.497037E-08  0.823E-04    9.28      25.3  T
speedup  0.98
cpu  time for SCC    0.00 s
wall time for SCC    0.00 s
speedup  1.06
cpu  time for grad    0.01 s
wall time for grad    0.01 s
 E :    -45.36490323  G :  0.004197    pred/act E change: -0.352D-04 -0.714D-04
Maxdispl :   0.0684   ||displ|| :   0.1415   Lambda : -0.804D-04
Largest |displ|/coords:  0.0684 (   6)  0.0582 (   7)  0.0455 (   1)
................................................................................
.............................. CYCLE   24 ......................................
................................................................................
   1    -45.6211692 -0.456212E+02  0.108E-01    9.30       0.0  T
   2    -45.6211709 -0.166895E-05  0.811E-02    9.30       1.0  T
   3    -45.6211725 -0.161112E-05  0.944E-03    9.30       2.2  T
   4    -45.6211727 -0.190558E-06  0.301E-03    9.30       6.9  T
   5    -45.6211727 -0.983406E-08  0.974E-04    9.30      21.4  T
   6    -45.6211727 -0.789065E-09  0.528E-04    9.30      39.5  T
speedup  0.87
cpu  time for SCC    0.00 s
wall time for SCC    0.00 s
speedup  1.00
cpu  time for grad    0.01 s
wall time for grad    0.01 s
 E :    -45.36495377  G :  0.006249    pred/act E change: -0.565D-04 -0.505D-04
Maxdispl :   0.0596   ||displ|| :   0.1581   Lambda : -0.121D-03
Largest |displ|/coords:  0.0596 (   4)  0.0588 (   6)  0.0548 (   3)
................................................................................
.............................. CYCLE   25 ......................................
................................................................................
   1    -45.6226236 -0.456226E+02  0.113E-01    9.32       0.0  T
   2    -45.6226265 -0.292793E-05  0.825E-02    9.32       1.0  T
   3    -45.6226282 -0.165455E-05  0.167E-02    9.32       1.2  T
   4    -45.6226285 -0.357250E-06  0.508E-03    9.32       4.1  T
   5    -45.6226286 -0.205418E-07  0.968E-04    9.32      21.5  T
   6    -45.6226286 -0.117753E-08  0.598E-04    9.32      34.9  T
speedup  1.11
cpu  time for SCC    0.00 s
wall time for SCC    0.00 s
speedup  1.02
cpu  time for grad    0.01 s
wall time for grad    0.01 s
 E :    -45.36500471  G :  0.005041    pred/act E change: -0.410D-04 -0.509D-04
Maxdispl :   0.0505   ||displ|| :   0.1120   Lambda : -0.738D-04
Largest |displ|/coords:  0.0505 (   6)  0.0411 (  11)  0.0405 (   2)

generating ANC from model Hessian ...
 Shifting diagonal of input Hessian by   5.133944125452239E-003
 Lowest  eigenvalues of input Hessian
    0.005000   -0.000000   -0.000000   -0.000000    0.000000    0.000000
    0.000000    0.005236    0.005506    0.005885    0.005913    0.006116
    0.006521    0.006734    0.008156    0.010141    0.012232    0.013853
 Highest eigenvalues
    1.401091    1.404665    1.487108    2.645097    3.360468    3.632375
 
cpu  time for ANC gen    0.01 s
wall time for ANC gen    0.01 s
................................................................................
.............................. CYCLE   26 ......................................
................................................................................
   1    -45.6215078 -0.456215E+02  0.879E-02    9.30       0.0  T
   2    -45.6215089 -0.108044E-05  0.661E-02    9.30       1.0  T
   3    -45.6215100 -0.111062E-05  0.714E-03    9.30       2.9  T
   4    -45.6215101 -0.101797E-06  0.165E-03    9.30      12.6  T
   5    -45.6215101 -0.350174E-08  0.883E-04    9.30      23.6  T
   6    -45.6215101 -0.105425E-08  0.395E-04    9.30      52.8  T
speedup  0.87
cpu  time for SCC    0.00 s
wall time for SCC    0.00 s
speedup  0.97
cpu  time for grad    0.01 s
wall time for grad    0.01 s
 E :    -45.36505098  G :  0.005945    pred/act E change:  0.000D+00 -0.463D-04
Maxdispl :   0.0507   ||displ|| :   0.0976   Lambda : -0.161D-03
Largest |displ|/coords:  0.0507 (  10)  0.0383 (   2)  0.0300 (   6)
................................................................................
.............................. CYCLE   27 ......................................
................................................................................
   1    -45.6217276 -0.456217E+02  0.947E-02    9.30       0.0  T
   2    -45.6217290 -0.140820E-05  0.716E-02    9.30       1.0  T
   3    -45.6217304 -0.141529E-05  0.804E-03    9.30       2.6  T
   4    -45.6217305 -0.144567E-06  0.235E-03    9.30       8.9  T
   5    -45.6217305 -0.700943E-08  0.885E-04    9.30      23.6  T
speedup  0.79
cpu  time for SCC    0.00 s
wall time for SCC    0.00 s
speedup  0.99
cpu  time for grad    0.01 s
wall time for grad    0.01 s
 E :    -45.36516249  G :  0.003193    pred/act E change:  0.000D+00 -0.112D-03
Maxdispl :   0.0987   ||displ|| :   0.1550   Lambda : -0.129D-03
Largest |displ|/coords:  0.0987 (   2)  0.0577 (   1)  0.0509 (  16)
................................................................................
.............................. CYCLE   28 ......................................
................................................................................
   1    -45.6212788 -0.456213E+02  0.149E-01    9.28       0.0  T
   2    -45.6212814 -0.268089E-05  0.112E-01    9.28       1.0  T
   3    -45.6212840 -0.255663E-05  0.104E-02    9.29       2.0  T
   4    -45.6212843 -0.293210E-06  0.332E-03    9.29       6.3  T
   5    -45.6212843 -0.112700E-07  0.121E-03    9.29      17.2  T
   6    -45.6212843 -0.913850E-09  0.630E-04    9.29      33.1  T
   7    -45.6212843 -0.702215E-09  0.141E-04    9.29     147.4  T
speedup  1.13
cpu  time for SCC    0.01 s
wall time for SCC    0.01 s
speedup  1.00
cpu  time for grad    0.01 s
wall time for grad    0.01 s
 E :    -45.36526083  G :  0.003094    pred/act E change: -0.811D-04 -0.983D-04
Maxdispl :   0.1855   ||displ|| :   0.2638   Lambda : -0.146D-03
Largest |displ|/coords:  0.1855 (   2)  0.0922 (   1)  0.0781 (  16)
................................................................................
.............................. CYCLE   29 ......................................
................................................................................
   1    -45.6195046 -0.456195E+02  0.230E-01    9.26       0.0  T
   2    -45.6195110 -0.642406E-05  0.174E-01    9.26       1.0  T
   3    -45.6195166 -0.561105E-05  0.152E-02    9.26       1.4  T
   4    -45.6195175 -0.823910E-06  0.500E-03    9.26       4.2  T
   5    -45.6195175 -0.266955E-07  0.200E-03    9.26      10.4  T
   6    -45.6195175 -0.260806E-08  0.987E-04    9.26      21.1  T
   7    -45.6195175 -0.184068E-08  0.177E-04    9.26     117.5  T
speedup  1.15
cpu  time for SCC    0.01 s
wall time for SCC    0.01 s
speedup  1.01
cpu  time for grad    0.01 s
wall time for grad    0.01 s
 E :    -45.36532649  G :  0.009652    pred/act E change: -0.662D-04 -0.657D-04
Maxdispl :   0.0845   ||displ|| :   0.1020   Lambda : -0.128D-03
Largest |displ|/coords:  0.0845 (   2)  0.0325 (   3)  0.0258 (   6)
................................................................................
.............................. CYCLE   30 ......................................
................................................................................
   1    -45.6206016 -0.456206E+02  0.555E-02    9.26       0.0  T
   2    -45.6206024 -0.783900E-06  0.416E-02    9.26       1.0  T
   3    -45.6206031 -0.688410E-06  0.541E-03    9.26       3.9  T
   4    -45.6206032 -0.925049E-07  0.184E-03    9.26      11.3  T
   5    -45.6206032 -0.409331E-08  0.654E-04    9.26      31.9  T
speedup  1.05
cpu  time for SCC    0.00 s
wall time for SCC    0.00 s
speedup  0.97
cpu  time for grad    0.01 s
wall time for grad    0.01 s
 E :    -45.36540033  G :  0.003438    pred/act E change: -0.780D-04 -0.738D-04
Maxdispl :   0.1585   ||displ|| :   0.1830   Lambda : -0.729D-04
Largest |displ|/coords:  0.1585 (   2)  0.0386 (   1)  0.0370 (  16)
................................................................................
.............................. CYCLE   31 ......................................
................................................................................
   1    -45.6204173 -0.456204E+02  0.115E-01    9.25       0.0  T
   2    -45.6204186 -0.127734E-05  0.865E-02    9.25       1.0  T
   3    -45.6204199 -0.131187E-05  0.585E-03    9.25       3.6  T
   4    -45.6204200 -0.123701E-06  0.230E-03    9.25       9.1  T
   5    -45.6204200 -0.512108E-08  0.838E-04    9.25      24.9  T
   6    -45.6204200 -0.594682E-09  0.400E-04    9.25      52.1  T
speedup  1.09
cpu  time for SCC    0.00 s
wall time for SCC    0.00 s
speedup  0.97
cpu  time for grad    0.01 s
wall time for grad    0.01 s
 E :    -45.36546157  G :  0.003629    pred/act E change: -0.645D-04 -0.612D-04
Maxdispl :   0.3954   ||displ|| :   0.4524   Lambda : -0.164D-03
Largest |displ|/coords:  0.3954 (   2)  0.0888 (   3)  0.0812 (  16)
................................................................................
.............................. CYCLE   32 ......................................
................................................................................
   1    -45.6183400 -0.456183E+02  0.267E-01    9.24       0.0  T
   2    -45.6183480 -0.796008E-05  0.202E-01    9.24       1.0  T
   3    -45.6183570 -0.899523E-05  0.145E-02    9.24       1.4  T
   4    -45.6183576 -0.634844E-06  0.526E-03    9.24       4.0  T
   5    -45.6183576 -0.270297E-07  0.234E-03    9.24       8.9  T
   6    -45.6183576 -0.554269E-08  0.902E-04    9.24      23.1  T
   7    -45.6183576 -0.242308E-08  0.221E-04    9.24      94.4  T
speedup  0.96
cpu  time for SCC    0.00 s
wall time for SCC    0.01 s
speedup  1.00
cpu  time for grad    0.01 s
wall time for grad    0.01 s
 E :    -45.36554985  G :  0.008698    pred/act E change: -0.377D-04 -0.883D-04
Maxdispl :   0.1462   ||displ|| :   0.1724   Lambda : -0.146D-03
Largest |displ|/coords:  0.1462 (   2)  0.0398 (   6)  0.0380 (   3)
................................................................................
.............................. CYCLE   33 ......................................
................................................................................
   1    -45.6206320 -0.456206E+02  0.685E-02    9.28       0.0  T
   2    -45.6206348 -0.273245E-05  0.508E-02    9.28       1.0  T
   3    -45.6206364 -0.162372E-05  0.121E-02    9.28       1.7  T
   4    -45.6206367 -0.304833E-06  0.317E-03    9.28       6.6  T
   5    -45.6206367 -0.217697E-07  0.956E-04    9.28      21.8  T
   6    -45.6206367 -0.964825E-09  0.546E-04    9.28      38.2  T
speedup  0.89
cpu  time for SCC    0.00 s
wall time for SCC    0.00 s
speedup  0.93
cpu  time for grad    0.01 s
wall time for grad    0.01 s
 E :    -45.36561677  G :  0.006485    pred/act E change: -0.986D-04 -0.669D-04
Maxdispl :   0.2536   ||displ|| :   0.2873   Lambda : -0.119D-03
Largest |displ|/coords:  0.2536 (   2)  0.0840 (   3)  0.0394 (   5)
................................................................................
.............................. CYCLE   34 ......................................
................................................................................
   1    -45.6196983 -0.456197E+02  0.145E-01    9.28       0.0  T
   2    -45.6197005 -0.222166E-05  0.110E-01    9.28       1.0  T
   3    -45.6197033 -0.273655E-05  0.768E-03    9.28       2.7  T
   4    -45.6197034 -0.122834E-06  0.249E-03    9.28       8.4  T
   5    -45.6197034 -0.355172E-08  0.119E-03    9.28      17.5  T
speedup  1.05
cpu  time for SCC    0.00 s
wall time for SCC    0.00 s
speedup  0.99
cpu  time for grad    0.01 s
wall time for grad    0.01 s
 E :    -45.36570609  G :  0.004580    pred/act E change: -0.754D-04 -0.893D-04
Maxdispl :   0.3440   ||displ|| :   0.4026   Lambda : -0.136D-03
Largest |displ|/coords:  0.3440 (   2)  0.1365 (   3)  0.0760 (   5)
................................................................................
.............................. CYCLE   35 ......................................
................................................................................
   1    -45.6179595 -0.456180E+02  0.189E-01    9.30       0.0  T
   2    -45.6179636 -0.415710E-05  0.143E-01    9.30       1.0  T
   3    -45.6179692 -0.556885E-05  0.105E-02    9.30       2.0  T
   4    -45.6179694 -0.179087E-06  0.379E-03    9.30       5.5  T
   5    -45.6179694 -0.116388E-07  0.168E-03    9.30      12.4  T
   6    -45.6179694 -0.450122E-08  0.677E-04    9.30      30.8  T
speedup  0.89
cpu  time for SCC    0.00 s
wall time for SCC    0.00 s
speedup  1.02
cpu  time for grad    0.01 s
wall time for grad    0.01 s
 E :    -45.36578083  G :  0.008609    pred/act E change: -0.647D-04 -0.747D-04
Maxdispl :   0.0857   ||displ|| :   0.1542   Lambda : -0.152D-03
Largest |displ|/coords:  0.0857 (   3)  0.0843 (   2)  0.0374 (  20)
................................................................................
.............................. CYCLE   36 ......................................
................................................................................
   1    -45.6224505 -0.456225E+02  0.557E-02    9.36       0.0  T
   2    -45.6224537 -0.325925E-05  0.403E-02    9.36       1.0  T
   3    -45.6224555 -0.181145E-05  0.107E-02    9.36       1.9  T
   4    -45.6224558 -0.246814E-06  0.219E-03    9.36       9.5  T
   5    -45.6224558 -0.950536E-08  0.855E-04    9.36      24.4  T
speedup  1.05
cpu  time for SCC    0.00 s
wall time for SCC    0.00 s
speedup  0.98
cpu  time for grad    0.01 s
wall time for grad    0.01 s
 E :    -45.36580064  G :  0.006074    pred/act E change: -0.790D-04 -0.198D-04
Maxdispl :   0.2492   ||displ|| :   0.2849   Lambda : -0.167D-03
Largest |displ|/coords:  0.2492 (   2)  0.0677 (   3)  0.0607 (   4)
................................................................................
.............................. CYCLE   37 ......................................
................................................................................
   1    -45.6194650 -0.456195E+02  0.137E-01    9.35       0.0  T
   2    -45.6194691 -0.415006E-05  0.104E-01    9.35       1.0  T
   3    -45.6194731 -0.399997E-05  0.119E-02    9.35       1.7  T
   4    -45.6194736 -0.477852E-06  0.412E-03    9.35       5.1  T
   5    -45.6194736 -0.263775E-07  0.161E-03    9.35      12.9  T
   6    -45.6194736 -0.220646E-08  0.796E-04    9.35      26.2  T
speedup  0.89
cpu  time for SCC    0.00 s
wall time for SCC    0.00 s
speedup  1.01
cpu  time for grad    0.01 s
wall time for grad    0.01 s
 E :    -45.36586860  G :  0.008976    pred/act E change: -0.780D-04 -0.680D-04
Maxdispl :   0.1385   ||displ|| :   0.1868   Lambda : -0.216D-03
Largest |displ|/coords:  0.1385 (   2)  0.0842 (   5)  0.0593 (   3)
................................................................................
.............................. CYCLE   38 ......................................
................................................................................
   1    -45.6173602 -0.456174E+02  0.107E-01    9.32       0.0  T
   2    -45.6173648 -0.460272E-05  0.805E-02    9.32       1.0  T
   3    -45.6173682 -0.336963E-05  0.132E-02    9.32       1.6  T
   4    -45.6173688 -0.623127E-06  0.477E-03    9.32       4.4  T
   5    -45.6173688 -0.418220E-07  0.164E-03    9.32      12.7  T
   6    -45.6173688 -0.280239E-08  0.884E-04    9.32      23.6  T
speedup  1.11
cpu  time for SCC    0.00 s
wall time for SCC    0.00 s
speedup  1.08
cpu  time for grad    0.01 s
wall time for grad    0.01 s
 E :    -45.36579953  G :  0.014116    pred/act E change: -0.904D-04  0.691D-04
Maxdispl :   0.0523   ||displ|| :   0.0831   Lambda : -0.315D-03
Largest |displ|/coords:  0.0523 (   5)  0.0277 (   2)  0.0259 (   4)
................................................................................
.............................. CYCLE   39 ......................................
................................................................................
   1    -45.6201558 -0.456202E+02  0.646E-02    9.33       0.0  T
   2    -45.6201579 -0.212840E-05  0.482E-02    9.33       1.0  T
   3    -45.6201594 -0.146280E-05  0.980E-03    9.33       2.1  T
   4    -45.6201596 -0.260217E-06  0.265E-03    9.33       7.9  T
   5    -45.6201596 -0.121035E-07  0.108E-03    9.33      19.4  T
speedup  1.05
cpu  time for SCC    0.00 s
wall time for SCC    0.00 s
speedup  0.99
cpu  time for grad    0.01 s
wall time for grad    0.01 s
 E :    -45.36594859  G :  0.003998    pred/act E change: -0.112D-03 -0.149D-03
Maxdispl :   0.1774   ||displ|| :   0.2353   Lambda : -0.119D-03
Largest |displ|/coords:  0.1774 (   2)  0.0996 (   3)  0.0565 (   4)
................................................................................
.............................. CYCLE   40 ......................................
................................................................................
   1    -45.6200628 -0.456201E+02  0.112E-01    9.35       0.0  T
   2    -45.6200656 -0.278607E-05  0.852E-02    9.35       1.0  T
   3    -45.6200686 -0.295972E-05  0.902E-03    9.35       2.3  T
   4    -45.6200689 -0.284213E-06  0.276E-03    9.35       7.5  T
   5    -45.6200689 -0.718347E-08  0.139E-03    9.35      15.0  T
   6    -45.6200689 -0.302744E-08  0.461E-04    9.35      45.2  T
   7    -45.6200689 -0.432642E-09  0.147E-04    9.35     142.1  T
speedup  0.94
cpu  time for SCC    0.00 s
wall time for SCC    0.01 s
speedup  0.98
cpu  time for grad    0.01 s
wall time for grad    0.01 s
 E :    -45.36593504  G :  0.010110    pred/act E change: -0.159D-03  0.135D-04
Maxdispl :   0.1170   ||displ|| :   0.1450   Lambda : -0.151D-03
Largest |displ|/coords:  0.1170 (   2)  0.0475 (   3)  0.0416 (   5)
................................................................................
.............................. CYCLE   41 ......................................
................................................................................
   1    -45.6194598 -0.456195E+02  0.696E-02    9.34       0.0  T
   2    -45.6194612 -0.147571E-05  0.525E-02    9.34       1.0  T
   3    -45.6194625 -0.125284E-05  0.719E-03    9.34       2.9  T
   4    -45.6194627 -0.192437E-06  0.252E-03    9.34       8.3  T
   5    -45.6194627 -0.959180E-08  0.938E-04    9.34      22.2  T
speedup  1.08
cpu  time for SCC    0.00 s
wall time for SCC    0.00 s
speedup  0.99
cpu  time for grad    0.01 s
wall time for grad    0.01 s
 E :    -45.36601014  G :  0.006595    pred/act E change: -0.629D-04 -0.751D-04
Maxdispl :   0.0531   ||displ|| :   0.0938   Lambda : -0.143D-03
Largest |displ|/coords:  0.0531 (   1)  0.0271 (  21)  0.0266 (   2)
................................................................................
.............................. CYCLE   42 ......................................
................................................................................
   1    -45.6215971 -0.456216E+02  0.858E-02    9.34       0.0  T
   2    -45.6216001 -0.299826E-05  0.638E-02    9.34       1.0  T
   3    -45.6216021 -0.191491E-05  0.117E-02    9.34       1.8  T
   4    -45.6216024 -0.356262E-06  0.374E-03    9.34       5.6  T
   5    -45.6216024 -0.165566E-07  0.927E-04    9.34      22.5  T
   6    -45.6216024 -0.853397E-09  0.512E-04    9.34      40.7  T
speedup  0.89
cpu  time for SCC    0.00 s
wall time for SCC    0.00 s
speedup  1.01
cpu  time for grad    0.01 s
wall time for grad    0.01 s
 E :    -45.36600150  G :  0.008614    pred/act E change: -0.769D-04  0.863D-05
Maxdispl :   0.2114   ||displ|| :   0.2571   Lambda : -0.140D-03
Largest |displ|/coords:  0.2114 (   2)  0.1069 (   3)  0.0351 (   4)
................................................................................
.............................. CYCLE   43 ......................................
................................................................................
   1    -45.6201507 -0.456202E+02  0.113E-01    9.34       0.0  T
   2    -45.6201530 -0.234420E-05  0.855E-02    9.34       1.0  T
   3    -45.6201554 -0.241641E-05  0.798E-03    9.34       2.6  T
   4    -45.6201556 -0.235895E-06  0.242E-03    9.34       8.6  T
   5    -45.6201557 -0.469687E-08  0.119E-03    9.34      17.5  T
speedup  1.03
cpu  time for SCC    0.00 s
wall time for SCC    0.00 s
speedup  1.07
cpu  time for grad    0.01 s
wall time for grad    0.01 s
 E :    -45.36609833  G :  0.004283    pred/act E change: -0.722D-04 -0.968D-04
Maxdispl :   0.2283   ||displ|| :   0.2885   Lambda : -0.863D-04
Largest |displ|/coords:  0.2283 (   2)  0.1323 (   3)  0.0444 (   5)
................................................................................
.............................. CYCLE   44 ......................................
................................................................................
   1    -45.6200555 -0.456201E+02  0.114E-01    9.34       0.0  T
   2    -45.6200575 -0.199500E-05  0.864E-02    9.34       1.0  T
   3    -45.6200596 -0.207584E-05  0.829E-03    9.34       2.5  T
   4    -45.6200598 -0.188612E-06  0.290E-03    9.34       7.2  T
   5    -45.6200598 -0.946504E-08  0.112E-03    9.34      18.7  T
speedup  1.03
cpu  time for SCC    0.00 s
wall time for SCC    0.00 s
speedup  1.07
cpu  time for grad    0.01 s
wall time for grad    0.01 s
 E :    -45.36615544  G :  0.005354    pred/act E change: -0.748D-04 -0.571D-04
Maxdispl :   0.2938   ||displ|| :   0.3629   Lambda : -0.832D-04
Largest |displ|/coords:  0.2938 (   2)  0.1574 (   3)  0.0596 (  20)
................................................................................
.............................. CYCLE   45 ......................................
................................................................................
   1    -45.6191494 -0.456191E+02  0.139E-01    9.34       0.0  T
   2    -45.6191523 -0.290735E-05  0.105E-01    9.34       1.0  T
   3    -45.6191555 -0.317862E-05  0.103E-02    9.34       2.0  T
   4    -45.6191557 -0.266685E-06  0.409E-03    9.34       5.1  T
   5    -45.6191558 -0.186974E-07  0.142E-03    9.34      14.7  T
   6    -45.6191558 -0.207736E-08  0.823E-04    9.34      25.3  T
speedup  1.11
cpu  time for SCC    0.00 s
wall time for SCC    0.00 s
speedup  1.01
cpu  time for grad    0.01 s
wall time for grad    0.01 s
 E :    -45.36621015  G :  0.008619    pred/act E change: -0.467D-04 -0.547D-04
Maxdispl :   0.2386   ||displ|| :   0.3734   Lambda : -0.231D-03
Largest |displ|/coords:  0.2386 (   2)  0.2019 (   3)  0.0796 (  20)
................................................................................
.............................. CYCLE   46 ......................................
................................................................................
   1    -45.6240347 -0.456240E+02  0.156E-01    9.36       0.0  T
   2    -45.6240405 -0.584863E-05  0.116E-01    9.36       1.0  T
   3    -45.6240448 -0.420203E-05  0.190E-02    9.36       1.1  T
   4    -45.6240455 -0.701777E-06  0.675E-03    9.36       3.1  T
   5    -45.6240455 -0.454122E-07  0.166E-03    9.36      12.6  T
   6    -45.6240455 -0.237523E-08  0.103E-03    9.36      20.2  T
speedup  0.87
cpu  time for SCC    0.00 s
wall time for SCC    0.00 s
speedup  0.99
cpu  time for grad    0.01 s
wall time for grad    0.01 s
 E :    -45.36629629  G :  0.008984    pred/act E change: -0.471D-04 -0.861D-04
Maxdispl :   0.3499   ||displ|| :   0.4476   Lambda : -0.247D-03
Largest |displ|/coords:  0.3499 (   2)  0.1832 (   3)  0.0898 (   5)
................................................................................
.............................. CYCLE   47 ......................................
................................................................................
   1    -45.6207036 -0.456207E+02  0.184E-01    9.36       0.0  T
   2    -45.6207096 -0.594604E-05  0.138E-01    9.36       1.0  T
   3    -45.6207145 -0.489599E-05  0.154E-02    9.36       1.4  T
   4    -45.6207153 -0.785270E-06  0.559E-03    9.36       3.7  T
   5    -45.6207153 -0.404920E-07  0.196E-03    9.36      10.6  T
   6    -45.6207153 -0.392816E-08  0.115E-03    9.36      18.2  T
speedup  0.87
cpu  time for SCC    0.00 s
wall time for SCC    0.00 s
speedup  0.99
cpu  time for grad    0.01 s
wall time for grad    0.01 s
 E :    -45.36640243  G :  0.011122    pred/act E change: -0.132D-03 -0.106D-03
Maxdispl :   0.0810   ||displ|| :   0.1264   Lambda : -0.174D-03
Largest |displ|/coords:  0.0810 (   2)  0.0685 (   3)  0.0361 (   6)
................................................................................
.............................. CYCLE   48 ......................................
................................................................................
   1    -45.6210270 -0.456210E+02  0.610E-02    9.35       0.0  T
   2    -45.6210289 -0.187747E-05  0.454E-02    9.35       1.0  T
   3    -45.6210301 -0.115921E-05  0.107E-02    9.35       1.9  T
   4    -45.6210303 -0.226884E-06  0.313E-03    9.35       6.7  T
   5    -45.6210303 -0.157601E-07  0.874E-04    9.35      23.9  T
   6    -45.6210303 -0.864624E-09  0.477E-04    9.35      43.7  T
speedup  1.11
cpu  time for SCC    0.00 s
wall time for SCC    0.00 s
speedup  1.00
cpu  time for grad    0.01 s
wall time for grad    0.01 s
 E :    -45.36646809  G :  0.006675    pred/act E change: -0.148D-03 -0.657D-04
Maxdispl :   0.1833   ||displ|| :   0.2618   Lambda : -0.133D-03
Largest |displ|/coords:  0.1833 (   2)  0.1333 (   3)  0.0547 (  20)
................................................................................
.............................. CYCLE   49 ......................................
................................................................................
   1    -45.6212685 -0.456213E+02  0.100E-01    9.36       0.0  T
   2    -45.6212706 -0.207265E-05  0.759E-02    9.36       1.0  T
   3    -45.6212725 -0.194407E-05  0.861E-03    9.36       2.4  T
   4    -45.6212728 -0.258544E-06  0.357E-03    9.36       5.8  T
   5    -45.6212728 -0.175398E-07  0.117E-03    9.36      17.8  T
   6    -45.6212728 -0.144338E-08  0.677E-04    9.36      30.8  T
speedup  1.11
cpu  time for SCC    0.00 s
wall time for SCC    0.00 s
speedup  1.00
cpu  time for grad    0.01 s
wall time for grad    0.01 s
 E :    -45.36656042  G :  0.007072    pred/act E change: -0.883D-04 -0.923D-04
Maxdispl :   0.1130   ||displ|| :   0.2507   Lambda : -0.310D-03
Largest |displ|/coords:  0.1130 (   2)  0.0984 (   3)  0.0785 (   7)
................................................................................
.............................. CYCLE   50 ......................................
................................................................................
   1    -45.6259224 -0.456259E+02  0.130E-01    9.42       0.0  T
   2    -45.6259284 -0.597889E-05  0.980E-02    9.42       1.0  T
   3    -45.6259327 -0.431164E-05  0.146E-02    9.42       1.4  T
   4    -45.6259336 -0.831724E-06  0.508E-03    9.42       4.1  T
   5    -45.6259336 -0.492671E-07  0.179E-03    9.42      11.6  T
   6    -45.6259336 -0.249607E-08  0.100E-03    9.42      20.8  T
speedup  0.87
cpu  time for SCC    0.00 s
wall time for SCC    0.00 s
speedup  0.90
cpu  time for grad    0.01 s
wall time for grad    0.01 s
 E :    -45.36658053  G :  0.013649    pred/act E change: -0.710D-04 -0.201D-04
Maxdispl :   0.3335   ||displ|| :   0.4763   Lambda : -0.403D-03
Largest |displ|/coords:  0.3335 (   2)  0.2514 (   3)  0.1050 (   5)
................................................................................
.............................. CYCLE   51 ......................................
................................................................................
   1    -45.6212818 -0.456213E+02  0.185E-01    9.39       0.0  T
   2    -45.6212895 -0.768761E-05  0.139E-01    9.40       1.0  T
   3    -45.6212956 -0.611515E-05  0.172E-02    9.40       1.2  T
   4    -45.6212966 -0.104856E-05  0.675E-03    9.40       3.1  T
   5    -45.6212967 -0.714754E-07  0.228E-03    9.40       9.2  T
   6    -45.6212967 -0.421380E-08  0.136E-03    9.40      15.3  T
speedup  0.89
cpu  time for SCC    0.00 s
wall time for SCC    0.00 s
speedup  1.00
cpu  time for grad    0.01 s
wall time for grad    0.01 s
 E :    -45.36675314  G :  0.014833    pred/act E change: -0.165D-03 -0.173D-03
Maxdispl :   0.0633   ||displ|| :   0.0948   Lambda : -0.307D-03
Largest |displ|/coords:  0.0633 (   6)  0.0386 (   8)  0.0269 (  11)
................................................................................
.............................. CYCLE   52 ......................................
................................................................................
   1    -45.6217237 -0.456217E+02  0.716E-02    9.37       0.0  T
   2    -45.6217259 -0.228263E-05  0.538E-02    9.37       1.0  T
   3    -45.6217279 -0.194322E-05  0.106E-02    9.37       2.0  T
   4    -45.6217281 -0.233576E-06  0.355E-03    9.37       5.9  T
   5    -45.6217281 -0.163866E-07  0.103E-03    9.37      20.2  T
   6    -45.6217281 -0.124302E-08  0.541E-04    9.37      38.5  T
speedup  1.11
cpu  time for SCC    0.00 s
wall time for SCC    0.00 s
speedup  1.00
cpu  time for grad    0.01 s
wall time for grad    0.01 s
 E :    -45.36681354  G :  0.010095    pred/act E change: -0.247D-03 -0.604D-04
Maxdispl :   0.2345   ||displ|| :   0.3184   Lambda : -0.282D-03
Largest |displ|/coords:  0.2345 (   2)  0.1393 (   3)  0.0733 (  20)

generating ANC from model Hessian ...
 Shifting diagonal of input Hessian by   5.100409343200229E-003
 Lowest  eigenvalues of input Hessian
    0.005000   -0.000000   -0.000000   -0.000000    0.000000    0.000000
    0.000000    0.005194    0.005504    0.005932    0.006081    0.006566
    0.007131    0.007670    0.009007    0.009329    0.011348    0.012923
 Highest eigenvalues
    1.381756    1.402461    1.485957    2.609462    3.373990    3.635596
 
cpu  time for ANC gen    0.01 s
wall time for ANC gen    0.01 s
................................................................................
.............................. CYCLE   53 ......................................
................................................................................
   1    -45.6210139 -0.456210E+02  0.129E-01    9.37       0.0  T
   2    -45.6210176 -0.362888E-05  0.974E-02    9.37       1.0  T
   3    -45.6210215 -0.395038E-05  0.108E-02    9.38       1.9  T
   4    -45.6210219 -0.356807E-06  0.467E-03    9.37       4.5  T
   5    -45.6210219 -0.232300E-07  0.157E-03    9.37      13.3  T
   6    -45.6210219 -0.234760E-08  0.832E-04    9.37      25.1  T
   7    -45.6210219 -0.113740E-08  0.188E-04    9.37     111.0  T
speedup  0.94
cpu  time for SCC    0.00 s
wall time for SCC    0.01 s
speedup  0.98
cpu  time for grad    0.01 s
wall time for grad    0.01 s
 E :    -45.36696085  G :  0.007380    pred/act E change:  0.000D+00 -0.147D-03
Maxdispl :   0.0812   ||displ|| :   0.1495   Lambda : -0.215D-03
Largest |displ|/coords:  0.0812 (   3)  0.0551 (   7)  0.0459 (   1)
................................................................................
.............................. CYCLE   54 ......................................
................................................................................
   1    -45.6221218 -0.456221E+02  0.113E-01    9.37       0.0  T
   2    -45.6221240 -0.220975E-05  0.857E-02    9.37       1.0  T
   3    -45.6221263 -0.226072E-05  0.878E-03    9.37       2.4  T
   4    -45.6221265 -0.247304E-06  0.353E-03    9.37       5.9  T
   5    -45.6221266 -0.182082E-07  0.110E-03    9.37      19.0  T
   6    -45.6221266 -0.131012E-08  0.581E-04    9.37      35.9  T
speedup  0.87
cpu  time for SCC    0.00 s
wall time for SCC    0.00 s
speedup  0.98
cpu  time for grad    0.01 s
wall time for grad    0.01 s
 E :    -45.36708830  G :  0.003387    pred/act E change:  0.000D+00 -0.127D-03
Maxdispl :   0.0939   ||displ|| :   0.1500   Lambda : -0.112D-03
Largest |displ|/coords:  0.0939 (   3)  0.0783 (   1)  0.0651 (   7)
................................................................................
.............................. CYCLE   55 ......................................
................................................................................
   1    -45.6231389 -0.456231E+02  0.804E-02    9.37       0.0  T
   2    -45.6231399 -0.983875E-06  0.607E-02    9.37       1.0  T
   3    -45.6231409 -0.952945E-06  0.541E-03    9.37       3.9  T
   4    -45.6231410 -0.111045E-06  0.187E-03    9.37      11.2  T
   5    -45.6231410 -0.541134E-08  0.824E-04    9.37      25.3  T
   6    -45.6231410 -0.879460E-09  0.434E-04    9.37      48.1  T
speedup  0.85
cpu  time for SCC    0.00 s
wall time for SCC    0.00 s
speedup  0.95
cpu  time for grad    0.01 s
wall time for grad    0.01 s
 E :    -45.36717647  G :  0.002598    pred/act E change: -0.110D-03 -0.882D-04
Maxdispl :   0.2790   ||displ|| :   0.4138   Lambda : -0.230D-03
Largest |displ|/coords:  0.2790 (   3)  0.2126 (   1)  0.1425 (   7)
................................................................................
.............................. CYCLE   56 ......................................
................................................................................
   1    -45.6233046 -0.456233E+02  0.202E-01    9.37       0.0  T
   2    -45.6233094 -0.470697E-05  0.153E-01    9.37       1.0  T
   3    -45.6233149 -0.557150E-05  0.112E-02    9.36       1.9  T
   4    -45.6233153 -0.342982E-06  0.492E-03    9.36       4.2  T
   5    -45.6233153 -0.311677E-07  0.181E-03    9.36      11.5  T
   6    -45.6233153 -0.428640E-08  0.984E-04    9.36      21.2  T
   7    -45.6233153 -0.257432E-08  0.264E-04    9.36      79.1  T
speedup  0.94
cpu  time for SCC    0.01 s
wall time for SCC    0.01 s
speedup  0.98
cpu  time for grad    0.01 s
wall time for grad    0.01 s
 E :    -45.36736136  G :  0.006440    pred/act E change: -0.571D-04 -0.185D-03
Maxdispl :   0.4261   ||displ|| :   0.6072   Lambda : -0.306D-03
Largest |displ|/coords:  0.4261 (   3)  0.2965 (   1)  0.1882 (   7)
................................................................................
.............................. CYCLE   57 ......................................
................................................................................
   1    -45.6215341 -0.456215E+02  0.254E-01    9.36       0.0  T
   2    -45.6215422 -0.815931E-05  0.192E-01    9.35       1.0  T
   3    -45.6215515 -0.927400E-05  0.152E-02    9.34       1.4  T
   4    -45.6215522 -0.720183E-06  0.705E-03    9.34       3.0  T
   5    -45.6215523 -0.582379E-07  0.236E-03    9.34       8.8  T
   6    -45.6215523 -0.725182E-08  0.129E-03    9.34      16.1  T
speedup  1.09
cpu  time for SCC    0.00 s
wall time for SCC    0.00 s
speedup  0.98
cpu  time for grad    0.01 s
wall time for grad    0.01 s
 E :    -45.36760522  G :  0.011557    pred/act E change: -0.135D-03 -0.244D-03
Maxdispl :   0.4069   ||displ|| :   0.5747   Lambda : -0.427D-03
Largest |displ|/coords:  0.4069 (   3)  0.2364 (   1)  0.1796 (  10)
................................................................................
.............................. CYCLE   58 ......................................
................................................................................
   1    -45.6225617 -0.456226E+02  0.174E-01    9.34       0.0  T
   2    -45.6225675 -0.581331E-05  0.132E-01    9.34       1.0  T
   3    -45.6225726 -0.510486E-05  0.156E-02    9.33       1.3  T
   4    -45.6225734 -0.807579E-06  0.580E-03    9.33       3.6  T
   5    -45.6225735 -0.391739E-07  0.186E-03    9.33      11.2  T
   6    -45.6225735 -0.445085E-08  0.109E-03    9.33      19.2  T
speedup  0.89
cpu  time for SCC    0.00 s
wall time for SCC    0.00 s
speedup  0.99
cpu  time for grad    0.01 s
wall time for grad    0.01 s
 E :    -45.36793128  G :  0.010273    pred/act E change: -0.209D-03 -0.326D-03
Maxdispl :   0.4091   ||displ|| :   0.5741   Lambda : -0.472D-03
Largest |displ|/coords:  0.4091 (   3)  0.1926 (   1)  0.1819 (  10)
................................................................................
.............................. CYCLE   59 ......................................
................................................................................
   1    -45.6222610 -0.456223E+02  0.187E-01    9.34       0.0  T
   2    -45.6222705 -0.951154E-05  0.141E-01    9.34       1.0  T
   3    -45.6222784 -0.792057E-05  0.217E-02    9.34       1.0  T
   4    -45.6222798 -0.136992E-05  0.667E-03    9.34       3.1  T
   5    -45.6222799 -0.694037E-07  0.248E-03    9.34       8.4  T
   6    -45.6222799 -0.618146E-08  0.131E-03    9.34      16.0  T
speedup  0.89
cpu  time for SCC    0.00 s
wall time for SCC    0.00 s
speedup  0.99
cpu  time for grad    0.01 s
wall time for grad    0.01 s
 E :    -45.36827725  G :  0.012375    pred/act E change: -0.284D-03 -0.346D-03
Maxdispl :   0.2179   ||displ|| :   0.3633   Lambda : -0.611D-03
Largest |displ|/coords:  0.2179 (   3)  0.1466 (  10)  0.1425 (   5)
................................................................................
.............................. CYCLE   60 ......................................
................................................................................
   1    -45.6294813 -0.456295E+02  0.172E-01    9.36       0.0  T
   2    -45.6294913 -0.995719E-05  0.129E-01    9.36       1.0  T
   3    -45.6294991 -0.779995E-05  0.242E-02    9.37       1.0  T
   4    -45.6295003 -0.122274E-05  0.692E-03    9.37       3.0  T
   5    -45.6295004 -0.789656E-07  0.222E-03    9.37       9.4  T
   6    -45.6295004 -0.251971E-08  0.122E-03    9.37      17.2  T
speedup  0.87
cpu  time for SCC    0.00 s
wall time for SCC    0.00 s
speedup  0.89
cpu  time for grad    0.01 s
wall time for grad    0.01 s
 E :    -45.36829562  G :  0.018107    pred/act E change: -0.313D-03 -0.184D-04
Maxdispl :   0.1869   ||displ|| :   0.3072   Lambda : -0.660D-03
Largest |displ|/coords:  0.1869 (   3)  0.1677 (   1)  0.1191 (   7)
................................................................................
.............................. CYCLE   61 ......................................
................................................................................
   1    -45.6221825 -0.456222E+02  0.183E-01    9.35       0.0  T
   2    -45.6221901 -0.756902E-05  0.139E-01    9.35       1.0  T
   3    -45.6221974 -0.734879E-05  0.153E-02    9.35       1.4  T
   4    -45.6221983 -0.876248E-06  0.570E-03    9.35       3.7  T
   5    -45.6221983 -0.452045E-07  0.238E-03    9.35       8.8  T
   6    -45.6221983 -0.689772E-08  0.128E-03    9.35      16.3  T
speedup  1.09
cpu  time for SCC    0.00 s
wall time for SCC    0.00 s
speedup  1.05
cpu  time for grad    0.01 s
wall time for grad    0.01 s
 E :    -45.36857564  G :  0.011949    pred/act E change: -0.346D-03 -0.280D-03
Maxdispl :   0.2936   ||displ|| :   0.3883   Lambda : -0.600D-03
Largest |displ|/coords:  0.2936 (   3)  0.1557 (   5)  0.1188 (   1)
................................................................................
.............................. CYCLE   62 ......................................
................................................................................
   1    -45.6242408 -0.456242E+02  0.167E-01    9.40       0.0  T
   2    -45.6242510 -0.102271E-04  0.125E-01    9.40       1.0  T
   3    -45.6242582 -0.717464E-05  0.204E-02    9.40       1.0  T
   4    -45.6242595 -0.135064E-05  0.694E-03    9.40       3.0  T
   5    -45.6242596 -0.836376E-07  0.254E-03    9.40       8.2  T
   6    -45.6242596 -0.492280E-08  0.137E-03    9.40      15.2  T
speedup  0.89
cpu  time for SCC    0.00 s
wall time for SCC    0.00 s
speedup  0.99
cpu  time for grad    0.01 s
wall time for grad    0.01 s
 E :    -45.36812851  G :  0.025694    pred/act E change: -0.361D-03  0.447D-03
Maxdispl :   0.0863   ||displ|| :   0.1503   Lambda : -0.116D-02
Largest |displ|/coords:  0.0863 (   7)  0.0681 (   5)  0.0624 (   3)
................................................................................
.............................. CYCLE   63 ......................................
................................................................................
   1    -45.6257852 -0.456258E+02  0.127E-01    9.37       0.0  T
   2    -45.6257930 -0.783184E-05  0.954E-02    9.38       1.0  T
   3    -45.6257987 -0.566524E-05  0.166E-02    9.39       1.3  T
   4    -45.6257998 -0.111041E-05  0.406E-03    9.38       5.1  T
   5    -45.6257998 -0.157135E-07  0.212E-03    9.38       9.8  T
speedup  1.03
cpu  time for SCC    0.00 s
wall time for SCC    0.00 s
speedup  1.05
cpu  time for grad    0.01 s
wall time for grad    0.01 s
 E :    -45.36869413  G :  0.007607    pred/act E change: -0.345D-03 -0.566D-03
Maxdispl :   0.2435   ||displ|| :   0.4059   Lambda : -0.300D-03
Largest |displ|/coords:  0.2435 (   3)  0.1772 (   1)  0.1423 (  10)
................................................................................
.............................. CYCLE   64 ......................................
................................................................................
   1    -45.6248197 -0.456248E+02  0.164E-01    9.37       0.0  T
   2    -45.6248269 -0.717753E-05  0.123E-01    9.37       1.0  T
   3    -45.6248320 -0.505572E-05  0.161E-02    9.36       1.3  T
   4    -45.6248330 -0.103214E-05  0.470E-03    9.36       4.4  T
   5    -45.6248330 -0.384698E-07  0.191E-03    9.36      10.9  T
   6    -45.6248330 -0.276159E-08  0.106E-03    9.36      19.7  T
speedup  1.11
cpu  time for SCC    0.00 s
wall time for SCC    0.00 s
speedup  1.07
cpu  time for grad    0.01 s
wall time for grad    0.01 s
 E :    -45.36857579  G :  0.015665    pred/act E change: -0.595D-03  0.118D-03
Maxdispl :   0.0698   ||displ|| :   0.1251   Lambda : -0.520D-03
Largest |displ|/coords:  0.0698 (   6)  0.0646 (   8)  0.0408 (   2)
................................................................................
.............................. CYCLE   65 ......................................
................................................................................
   1    -45.6248132 -0.456248E+02  0.985E-02    9.35       0.0  T
   2    -45.6248175 -0.424326E-05  0.739E-02    9.35       1.0  T
   3    -45.6248203 -0.279245E-05  0.124E-02    9.36       1.7  T
   4    -45.6248208 -0.564891E-06  0.401E-03    9.36       5.2  T
   5    -45.6248209 -0.303192E-07  0.138E-03    9.35      15.1  T
   6    -45.6248209 -0.138481E-08  0.749E-04    9.35      27.8  T
speedup  0.87
cpu  time for SCC    0.00 s
wall time for SCC    0.00 s
speedup  0.97
cpu  time for grad    0.01 s
wall time for grad    0.01 s
 E :    -45.36878138  G :  0.007122    pred/act E change: -0.175D-03 -0.206D-03
Maxdispl :   0.2042   ||displ|| :   0.2869   Lambda : -0.168D-03
Largest |displ|/coords:  0.2042 (   3)  0.1130 (  10)  0.0997 (   1)
................................................................................
.............................. CYCLE   66 ......................................
................................................................................
   1    -45.6259285 -0.456259E+02  0.912E-02    9.38       0.0  T
   2    -45.6259307 -0.224582E-05  0.682E-02    9.38       1.0  T
   3    -45.6259323 -0.155967E-05  0.123E-02    9.38       1.7  T
   4    -45.6259326 -0.309603E-06  0.302E-03    9.38       6.9  T
   5    -45.6259326 -0.155203E-07  0.102E-03    9.38      20.5  T
   6    -45.6259326 -0.110689E-08  0.567E-04    9.38      36.8  T
speedup  1.09
cpu  time for SCC    0.00 s
wall time for SCC    0.00 s
speedup  0.97
[...]
Maxdispl :   0.0176   ||displ|| :   0.0347   Lambda : -0.266D-05
Largest |displ|/coords:  0.0176 (  19)  0.0134 (  21)  0.0113 (   3)
................................................................................
.............................. CYCLE  139 ......................................
................................................................................
   1    -45.6298086 -0.456298E+02  0.188E-02    9.26       0.0  T
   2    -45.6298087 -0.728996E-07  0.138E-02    9.26       1.5  T
   3    -45.6298087 -0.381786E-07  0.180E-03    9.26      11.6  T
   4    -45.6298087 -0.100879E-07  0.630E-04    9.26      33.1  T
   5    -45.6298087 -0.327539E-09  0.161E-04    9.26     129.5  T
speedup  1.08
cpu  time for SCC    0.00 s
wall time for SCC    0.00 s
speedup  1.00
cpu  time for grad    0.01 s
wall time for grad    0.01 s
 E :    -45.37618312  G :  0.000956    pred/act E change: -0.114D-05 -0.193D-05
Maxdispl :   0.0178   ||displ|| :   0.0379   Lambda : -0.264D-05
Largest |displ|/coords:  0.0178 (  19)  0.0150 (  21)  0.0109 (   3)
................................................................................
.............................. CYCLE  140 ......................................
................................................................................
   1    -45.6297098 -0.456297E+02  0.193E-02    9.26       0.0  T
   2    -45.6297098 -0.772136E-07  0.143E-02    9.26       1.5  T
   3    -45.6297099 -0.415200E-07  0.184E-03    9.26      11.3  T
   4    -45.6297099 -0.104418E-07  0.696E-04    9.26      30.0  T
   5    -45.6297099 -0.431086E-09  0.157E-04    9.26     132.6  T
speedup  0.79
cpu  time for SCC    0.00 s
wall time for SCC    0.00 s
speedup  0.99
cpu  time for grad    0.01 s
wall time for grad    0.01 s
 E :    -45.37618506  G :  0.001139    pred/act E change: -0.133D-05 -0.194D-05
Maxdispl :   0.0176   ||displ|| :   0.0392   Lambda : -0.273D-05
Largest |displ|/coords:  0.0176 (  19)  0.0160 (  21)  0.0114 (   8)
................................................................................
.............................. CYCLE  141 ......................................
................................................................................
   1    -45.6296104 -0.456296E+02  0.196E-02    9.26       0.0  T
   2    -45.6296105 -0.950578E-07  0.145E-02    9.26       1.4  T
   3    -45.6296105 -0.460093E-07  0.216E-03    9.26       9.6  T
   4    -45.6296105 -0.136038E-07  0.731E-04    9.26      28.5  T
   5    -45.6296105 -0.568711E-09  0.167E-04    9.26     125.1  T
speedup  1.05
cpu  time for SCC    0.00 s
wall time for SCC    0.00 s
speedup  0.99
cpu  time for grad    0.01 s
wall time for grad    0.01 s
 E :    -45.37618700  G :  0.001035    pred/act E change: -0.132D-05 -0.194D-05
Maxdispl :   0.0137   ||displ|| :   0.0298   Lambda : -0.199D-05
Largest |displ|/coords:  0.0137 (  21)  0.0128 (  19)  0.0086 (   9)
................................................................................
.............................. CYCLE  142 ......................................
................................................................................
   1    -45.6295271 -0.456295E+02  0.155E-02    9.26       0.0  T
   2    -45.6295271 -0.735873E-07  0.115E-02    9.26       1.8  T
   3    -45.6295272 -0.297263E-07  0.205E-03    9.26      10.2  T
   4    -45.6295272 -0.110841E-07  0.577E-04    9.26      36.1  T
   5    -45.6295272 -0.395787E-09  0.150E-04    9.26     138.6  T
speedup  1.08
cpu  time for SCC    0.00 s
wall time for SCC    0.00 s
speedup  1.00
cpu  time for grad    0.01 s
wall time for grad    0.01 s
 E :    -45.37618838  G :  0.000668    pred/act E change: -0.137D-05 -0.138D-05
Maxdispl :   0.0083   ||displ|| :   0.0172   Lambda : -0.115D-05
Largest |displ|/coords:  0.0083 (  21)  0.0065 (  19)  0.0044 (   6)
................................................................................
.............................. CYCLE  143 ......................................
................................................................................
   1    -45.6295281 -0.456295E+02  0.990E-03    9.27       0.0  T
   2    -45.6295282 -0.308386E-07  0.731E-03    9.27       2.9  T
   3    -45.6295282 -0.114810E-07  0.141E-03    9.27      14.8  T
   4    -45.6295282 -0.454203E-08  0.347E-04    9.27      60.2  T
   5    -45.6295282 -0.166452E-09  0.101E-04    9.27     205.6  T
speedup  1.05
cpu  time for SCC    0.00 s
wall time for SCC    0.00 s
speedup  1.00
cpu  time for grad    0.01 s
wall time for grad    0.01 s
 E :    -45.37618916  G :  0.000365    pred/act E change: -0.994D-06 -0.778D-06
Maxdispl :   0.0083   ||displ|| :   0.0167   Lambda : -0.618D-06
Largest |displ|/coords:  0.0083 (  21)  0.0069 (  19)  0.0049 (  13)
................................................................................
.............................. CYCLE  144 ......................................
................................................................................
   1    -45.6294933 -0.456295E+02  0.914E-03    9.27       0.0  T
   2    -45.6294934 -0.157688E-07  0.676E-03    9.27       3.1  T
   3    -45.6294934 -0.908803E-08  0.944E-04    9.27      22.1  T
   4    -45.6294934 -0.197647E-08  0.298E-04    9.27      69.9  T
speedup  0.91
cpu  time for SCC    0.00 s
wall time for SCC    0.00 s
speedup  0.95
cpu  time for grad    0.01 s
wall time for grad    0.01 s
 E :    -45.37618958  G :  0.000364    pred/act E change: -0.574D-06 -0.423D-06
Maxdispl :   0.0045   ||displ|| :   0.0098   Lambda : -0.624D-06
Largest |displ|/coords:  0.0045 (   3)  0.0045 (   2)  0.0030 (   1)
................................................................................
.............................. CYCLE  145 ......................................
................................................................................
   1    -45.6296270 -0.456296E+02  0.752E-03    9.27       0.0  T
   2    -45.6296270 -0.112056E-07  0.563E-03    9.27       3.7  T
   3    -45.6296270 -0.941917E-08  0.728E-04    9.27      28.6  T
   4    -45.6296270 -0.123850E-08  0.312E-04    9.27      66.7  T
speedup  0.97
cpu  time for SCC    0.00 s
wall time for SCC    0.00 s
speedup  0.97
cpu  time for grad    0.01 s
wall time for grad    0.01 s
 E :    -45.37618987  G :  0.000489    pred/act E change: -0.309D-06 -0.290D-06
Maxdispl :   0.0075   ||displ|| :   0.0159   Lambda : -0.467D-06
Largest |displ|/coords:  0.0075 (  21)  0.0075 (  19)  0.0043 (  13)
................................................................................
.............................. CYCLE  146 ......................................
................................................................................
   1    -45.6295705 -0.456296E+02  0.855E-03    9.27       0.0  T
   2    -45.6295705 -0.118098E-07  0.632E-03    9.27       3.3  T
   3    -45.6295705 -0.837137E-08  0.719E-04    9.27      29.0  T
   4    -45.6295705 -0.128551E-08  0.245E-04    9.27      85.2  T
speedup  1.00
cpu  time for SCC    0.00 s
wall time for SCC    0.00 s
speedup  1.07
cpu  time for grad    0.01 s
wall time for grad    0.01 s
 E :    -45.37619018  G :  0.000342    pred/act E change: -0.312D-06 -0.314D-06
Maxdispl :   0.0056   ||displ|| :   0.0110   Lambda : -0.347D-06
Largest |displ|/coords:  0.0056 (   2)  0.0048 (  19)  0.0046 (  21)

generating ANC from model Hessian ...
 Shifting diagonal of input Hessian by   4.431103151555813E-003
 Lowest  eigenvalues of input Hessian
   -0.000000   -0.000000    0.000000    0.000000    0.000000    0.000000
    0.005000    0.005135    0.005596    0.006264    0.007049    0.007418
    0.008624    0.009579    0.010319    0.010713    0.011632    0.013058
 Highest eigenvalues
    1.380056    1.384641    1.486789    2.496506    3.440812    3.671979
 
cpu  time for ANC gen    0.02 s
wall time for ANC gen    0.02 s
................................................................................
.............................. CYCLE  147 ......................................
................................................................................
   1    -45.6295639 -0.456296E+02  0.636E-03    9.27       0.0  T
   2    -45.6295639 -0.959899E-08  0.471E-03    9.27       4.4  T
   3    -45.6295639 -0.487643E-08  0.628E-04    9.27      33.2  T
   4    -45.6295639 -0.155669E-08  0.198E-04    9.27     105.1  T
speedup  1.29
cpu  time for SCC    0.00 s
wall time for SCC    0.00 s
speedup  1.07
cpu  time for grad    0.01 s
wall time for grad    0.01 s
 E :    -45.37619043  G :  0.000215    pred/act E change:  0.000D+00 -0.242D-06
Maxdispl :   0.0012   ||displ|| :   0.0024   Lambda : -0.105D-06
Largest |displ|/coords:  0.0012 (   2)  0.0008 (   1)  0.0008 (   9)
................................................................................
.............................. CYCLE  148 ......................................
................................................................................
   1    -45.6295881 -0.456296E+02  0.151E-03    9.27       0.0  T
   2    -45.6295881 -0.402267E-09  0.113E-03    9.27      18.4  T
   3    -45.6295881 -0.368900E-09  0.137E-04    9.27     151.8  T
   4    -45.6295881 -0.417444E-10  0.454E-05    9.27     459.0  T
speedup  1.00
cpu  time for SCC    0.00 s
wall time for SCC    0.00 s
speedup  0.96
cpu  time for grad    0.01 s
wall time for grad    0.01 s
 E :    -45.37619050  G :  0.000117    pred/act E change:  0.000D+00 -0.726D-07
Maxdispl :   0.0027   ||displ|| :   0.0047   Lambda : -0.115D-06
Largest |displ|/coords:  0.0027 (   1)  0.0026 (   3)  0.0016 (   9)

   *** GEOMETRY OPTIMIZATION CONVERGED AFTER 148 ITERATIONS ***

------------------------------------------------------------------------
 total energy gain (kcal):     -0.0000
------------------------------------------------------------------------
================
 final structure:
================
$coord
       -0.32618376569388       -1.98797254692216       -2.00264851297965      S 
       -2.87301555785978       -2.51066923706757       -2.91199132421172      O 
        0.02120187158771        0.95235198235273       -2.53579515449598      O 
       -0.19776463381264       -2.23065711189235        0.75809026777699      O 
        1.67260896545106       -3.30919255979679       -3.28423561100508      O 
       -3.17315151935949        3.90177634447618        0.51645595458913      O 
       -2.39270121699779        3.64629373182802       -1.11487871277396      H 
       -1.78019087487045        3.62794799716723        1.73415169445337      H 
        0.69244916392155        2.11149656423443        3.13808471655866      O 
        0.45131066089456        0.41189740546801        2.43854945396266      H 
        2.26839772965470        2.68585604208350        2.43122206642085      H 
        5.05750018175349       -2.93835421605013        0.30892819291542      O 
        3.95596536696311       -3.31575740999659        1.70505512378144      H 
        4.05002141353377       -3.38017923084662       -1.18959292322408      H 
        4.52960252185098        1.86849871374073       -0.64578274537504      O 
        5.75228711677996        2.34932934034171       -1.89375224029433      H 
        1.73346251916246        1.40320923800650       -1.92959858861135      H 
        4.95344647324976        0.09288130572543       -0.16001079972551      H 
       -4.96874477229617       -0.67451399900674        0.97346709917918      N 
       -6.78109114952911       -1.05559827098001        1.46849731806089      H 
       -4.41162789707499       -1.48133063741125       -0.84500653609597      H 
       -4.55906997272119        1.31245187264087        0.87123139166901      H 
       -3.67471266254565       -1.47976529899827        2.16955985027665      H 
$end
 
 Bond Distances (Angstroems)
 ---------------------------
S1-O2=1.4575         S1-O3=1.5920         S1-O4=1.4681         S1-O5=1.4379         O2-S1=1.4575         O3-S1=1.5920         
O3-H17=0.9904        O4-S1=1.4681         O5-S1=1.4379         O6-H7=0.9665         O6-H8=0.9897         H7-O6=0.9665         
H8-O6=0.9897         O9-H10=0.9809        O9-H11=0.9632        H10-O9=0.9809        H11-O9=0.9632        O12-H13=0.9620       
O12-H14=0.9837       H13-O12=0.9620       H14-O12=0.9837       O15-H16=0.9589       O15-H18=0.9996       H16-O15=0.9589       
H17-O3=0.9904        H18-O15=0.9996       N19-H20=1.0144       N19-H21=1.0933       N19-H22=1.0749       N19-H23=1.0252       
H20-N19=1.0144       H21-N19=1.0933       H22-N19=1.0749       H23-N19=1.0252       
 N  H  Rav=1.0520 sigma=0.0330  Rmin=1.0144  Rmax=1.0933     4
 O  H  Rav=0.9772 sigma=0.0140  Rmin=0.9589  Rmax=0.9996     9
 S  O  Rav=1.4889 sigma=0.0605  Rmin=1.4379  Rmax=1.5920     4
 
 selected bond angles (degree)
 --------------------
O3-S1-O2=103.52                O4-S1-O2=110.78                O4-S1-O3=104.86                O5-S1-O2=115.61                
O5-S1-O3=107.86                O5-S1-O4=113.13                H17-O3-S1=106.48               H8-O6-H7=104.05                
H11-O9-H10=104.80              
 
 selected dihedral angles (degree)
 ---------------------------------
H17-O3-S1-O2=179.49           H17-O3-S1-O4= 63.31           H17-O3-S1-O5=302.48           
 
 CMA Distance (Angstroems)
 ---------------------------
R(CMA):  2.0871

========================================================================
 FINAL SINGLEPOINT CALCULATION ON OPTIMIZED GEOMETRY
========================================================================

 Ncao       : 59
 Nao        : 58
 Nshell     : 34
 Nel        : 72
 T(el)      :   300.0
 intcut     :    25.0
 scfconv/Eh :  0.100E-05
   qconv/e  :  0.100E-03
 intneglect :  0.100E-07
 broydamp   :      0.250
 iter      E             dE          RMSdq      gap      omega  full diag
   1    -45.6295881 -0.456296E+02  0.175E-05    9.27       0.0  T
   2    -45.6295881 -0.277112E-12  0.112E-05    9.27    1864.9  T
   3    -45.6295881 -0.170530E-12  0.270E-06    9.27    7718.9  T
speedup  0.83
cpu  time for SCC    0.00 s
wall time for SCC    0.00 s

   *** convergence criteria satisfied after 3 iterations ***

          eigenvalues
 #    :          24         25         26         27         28         29         30         31
 occ. :        2.000      2.000      2.000      2.000      2.000      2.000      2.000      2.000
 eps  :       -13.833    -13.683    -13.085    -12.708    -12.538    -12.376    -12.296    -12.265
 #    :          32         33         34         35         36         37         38         39
 occ. :        2.000      2.000      2.000      2.000      2.000      0.000      0.000      0.000
 eps  :       -12.089    -12.017    -11.922    -11.901    -11.742     -2.473     -0.972     -0.367
 #    :          40         41         42         43         44         45         46         47
 occ. :        0.000      0.000      0.000      0.000      0.000      0.000      0.000      0.000
 eps  :         0.570      0.976      1.555      2.211      3.474      3.764      4.522      5.073


   #   Z            q   n(s)   n(p)   n(d)      C6AA      α(0)
   1  16 S      1.666  1.591  1.793  0.950    89.542    15.926
   2   8 O     -0.709  1.766  4.943  0.000    28.924     7.212
   3   8 O     -0.651  1.767  4.884  0.000    26.419     6.939
   4   8 O     -0.781  1.773  5.007  0.000    31.006     7.466
   5   8 O     -0.707  1.766  4.941  0.000    28.910     7.209
   6   8 O     -0.604  1.754  4.850  0.000    25.277     6.786
   7   1 H      0.310  0.690  0.000  0.000     0.691     1.306
   8   1 H      0.337  0.663  0.000  0.000     0.619     1.237
   9   8 O     -0.626  1.754  4.872  0.000    25.817     6.858
  10   1 H      0.320  0.680  0.000  0.000     0.665     1.281
  11   1 H      0.308  0.692  0.000  0.000     0.698     1.312
  12   8 O     -0.608  1.746  4.862  0.000    25.372     6.798
  13   1 H      0.300  0.700  0.000  0.000     0.719     1.332
  14   1 H      0.325  0.675  0.000  0.000     0.650     1.266
  15   8 O     -0.631  1.754  4.876  0.000    25.939     6.874
  16   1 H      0.293  0.707  0.000  0.000     0.741     1.352
  17   1 H      0.371  0.629  0.000  0.000     0.539     1.151
  18   1 H      0.340  0.660  0.000  0.000     0.612     1.229
  19   7 N     -0.350  1.274  4.076  0.000    28.997     7.998
  20   1 H      0.233  0.767  0.000  0.000     0.951     1.528
  21   1 H      0.302  0.698  0.000  0.000     0.705     1.314
  22   1 H      0.299  0.701  0.000  0.000     0.716     1.326
  23   1 H      0.261  0.739  0.000  0.000     0.841     1.436

 Mol. C6AA /au·bohr⁶  :       4504.106368
 Mol. C8AA /au·bohr⁸  :      99250.506631
 Mol. α(0) /au        :         97.135746

 
 Wiberg/Mayer (AO) data. WBOs > 0.1 written file <wbo>
 largest (>0.05) Wiberg bond orders for each atom
           total WBO             WBO to atom ...
     1  S   4.857    O    5 1.376    O    2 1.292    O    4 1.261    O    3 0.894
     2  O   1.797    S    1 1.292    H   21 0.161    O    4 0.104    O    5 0.101    O    3 0.063    N   19 0.063
     3  O   1.933    S    1 0.894    H   17 0.750    O    5 0.082    O    4 0.079    O    2 0.063
     4  O   1.675    S    1 1.261    O    5 0.109    O    2 0.104    O    3 0.079    H   10 0.058
     5  O   1.763    S    1 1.376    O    4 0.109    O    2 0.101    O    3 0.082    H   14 0.061
     6  O   1.950    H    7 0.886    H    8 0.813    H   22 0.138    N   19 0.066
     7  H   0.904    O    6 0.886
     8  H   0.886    O    6 0.813    O    9 0.071
     9  O   1.872    H   11 0.890    H   10 0.835    H    8 0.071
    10  H   0.898    O    9 0.835    O    4 0.058
    11  H   0.905    O    9 0.890
    12  O   1.906    H   13 0.901    H   14 0.829    H   18 0.097
    13  H   0.910    O   12 0.901
    14  H   0.894    O   12 0.829    O    5 0.061
    15  O   1.887    H   16 0.908    H   18 0.785    H   17 0.094
    16  H   0.914    O   15 0.908
    17  H   0.863    O    3 0.750    O   15 0.094
    18  H   0.884    O   15 0.785    O   12 0.097
    19  N   3.508    H   20 0.941    H   23 0.907    H   22 0.768    H   21 0.739    O    6 0.066    O    2 0.063
    20  H   0.946    N   19 0.941
    21  H   0.909    N   19 0.739    O    2 0.161
    22  H   0.911    N   19 0.768    O    6 0.138
    23  H   0.932    N   19 0.907
 MOs/occ written to file <molden.input>
 
molecular dipole:
                 x           y           z       tot (Debye)
 q only:       -1.475       0.865       1.195
   full:       -1.038       0.553       0.825       3.652
molecular quadrupole (traceless):
                xx          xy          yy          xz          yz          zz
 q only:       16.348       8.331      -8.152      -8.197     -10.741      -8.195
  q+dip:       15.189      11.349      -8.109      -9.192     -12.869      -7.080
   full:       15.416      11.666      -8.222      -9.338     -12.904      -7.194

SCC energy    :     -45.6295881
rep           :       0.2532170
ES            :       0.2366733
AES           :      -0.0668876
AXC           :      -0.0080665
disp          :      -0.0181246
XB            :       0.0000000
fix           :       0.0000000
total E       :     -45.3761905
atomizationE  :       4.4592530     2798.22
(atE without considering molecular charge,
 total energy contains solvation terms)
H-L gap (eV)  :          9.2689
optimized geometry written to: xtbopt.xyz


------------------------------------------------------------------------
 * finished run on 2019/09/16 at 11:46:40.117     
------------------------------------------------------------------------
 total:
 * wall-time:     0 d,  0 h,  0 min,  2.737 sec
 *  cpu-time:     0 d,  0 h,  0 min,  2.701 sec
 * ratio c/w:     0.987 speedup
 SCF:
 * wall-time:     0 d,  0 h,  0 min,  0.138 sec
 *  cpu-time:     0 d,  0 h,  0 min,  0.128 sec
 * ratio c/w:     0.927 speedup
 ANC optimizer:
 * wall-time:     0 d,  0 h,  0 min,  2.572 sec
 *  cpu-time:     0 d,  0 h,  0 min,  2.550 sec
 * ratio c/w:     0.991 speedup

