      -----------------------------------------------------------      
     |                   =====================                   |     
     |                           x T B                           |     
     |                   =====================                   |     
     |                         S. Grimme                         |     
     |          Mulliken Center for Theoretical Chemistry        |     
     |                    University of Bonn                     |     
     |                 Version 6.0.1 (SAW181210)                 |     
      -----------------------------------------------------------      

   This program is distributed in the hope that it will be useful,
   but WITHOUT ANY WARRANTY; without even the implied warranty of
   MERCHANTABILITY or FITNESS FOR A PARTICULAR PURPOSE.
   
   FOR NON-COMMERCIAL, ACADEMIA USE ONLY.
   
   Cite this work as:
   S. Grimme, C. Bannwarth, P. Shushkov, J. Comput. Theory Chem., 2017,
   13, 1989-2009.
   C. Bannwarth, S. Ehlert and S. Grimme., ChemRxiv, 2018, preprint.
   http://doi.org/10.26434/chemrxiv.7246238.v1
   
   for sTDA-xTB:
   S. Grimme and C. Bannwarth, J. Chem. Phys., 2016, 145, 054103.
   
   in the mass-spec context:
   V. Asgeirsson, C. Bauer and S. Grimme, Chem. Sci., 2017, 8, 4879.
   
   if GBSA is used:
   P. Shushkov, F. März and S. Grimme, unpublished.
   
   for ANC optimizer:
   S. Grimme, unpublished.
   Rational Function algorithm used in ANCopt:
   F. Eckert, P. Pulay, H.-J. Werner, J. Comput. Chem., 1997, 18, 1473.
   
   with help from (in alphabetical order)
   C. Bannwarth, F. Bohle, G. Brandenburg, E. Caldeweyher, M. Checinski,
   S. Dohm, S. Ehlert, S. Ehrlich, F. März, H. Neugebauer, J. Pisarek,
   P. Pracht, P. Shushkov, and S. Spicher.
   
 * started run on 2019/09/16 at 11:47:47.978     
========================================================================
 # omp threads = 1
========================================================================
number of atoms            : 23
number of electrons        : 72
charge                     : 0
spin                       : .0
first test random number   : .8967

########################################################################
# WARNING! Please study the warnings concerning your input carefully
#  - XTBPATH is not set, using XTBHOME instead
#  - the use of '-opt' is discouraged, please use '--opt' next time
#  - the use of '-chrg' is discouraged, please use '--chrg' next time
#  - the use of '-uhf' is discouraged, please use '--uhf' next time
########################################################################

           ------------------------------------------------- 
          |                 G F N 2 - x T B                 |
          | Geometry, Frequencies, Noncovalent interactions |
          |            JCTC 2018 parametrisation            |
           ------------------------------------------------- 
      method parameters     
 k(s)        :  1.8500
 k(p)        :  2.2300
 k(d)        :  2.2300
 k(f)        :  2.0000
 kEN (H0ij)  : -2.0000
 D4 a1       :  0.5200
 D4 a2       :  5.0000
 D4 s6       :  1.0000
 D4 s8       :  2.7000
 D4 s9       :  5.0000
 alphaj      :  2.0000


            Z     q(EN)     CN     RAES       Cart. coordinates
     1  S   6.0    0.67    4.13    3.92     0.53855    -1.38417     1.51632
     2  O   6.0   -0.31    1.18    1.80     0.82231    -2.26435    -1.14317
     3  O   6.0   -0.30    1.19    1.80     1.94192    -3.11877     3.23383
     4  O   6.0   -0.33    1.27    1.80     1.57883     1.22105     1.75879
     5  O   6.0   -0.33    1.24    1.80    -2.18885    -1.37460     2.21584
     6  O   6.0   -0.28    2.00    1.83    -0.94174     4.12339    -1.64192
     7  H   1.0    0.16    1.02    1.43    -2.70462     3.75629    -1.37340
     8  H   1.0    0.17    1.04    1.43    -0.08677     3.48418    -0.16711
     9  O   6.0   -0.28    2.04    1.83     0.64963     0.74239    -5.22945
    10  H   1.0    0.17    1.03    1.43     0.46388    -0.70624    -4.14244
    11  H   1.0    0.16    1.01    1.43    -0.35776     2.05130    -4.46361
    12  O   6.0   -0.28    2.00    1.83    -5.24897     1.71617    -0.43243
    13  H   1.0    0.15    0.97    1.43    -6.32286     0.56262    -1.34386
    14  H   1.0    0.17    1.05    1.44    -4.25131     0.67162     0.67582
    15  O   6.0   -0.21    2.90    2.54    -1.83001    -4.74065     5.86963
    16  H   1.0    0.12    0.96    1.43    -2.41641    -6.47411     5.49403
    17  H   1.0    0.15    1.04    1.43    -0.00601    -4.52846     5.52606
    18  H   1.0    0.14    1.01    1.43    -2.86039    -3.44935     4.99650
    19  N   5.0   -0.14    3.93    2.69     4.64411     1.94233    -2.26988
    20  H   1.0    0.10    1.06    1.44     3.39961     1.50801    -3.70062
    21  H   1.0    0.09    0.99    1.43     6.12293     0.67857    -2.29088
    22  H   1.0    0.09    0.99    1.43     5.32783     3.74491    -2.53010
    23  H   1.0    0.12    1.09    1.44     3.72609     1.83785    -0.55794

  Z AO/shell   Hii/eV     exponent
  1     Wed Apr 25 08:07:45 CEST 2018   EN: 2.200 GM2: 0.406  GM3: 0.0800  RAES: 1.40
     1s    -10.707211    1.230000
  7     Wed Apr 25 08:07:45 CEST 2018   EN: 3.040 GM2: 0.461  GM3:-0.0640  RAES: 1.90
     2s    -16.686243    2.339881
     2p    -12.523956    2.014332
  8     Wed Apr 25 08:07:45 CEST 2018   EN: 3.440 GM2: 0.452  GM3:-0.0517  RAES: 1.80
     2s    -20.229985    2.439742
     2p    -15.503117    2.137023
 16     Tue Apr 24 11:44:34 CEST 2018   EN: 2.580 GM2: 0.340  GM3:-0.0502  RAES: 3.10
     3s    -20.029654    1.981333
     3p    -11.377694    2.025643
     3d     -0.420282    1.702555
 no old-style atom pair restraining (fixing) potential

molecular fragmentation (1/2 indicates fragments):
11111222222222222222222
# atoms in fragment 1/2:     5    18
 fragment masses (1/2) :       96.06       91.11
CMA distance (Bohr)    :   3.175
constraining FC (au)   :  0.0500
           ------------------------------------------------- 
          |        Self-Consistent Charge Iterations        |
           ------------------------------------------------- 

 Ncao       : 59
 Nao        : 58
 Nshell     : 34
 Nel        : 72
 T(el)      :   300.0
 intcut     :    25.0
 scfconv/Eh :  0.100E-05
   qconv/e  :  0.100E-03
 intneglect :  0.100E-07
 broydamp   :      0.250
 iter      E             dE          RMSdq      gap      omega  full diag
   1    -45.4718054 -0.454718E+02  0.712E+00   10.44       0.0  T
   2    -45.5095538 -0.377484E-01  0.513E+00    9.96       1.0  T
   3    -45.5422832 -0.327294E-01  0.113E+00    6.92       1.0  T
   4    -45.5458961 -0.361285E-02  0.548E-01    6.94       1.0  T
   5    -45.5466458 -0.749728E-03  0.238E-01    6.80       1.0  T
   6    -45.5468717 -0.225929E-03  0.127E-01    6.85       1.0  T
   7    -45.5469564 -0.846216E-04  0.460E-02    6.93       1.0  T
   8    -45.5469644 -0.802745E-05  0.264E-02    6.93       1.0  T
   9    -45.5469682 -0.378433E-05  0.827E-03    6.93       2.5  T
  10    -45.5469684 -0.237260E-06  0.185E-03    6.92      11.3  T
  11    -45.5469684 -0.155271E-07  0.803E-04    6.92      26.0  T
  12    -45.5469684 -0.264418E-08  0.346E-04    6.92      60.2  T
speedup  1.00
cpu  time for SCC    0.01 s
wall time for SCC    0.01 s

   *** convergence criteria satisfied after 12 iterations ***

          eigenvalues
 #    :          24         25         26         27         28         29         30         31
 occ. :        2.000      2.000      2.000      2.000      2.000      2.000      2.000      2.000
 eps  :       -12.213    -12.052    -11.255    -10.975    -10.877    -10.665    -10.494    -10.167
 #    :          32         33         34         35         36         37         38         39
 occ. :        2.000      2.000      2.000      2.000      2.000      0.000      0.000      0.000
 eps  :       -10.008     -9.895     -9.815     -9.527     -9.436     -2.513     -1.219      0.250
 #    :          40         41         42         43         44         45         46         47
 occ. :        0.000      0.000      0.000      0.000      0.000      0.000      0.000      0.000
 eps  :         2.452      2.518      2.684      2.945      3.167      3.915      4.194      5.680


   #   Z            q   n(s)   n(p)   n(d)      C6AA      α(0)
   1  16 S      1.486  1.606  1.910  0.998    93.797    16.300
   2   8 O     -0.784  1.782  5.002  0.000    31.117     7.479
   3   8 O     -0.795  1.781  5.015  0.000    31.447     7.519
   4   8 O     -0.783  1.780  5.003  0.000    31.075     7.474
   5   8 O     -0.805  1.776  5.029  0.000    31.745     7.554
   6   8 O     -0.649  1.746  4.903  0.000    26.383     6.932
   7   1 H      0.311  0.689  0.000  0.000     0.689     1.304
   8   1 H      0.306  0.694  0.000  0.000     0.702     1.316
   9   8 O     -0.630  1.748  4.882  0.000    25.914     6.871
  10   1 H      0.326  0.674  0.000  0.000     0.647     1.263
  11   1 H      0.318  0.682  0.000  0.000     0.669     1.285
  12   8 O     -0.611  1.743  4.868  0.000    25.451     6.809
  13   1 H      0.271  0.729  0.000  0.000     0.813     1.417
  14   1 H      0.325  0.675  0.000  0.000     0.651     1.267
  15   8 O     -0.366  1.629  4.737  0.000    20.139     6.061
  16   1 H      0.384  0.616  0.000  0.000     0.516     1.128
  17   1 H      0.426  0.574  0.000  0.000     0.439     1.041
  18   1 H      0.423  0.577  0.000  0.000     0.444     1.047
  19   7 N     -0.274  1.246  4.028  0.000    27.058     7.726
  20   1 H      0.314  0.686  0.000  0.000     0.674     1.286
  21   1 H      0.247  0.753  0.000  0.000     0.897     1.483
  22   1 H      0.245  0.755  0.000  0.000     0.902     1.488
  23   1 H      0.314  0.686  0.000  0.000     0.673     1.285

 Mol. C6AA /au·bohr⁶  :       4530.015401
 Mol. C8AA /au·bohr⁸  :     100308.410173
 Mol. α(0) /au        :         97.335083

 
 Wiberg/Mayer (AO) data. WBOs > 0.1 written file <wbo>
 largest (>0.05) Wiberg bond orders for each atom
           total WBO             WBO to atom ...
     1  S   5.010    O    2 1.291    O    3 1.246    O    4 1.220    O    5 1.217
     2  O   1.650    S    1 1.291    O    4 0.104    O    5 0.095    O    3 0.094
     3  O   1.667    S    1 1.246    H   17 0.097    O    5 0.095    O    2 0.094    O    4 0.088
     4  O   1.701    S    1 1.220    O    2 0.104    H   23 0.094    O    3 0.088    O    5 0.086
     5  O   1.665    S    1 1.217    O    3 0.095    O    2 0.095    O    4 0.086    H   18 0.066    H   14 0.053
     6  O   1.828    H    7 0.864    H    8 0.858
     7  H   0.903    O    6 0.864
     8  H   0.906    O    6 0.858
     9  O   1.896    H   11 0.859    H   10 0.847    H   20 0.095
    10  H   0.894    O    9 0.847
    11  H   0.899    O    9 0.859
    12  O   1.841    H   13 0.921    H   14 0.838
    13  H   0.926    O   12 0.921
    14  H   0.894    O   12 0.838    O    5 0.053
    15  O   2.370    H   16 0.845    H   18 0.747    H   17 0.713
    16  H   0.853    O   15 0.845
    17  H   0.818    O   15 0.713    O    3 0.097
    18  H   0.821    O   15 0.747    O    5 0.066
    19  N   3.567    H   22 0.936    H   21 0.935    H   20 0.799    H   23 0.798
    20  H   0.902    N   19 0.799    O    9 0.095
    21  H   0.939    N   19 0.935
    22  H   0.940    N   19 0.936
    23  H   0.901    N   19 0.798    O    4 0.094
 MOs/occ written to file <molden.input>
 
molecular dipole:
                 x           y           z       tot (Debye)
 q only:        0.930      -1.349       1.177
   full:        0.769      -1.738       1.466       6.100
molecular quadrupole (traceless):
                xx          xy          yy          xz          yz          zz
 q only:        4.698      26.556      -1.746     -22.296     -26.819      -2.952
  q+dip:        8.851      28.284      -1.041     -20.691     -24.322      -7.810
   full:        8.974      28.220      -0.886     -20.463     -24.553      -8.088

SCC energy    :     -45.5469684
rep           :       0.2624461
ES            :       0.3549129
AES           :      -0.0738243
AXC           :      -0.0100148
disp          :      -0.0166990
XB            :       0.0000000
fix           :       0.0000000
total E       :     -45.2844218
atomizationE  :       4.3674843     2740.64
(atE without considering molecular charge,
 total energy contains solvation terms)
H-L gap (eV)  :          6.9232
           ------------------------------------------------- 
          |                 ===============                 |
          |                   A N C O P T                   |
          |                 ===============                 |
          |          Approximate Normal Coordinate          |
          |           Rational Function Optimizer           |
           ------------------------------------------------- 
dumping coords to <xtbopt.coord> and <xtbopt.log>
 optlevel               2
 Maxcycle             460
 Maxmicro              25
 Econv         1.000000000000000E-007
 Gconv         2.000000000000000E-004
 Maxdispl       1.00000000000000     
 Hlow          5.000000000000000E-003
 S6             20.0000000000000     
 Nvar               63

generating ANC from model Hessian ...
 Shifting diagonal of input Hessian by   4.774446814208586E-003
 Lowest  eigenvalues of input Hessian
   -0.000000   -0.000000   -0.000000   -0.000000   -0.000000    0.000000
    0.005000    0.005292    0.005647    0.006393    0.006525    0.007204
    0.008085    0.008301    0.008479    0.009056    0.009553    0.010656
 Highest eigenvalues
    1.422576    1.545572    1.547234    3.077910    3.082794    3.084102
 
cpu  time for ANC gen    0.01 s
wall time for ANC gen    0.01 s
................................................................................
.............................. CYCLE    1 ......................................
................................................................................
   1    -45.5469684 -0.455470E+02  0.811E-05    6.92       0.0  T
   2    -45.5469684 -0.159659E-10  0.643E-05    6.92     324.5  T
   3    -45.5469684 -0.924416E-11  0.386E-05    6.92     540.8  T
speedup  0.80
cpu  time for SCC    0.00 s
wall time for SCC    0.00 s
speedup  0.96
cpu  time for grad    0.01 s
wall time for grad    0.01 s
 E :    -45.28442182  G :  0.131460    pred/act E change:  0.000D+00  0.705D-08
Maxdispl :   0.3377   ||displ|| :   0.5611   Lambda : -0.335D-01
Largest |displ|/coords:  0.3377 (  20)  0.2114 (  22)  0.1613 (  26)
................................................................................
.............................. CYCLE    2 ......................................
................................................................................
   1    -45.5567290 -0.455567E+02  0.444E-01    7.77       0.0  T
   2    -45.5571568 -0.427753E-03  0.321E-01    7.91       1.0  T
   3    -45.5573490 -0.192239E-03  0.109E-01    8.17       1.0  T
   4    -45.5573737 -0.247133E-04  0.278E-02    8.19       1.0  T
   5    -45.5573751 -0.140519E-05  0.963E-03    8.18       2.2  T
   6    -45.5573753 -0.148943E-06  0.494E-03    8.18       4.2  T
   7    -45.5573754 -0.772083E-07  0.220E-03    8.17       9.5  T
speedup  0.94
cpu  time for SCC    0.00 s
wall time for SCC    0.01 s
speedup  0.92
cpu  time for grad    0.01 s
wall time for grad    0.01 s
 E :    -45.31432125  G :  0.094393    pred/act E change:  0.000D+00 -0.299D-01
Maxdispl :   0.3533   ||displ|| :   0.5977   Lambda : -0.270D-01
Largest |displ|/coords:  0.3533 (  20)  0.2610 (  22)  0.1719 (  11)
................................................................................
.............................. CYCLE    3 ......................................
................................................................................
   1    -45.5682682 -0.455683E+02  0.455E-01    8.61       0.0  T
   2    -45.5692248 -0.956582E-03  0.312E-01    8.70       1.0  T
   3    -45.5696713 -0.446570E-03  0.130E-01    8.83       1.0  T
   4    -45.5696930 -0.216882E-04  0.339E-02    8.85       1.0  T
   5    -45.5696950 -0.194472E-05  0.148E-02    8.85       1.4  T
   6    -45.5696953 -0.386271E-06  0.712E-03    8.85       2.9  T
   7    -45.5696955 -0.158073E-06  0.299E-03    8.85       7.0  T
   8    -45.5696955 -0.403812E-07  0.103E-03    8.85      20.1  T
speedup  0.98
cpu  time for SCC    0.01 s
wall time for SCC    0.01 s
speedup  1.02
cpu  time for grad    0.01 s
wall time for grad    0.01 s
 E :    -45.33675608  G :  0.072366    pred/act E change: -0.220D-01 -0.224D-01
Maxdispl :   0.2578   ||displ|| :   0.4988   Lambda : -0.149D-01
Largest |displ|/coords:  0.2578 (  20)  0.1954 (  11)  0.1871 (  22)
................................................................................
.............................. CYCLE    4 ......................................
................................................................................
   1    -45.5752187 -0.455752E+02  0.422E-01    8.99       0.0  T
   2    -45.5762912 -0.107247E-02  0.286E-01    9.03       1.0  T
   3    -45.5767794 -0.488252E-03  0.130E-01    9.08       1.0  T
   4    -45.5767982 -0.187402E-04  0.352E-02    9.09       1.0  T
   5    -45.5768002 -0.206675E-05  0.151E-02    9.09       1.4  T
   6    -45.5768006 -0.401110E-06  0.728E-03    9.09       2.9  T
   7    -45.5768008 -0.139994E-06  0.270E-03    9.09       7.7  T
   8    -45.5768008 -0.319703E-07  0.948E-04    9.09      22.0  T
speedup  1.00
cpu  time for SCC    0.01 s
wall time for SCC    0.01 s
speedup  0.95
cpu  time for grad    0.01 s
wall time for grad    0.01 s
 E :    -45.34729858  G :  0.053629    pred/act E change: -0.183D-01 -0.105D-01
Maxdispl :   0.1803   ||displ|| :   0.3758   Lambda : -0.644D-02
Largest |displ|/coords:  0.1803 (   3)  0.1632 (   9)  0.1520 (   2)
................................................................................
.............................. CYCLE    5 ......................................
................................................................................
   1    -45.5824813 -0.455825E+02  0.237E-01    9.16       0.0  T
   2    -45.5826631 -0.181836E-03  0.169E-01    9.16       1.0  T
   3    -45.5827409 -0.778108E-04  0.780E-02    9.15       1.0  T
   4    -45.5827465 -0.554590E-05  0.205E-02    9.15       1.0  T
   5    -45.5827475 -0.103426E-05  0.660E-03    9.15       3.2  T
   6    -45.5827476 -0.656942E-07  0.342E-03    9.15       6.1  T
   7    -45.5827476 -0.189377E-07  0.124E-03    9.15      16.8  T
speedup  1.15
cpu  time for SCC    0.01 s
wall time for SCC    0.01 s
speedup  1.01
cpu  time for grad    0.01 s
wall time for grad    0.01 s
 E :    -45.35212156  G :  0.040687    pred/act E change: -0.929D-02 -0.482D-02
Maxdispl :   0.2111   ||displ|| :   0.5420   Lambda : -0.769D-02
Largest |displ|/coords:  0.2111 (   2)  0.2007 (   3)  0.1680 (   9)
................................................................................
.............................. CYCLE    6 ......................................
................................................................................
   1    -45.5938694 -0.455939E+02  0.443E-01    9.30       0.0  T
   2    -45.5948118 -0.942327E-03  0.330E-01    9.28       1.0  T
   3    -45.5952192 -0.407475E-03  0.175E-01    9.26       1.0  T
   4    -45.5952477 -0.284407E-04  0.574E-02    9.26       1.0  T
   5    -45.5952525 -0.480571E-05  0.161E-02    9.26       1.3  T
   6    -45.5952527 -0.248422E-06  0.779E-03    9.26       2.7  T
   7    -45.5952528 -0.992805E-07  0.247E-03    9.26       8.4  T
   8    -45.5952528 -0.158827E-07  0.938E-04    9.26      22.2  T
speedup  1.00
cpu  time for SCC    0.01 s
wall time for SCC    0.01 s
speedup  1.03
cpu  time for grad    0.01 s
wall time for grad    0.01 s
 E :    -45.35706112  G :  0.051744    pred/act E change: -0.368D-02 -0.494D-02
Maxdispl :   0.2332   ||displ|| :   0.4204   Lambda : -0.501D-02
Largest |displ|/coords:  0.2332 (   2)  0.1842 (   9)  0.1507 (   3)
................................................................................
.............................. CYCLE    7 ......................................
................................................................................
   1    -45.6009580 -0.456010E+02  0.240E-01    9.29       0.0  T
   2    -45.6010203 -0.622434E-04  0.178E-01    9.30       1.0  T
   3    -45.6010560 -0.356722E-04  0.629E-02    9.32       1.0  T
   4    -45.6010622 -0.626759E-05  0.221E-02    9.32       1.0  T
   5    -45.6010629 -0.662992E-06  0.522E-03    9.32       4.0  T
   6    -45.6010629 -0.482257E-07  0.322E-03    9.32       6.5  T
speedup  0.89
cpu  time for SCC    0.00 s
wall time for SCC    0.00 s
speedup  0.99
cpu  time for grad    0.01 s
wall time for grad    0.01 s
 E :    -45.36111145  G :  0.054897    pred/act E change: -0.497D-02 -0.405D-02
Maxdispl :   0.2461   ||displ|| :   0.4211   Lambda : -0.451D-02
Largest |displ|/coords:  0.2461 (   2)  0.1591 (   3)  0.1401 (   9)
................................................................................
.............................. CYCLE    8 ......................................
................................................................................
   1    -45.6125864 -0.456126E+02  0.267E-01    9.32       0.0  T
   2    -45.6126791 -0.927147E-04  0.204E-01    9.31       1.0  T
   3    -45.6127426 -0.634744E-04  0.689E-02    9.31       1.0  T
   4    -45.6127541 -0.114925E-04  0.252E-02    9.31       1.0  T
   5    -45.6127549 -0.829727E-06  0.702E-03    9.31       3.0  T
   6    -45.6127549 -0.535934E-07  0.359E-03    9.31       5.8  T
   7    -45.6127550 -0.154927E-07  0.851E-04    9.31      24.5  T
speedup  0.96
cpu  time for SCC    0.01 s
wall time for SCC    0.01 s
speedup  1.00
cpu  time for grad    0.01 s
wall time for grad    0.01 s
 E :    -45.36415617  G :  0.059066    pred/act E change: -0.295D-02 -0.304D-02
Maxdispl :   0.1795   ||displ|| :   0.3385   Lambda : -0.742D-02
Largest |displ|/coords:  0.1795 (   3)  0.1395 (   2)  0.0840 (  17)
................................................................................
.............................. CYCLE    9 ......................................
................................................................................
   1    -45.6054362 -0.456054E+02  0.262E-01    9.24       0.0  T
   2    -45.6055173 -0.811182E-04  0.192E-01    9.26       1.0  T
   3    -45.6055756 -0.583230E-04  0.572E-02    9.29       1.0  T
   4    -45.6055818 -0.615481E-05  0.171E-02    9.29       1.2  T
   5    -45.6055821 -0.322493E-06  0.591E-03    9.29       3.5  T
   6    -45.6055821 -0.754961E-07  0.302E-03    9.29       6.9  T
speedup  1.11
cpu  time for SCC    0.00 s
wall time for SCC    0.00 s
speedup  1.07
cpu  time for grad    0.01 s
wall time for grad    0.01 s
 E :    -45.36429589  G :  0.056064    pred/act E change: -0.265D-02 -0.140D-03
Maxdispl :   0.1644   ||displ|| :   0.3634   Lambda : -0.101D-01
Largest |displ|/coords:  0.1644 (  13)  0.1265 (   9)  0.1025 (  24)
................................................................................
.............................. CYCLE   10 ......................................
................................................................................
   1    -45.6222201 -0.456222E+02  0.326E-01    9.43       0.0  T
   2    -45.6223382 -0.118101E-03  0.244E-01    9.43       1.0  T
   3    -45.6224378 -0.996417E-04  0.774E-02    9.41       1.0  T
   4    -45.6224510 -0.131998E-04  0.306E-02    9.41       1.0  T
   5    -45.6224524 -0.138147E-05  0.986E-03    9.41       2.1  T
   6    -45.6224525 -0.903697E-07  0.431E-03    9.41       4.8  T
   7    -45.6224525 -0.418467E-07  0.100E-03    9.41      20.8  T
speedup  1.13
cpu  time for SCC    0.01 s
wall time for SCC    0.01 s
speedup  1.01
cpu  time for grad    0.01 s
wall time for grad    0.01 s
 E :    -45.36670868  G :  0.050816    pred/act E change: -0.413D-02 -0.241D-02
Maxdispl :   0.1271   ||displ|| :   0.2795   Lambda : -0.646D-02
Largest |displ|/coords:  0.1271 (   2)  0.0967 (   3)  0.0782 (  17)
................................................................................
.............................. CYCLE   11 ......................................
................................................................................
   1    -45.6143279 -0.456143E+02  0.244E-01    9.29       0.0  T
   2    -45.6143639 -0.359558E-04  0.182E-01    9.29       1.0  T
   3    -45.6144008 -0.369020E-04  0.439E-02    9.30       1.0  T
   4    -45.6144035 -0.270569E-05  0.167E-02    9.30       1.2  T
   5    -45.6144038 -0.337569E-06  0.454E-03    9.30       4.6  T
   6    -45.6144038 -0.254624E-07  0.267E-03    9.30       7.8  T
speedup  1.06
cpu  time for SCC    0.01 s
wall time for SCC    0.00 s
speedup  0.96
cpu  time for grad    0.01 s
wall time for grad    0.01 s
 E :    -45.36775593  G :  0.037621    pred/act E change: -0.572D-02 -0.105D-02
Maxdispl :   0.1116   ||displ|| :   0.1932   Lambda : -0.218D-02
Largest |displ|/coords:  0.1116 (   2)  0.0641 (  12)  0.0571 (   9)
................................................................................
.............................. CYCLE   12 ......................................
................................................................................
   1    -45.6196667 -0.456197E+02  0.131E-01    9.28       0.0  T
   2    -45.6196855 -0.187285E-04  0.971E-02    9.28       1.0  T
   3    -45.6197016 -0.161580E-04  0.333E-02    9.28       1.0  T
   4    -45.6197039 -0.223270E-05  0.102E-02    9.28       2.0  T
   5    -45.6197040 -0.164090E-06  0.378E-03    9.28       5.5  T
   6    -45.6197040 -0.160243E-07  0.175E-03    9.28      11.9  T
speedup  1.14
cpu  time for SCC    0.00 s
wall time for SCC    0.00 s
speedup  1.00
cpu  time for grad    0.01 s
wall time for grad    0.01 s
 E :    -45.36924253  G :  0.016678    pred/act E change: -0.348D-02 -0.149D-02
Maxdispl :   0.2151   ||displ|| :   0.3120   Lambda : -0.114D-02
Largest |displ|/coords:  0.2151 (   2)  0.1059 (   3)  0.1012 (   6)
................................................................................
.............................. CYCLE   13 ......................................
................................................................................
   1    -45.6213725 -0.456214E+02  0.198E-01    9.21       0.0  T
   2    -45.6213922 -0.197197E-04  0.149E-01    9.21       1.0  T
   3    -45.6214068 -0.146728E-04  0.289E-02    9.21       1.0  T
   4    -45.6214097 -0.281565E-05  0.125E-02    9.21       1.7  T
   5    -45.6214099 -0.232103E-06  0.377E-03    9.21       5.5  T
   6    -45.6214099 -0.153046E-07  0.210E-03    9.21      10.0  T
   7    -45.6214099 -0.819769E-08  0.508E-04    9.21      41.1  T
speedup  0.94
cpu  time for SCC    0.00 s
wall time for SCC    0.01 s
speedup  1.00
cpu  time for grad    0.01 s
wall time for grad    0.01 s
 E :    -45.36957338  G :  0.020575    pred/act E change: -0.113D-02 -0.331D-03
Maxdispl :   0.1309   ||displ|| :   0.2706   Lambda : -0.112D-02
Largest |displ|/coords:  0.1309 (   2)  0.1045 (   3)  0.0976 (   5)
................................................................................
.............................. CYCLE   14 ......................................
................................................................................
   1    -45.6233295 -0.456233E+02  0.172E-01    9.18       0.0  T
   2    -45.6233418 -0.123096E-04  0.130E-01    9.18       1.0  T
   3    -45.6233488 -0.699766E-05  0.250E-02    9.20       1.0  T
   4    -45.6233508 -0.205673E-05  0.836E-03    9.20       2.5  T
   5    -45.6233509 -0.879913E-07  0.210E-03    9.20      10.0  T
   6    -45.6233509 -0.389682E-08  0.133E-03    9.20      15.7  T
speedup  0.89
cpu  time for SCC    0.00 s
wall time for SCC    0.00 s
speedup  0.98
cpu  time for grad    0.01 s
wall time for grad    0.01 s
 E :    -45.37011486  G :  0.010602    pred/act E change: -0.626D-03 -0.541D-03
Maxdispl :   0.1406   ||displ|| :   0.1770   Lambda : -0.368D-03
Largest |displ|/coords:  0.1406 (   2)  0.0730 (   1)  0.0346 (   3)
................................................................................
.............................. CYCLE   15 ......................................
................................................................................
   1    -45.6223464 -0.456223E+02  0.105E-01    9.16       0.0  T
   2    -45.6223489 -0.254112E-05  0.786E-02    9.16       1.0  T
   3    -45.6223505 -0.153438E-05  0.107E-02    9.16       2.0  T
   4    -45.6223508 -0.367292E-06  0.427E-03    9.16       4.9  T
   5    -45.6223509 -0.196828E-07  0.859E-04    9.16      24.3  T
   6    -45.6223509 -0.615557E-09  0.504E-04    9.16      41.4  T
speedup  1.06
cpu  time for SCC    0.00 s
wall time for SCC    0.00 s
speedup  0.96
cpu  time for grad    0.01 s
wall time for grad    0.01 s
 E :    -45.37030643  G :  0.009680    pred/act E change: -0.603D-03 -0.192D-03
Maxdispl :   0.0805   ||displ|| :   0.1697   Lambda : -0.311D-03
Largest |displ|/coords:  0.0805 (   1)  0.0798 (   2)  0.0645 (   4)
................................................................................
.............................. CYCLE   16 ......................................
................................................................................
   1    -45.6237649 -0.456238E+02  0.918E-02    9.20       0.0  T
   2    -45.6237672 -0.226124E-05  0.668E-02    9.19       1.0  T
   3    -45.6237689 -0.171744E-05  0.120E-02    9.19       1.7  T
   4    -45.6237691 -0.205389E-06  0.295E-03    9.19       7.1  T
   5    -45.6237691 -0.141022E-07  0.119E-03    9.19      17.5  T
speedup  1.05
cpu  time for SCC    0.00 s
wall time for SCC    0.00 s
speedup  1.05
cpu  time for grad    0.01 s
wall time for grad    0.01 s
 E :    -45.37051666  G :  0.007104    pred/act E change: -0.190D-03 -0.210D-03
Maxdispl :   0.1722   ||displ|| :   0.2825   Lambda : -0.280D-03
Largest |displ|/coords:  0.1722 (   1)  0.1710 (   2)  0.0616 (   4)
................................................................................
.............................. CYCLE   17 ......................................
................................................................................
   1    -45.6246077 -0.456246E+02  0.147E-01    9.18       0.0  T
   2    -45.6246129 -0.522395E-05  0.109E-01    9.18       1.0  T
   3    -45.6246174 -0.444604E-05  0.185E-02    9.17       1.1  T
   4    -45.6246180 -0.593414E-06  0.527E-03    9.17       4.0  T
   5    -45.6246180 -0.408174E-07  0.212E-03    9.17       9.8  T
   6    -45.6246180 -0.616620E-08  0.126E-03    9.17      16.5  T
speedup  0.89
cpu  time for SCC    0.00 s
wall time for SCC    0.00 s
speedup  0.98
cpu  time for grad    0.01 s
wall time for grad    0.01 s
 E :    -45.37066441  G :  0.010165    pred/act E change: -0.160D-03 -0.148D-03
Maxdispl :   0.1974   ||displ|| :   0.3118   Lambda : -0.292D-03
Largest |displ|/coords:  0.1974 (   2)  0.1493 (   1)  0.1017 (   6)
................................................................................
.............................. CYCLE   18 ......................................
................................................................................
   1    -45.6253950 -0.456254E+02  0.152E-01    9.14       0.0  T
   2    -45.6254019 -0.697903E-05  0.113E-01    9.15       1.0  T
   3    -45.6254068 -0.481930E-05  0.176E-02    9.15       1.2  T
   4    -45.6254076 -0.881740E-06  0.472E-03    9.15       4.4  T
   5    -45.6254077 -0.350244E-07  0.199E-03    9.15      10.5  T
   6    -45.6254077 -0.445590E-08  0.112E-03    9.15      18.6  T
speedup  0.87
cpu  time for SCC    0.00 s
wall time for SCC    0.00 s
speedup  0.98
cpu  time for grad    0.01 s
wall time for grad    0.01 s
 E :    -45.37077065  G :  0.010946    pred/act E change: -0.151D-03 -0.106D-03
Maxdispl :   0.1455   ||displ|| :   0.2001   Lambda : -0.259D-03
Largest |displ|/coords:  0.1455 (   1)  0.0866 (   6)  0.0633 (   2)
................................................................................
.............................. CYCLE   19 ......................................
................................................................................
   1    -45.6236741 -0.456237E+02  0.125E-01    9.15       0.0  T
   2    -45.6236789 -0.481186E-05  0.938E-02    9.15       1.0  T
   3    -45.6236824 -0.352190E-05  0.143E-02    9.16       1.5  T
   4    -45.6236830 -0.651726E-06  0.495E-03    9.16       4.2  T
   5    -45.6236831 -0.368537E-07  0.160E-03    9.16      13.0  T
   6    -45.6236831 -0.257938E-08  0.921E-04    9.16      22.6  T
speedup  0.87
cpu  time for SCC    0.00 s
wall time for SCC    0.00 s
speedup  0.98
cpu  time for grad    0.01 s
wall time for grad    0.01 s
 E :    -45.37083810  G :  0.012904    pred/act E change: -0.160D-03 -0.674D-04
Maxdispl :   0.0476   ||displ|| :   0.1131   Lambda : -0.354D-03
Largest |displ|/coords:  0.0476 (   1)  0.0455 (   4)  0.0405 (   6)
................................................................................
.............................. CYCLE   20 ......................................
................................................................................
   1    -45.6270284 -0.456270E+02  0.666E-02    9.21       0.0  T
   2    -45.6270310 -0.258959E-05  0.484E-02    9.21       1.0  T
   3    -45.6270320 -0.982899E-06  0.111E-02    9.21       1.9  T
   4    -45.6270323 -0.281498E-06  0.396E-03    9.21       5.3  T
   5    -45.6270323 -0.146614E-07  0.774E-04    9.21      26.9  T
   6    -45.6270323 -0.935344E-09  0.422E-04    9.21      49.4  T
speedup  0.89
cpu  time for SCC    0.00 s
wall time for SCC    0.00 s
speedup  0.99
cpu  time for grad    0.01 s
wall time for grad    0.01 s
 E :    -45.37099291  G :  0.007863    pred/act E change: -0.135D-03 -0.155D-03
Maxdispl :   0.1550   ||displ|| :   0.2689   Lambda : -0.223D-03
Largest |displ|/coords:  0.1550 (   2)  0.1487 (   1)  0.0818 (   6)
................................................................................
.............................. CYCLE   21 ......................................
................................................................................
   1    -45.6239212 -0.456239E+02  0.131E-01    9.16       0.0  T
   2    -45.6239241 -0.287521E-05  0.982E-02    9.17       1.0  T
   3    -45.6239268 -0.267194E-05  0.106E-02    9.17       2.0  T
   4    -45.6239271 -0.292222E-06  0.406E-03    9.17       5.1  T
   5    -45.6239271 -0.206778E-07  0.134E-03    9.17      15.6  T
   6    -45.6239271 -0.222016E-08  0.783E-04    9.17      26.6  T
speedup  0.89
cpu  time for SCC    0.00 s
wall time for SCC    0.00 s
speedup  0.98
cpu  time for grad    0.01 s
wall time for grad    0.01 s
 E :    -45.37108882  G :  0.009996    pred/act E change: -0.179D-03 -0.959D-04
Maxdispl :   0.1500   ||displ|| :   0.2343   Lambda : -0.254D-03
Largest |displ|/coords:  0.1500 (   1)  0.1065 (   2)  0.0742 (   5)
................................................................................
.............................. CYCLE   22 ......................................
................................................................................
   1    -45.6263927 -0.456264E+02  0.972E-02    9.19       0.0  T
   2    -45.6263957 -0.307413E-05  0.722E-02    9.19       1.0  T
   3    -45.6263979 -0.220636E-05  0.113E-02    9.20       1.8  T
   4    -45.6263983 -0.370367E-06  0.341E-03    9.20       6.1  T
   5    -45.6263983 -0.136651E-07  0.135E-03    9.20      15.4  T
   6    -45.6263983 -0.236938E-08  0.752E-04    9.20      27.7  T
speedup  0.89
cpu  time for SCC    0.00 s
wall time for SCC    0.00 s
speedup  0.98
cpu  time for grad    0.01 s
wall time for grad    0.01 s
 E :    -45.37116967  G :  0.009573    pred/act E change: -0.120D-03 -0.808D-04
Maxdispl :   0.1354   ||displ|| :   0.1946   Lambda : -0.211D-03
Largest |displ|/coords:  0.1354 (   1)  0.0847 (   2)  0.0809 (   5)
................................................................................
.............................. CYCLE   23 ......................................
................................................................................
   1    -45.6257539 -0.456258E+02  0.951E-02    9.22       0.0  T
   2    -45.6257552 -0.132251E-05  0.705E-02    9.23       1.0  T
   3    -45.6257561 -0.862327E-06  0.108E-02    9.23       1.9  T
   4    -45.6257563 -0.186219E-06  0.291E-03    9.23       7.2  T
   5    -45.6257563 -0.882230E-08  0.777E-04    9.23      26.8  T
speedup  1.03
cpu  time for SCC    0.00 s
wall time for SCC    0.00 s
speedup  1.04
cpu  time for grad    0.01 s
wall time for grad    0.01 s
 E :    -45.37128794  G :  0.007477    pred/act E change: -0.134D-03 -0.118D-03
Maxdispl :   0.1154   ||displ|| :   0.1689   Lambda : -0.134D-03
Largest |displ|/coords:  0.1154 (   1)  0.0611 (   2)  0.0496 (  10)
................................................................................
.............................. CYCLE   24 ......................................
................................................................................
   1    -45.6257740 -0.456258E+02  0.853E-02    9.23       0.0  T
   2    -45.6257756 -0.158336E-05  0.642E-02    9.23       1.0  T
   3    -45.6257770 -0.138636E-05  0.777E-03    9.25       2.7  T
   4    -45.6257772 -0.194874E-06  0.289E-03    9.24       7.2  T
   5    -45.6257772 -0.104858E-07  0.101E-03    9.24      20.6  T
speedup  1.03
cpu  time for SCC    0.00 s
wall time for SCC    0.00 s
speedup  0.94
cpu  time for grad    0.01 s
wall time for grad    0.01 s
 E :    -45.37136660  G :  0.008837    pred/act E change: -0.109D-03 -0.787D-04
Maxdispl :   0.1513   ||displ|| :   0.2577   Lambda : -0.160D-03
Largest |displ|/coords:  0.1513 (   1)  0.1159 (   2)  0.1106 (   5)
................................................................................
.............................. CYCLE   25 ......................................
................................................................................
   1    -45.6263953 -0.456264E+02  0.109E-01    9.22       0.0  T
   2    -45.6263967 -0.135291E-05  0.815E-02    9.23       1.0  T
   3    -45.6263982 -0.150453E-05  0.670E-03    9.24       3.1  T
   4    -45.6263983 -0.101527E-06  0.305E-03    9.24       6.8  T
   5    -45.6263983 -0.940898E-08  0.101E-03    9.24      20.7  T
   6    -45.6263983 -0.139236E-08  0.562E-04    9.23      37.1  T
speedup  1.11
cpu  time for SCC    0.00 s
wall time for SCC    0.00 s
speedup  0.99
cpu  time for grad    0.01 s
wall time for grad    0.01 s
 E :    -45.37148346  G :  0.007779    pred/act E change: -0.687D-04 -0.117D-03
Maxdispl :   0.1802   ||displ|| :   0.3429   Lambda : -0.236D-03
Largest |displ|/coords:  0.1802 (   1)  0.1768 (   2)  0.1473 (   5)

generating ANC from model Hessian ...
 Shifting diagonal of input Hessian by   4.652074016676296E-003
 Lowest  eigenvalues of input Hessian
   -0.000000   -0.000000   -0.000000    0.000000    0.000000    0.000000
    0.005000    0.005210    0.005651    0.006237    0.006877    0.007725
    0.007920    0.008952    0.010018    0.010226    0.011976    0.013316
 Highest eigenvalues
    1.396510    1.407969    1.433292    2.643662    3.387931    3.639764
 
cpu  time for ANC gen    0.01 s
wall time for ANC gen    0.01 s
................................................................................
.............................. CYCLE   26 ......................................
................................................................................
   1    -45.6272377 -0.456272E+02  0.156E-01    9.20       0.0  T
   2    -45.6272414 -0.370935E-05  0.117E-01    9.21       1.0  T
   3    -45.6272444 -0.300528E-05  0.111E-02    9.22       1.9  T
   4    -45.6272449 -0.500576E-06  0.508E-03    9.22       4.1  T
   5    -45.6272449 -0.240870E-07  0.154E-03    9.22      13.6  T
   6    -45.6272449 -0.274775E-08  0.887E-04    9.22      23.5  T
   7    -45.6272449 -0.958167E-09  0.193E-04    9.22     108.2  T
speedup  1.13
cpu  time for SCC    0.01 s
wall time for SCC    0.01 s
speedup  1.06
cpu  time for grad    0.01 s
wall time for grad    0.01 s
 E :    -45.37165195  G :  0.005577    pred/act E change:  0.000D+00 -0.168D-03
Maxdispl :   0.1123   ||displ|| :   0.1564   Lambda : -0.268D-03
Largest |displ|/coords:  0.1123 (   1)  0.0736 (  10)  0.0326 (   4)
................................................................................
.............................. CYCLE   27 ......................................
................................................................................
   1    -45.6275302 -0.456275E+02  0.115E-01    9.22       0.0  T
   2    -45.6275325 -0.229504E-05  0.864E-02    9.22       1.0  T
   3    -45.6275343 -0.174052E-05  0.104E-02    9.22       2.0  T
   4    -45.6275346 -0.329721E-06  0.351E-03    9.22       5.9  T
   5    -45.6275346 -0.159666E-07  0.111E-03    9.22      18.8  T
   6    -45.6275346 -0.118222E-08  0.638E-04    9.22      32.7  T
speedup  0.85
cpu  time for SCC    0.00 s
wall time for SCC    0.00 s
speedup  0.87
cpu  time for grad    0.01 s
wall time for grad    0.01 s
 E :    -45.37185914  G :  0.004014    pred/act E change:  0.000D+00 -0.207D-03
Maxdispl :   0.1999   ||displ|| :   0.3192   Lambda : -0.386D-03
Largest |displ|/coords:  0.1999 (   1)  0.1460 (  10)  0.0895 (   3)
................................................................................
.............................. CYCLE   28 ......................................
................................................................................
   1    -45.6261347 -0.456261E+02  0.235E-01    9.22       0.0  T
   2    -45.6261431 -0.834313E-05  0.176E-01    9.22       1.0  T
   3    -45.6261497 -0.663146E-05  0.216E-02    9.23       1.0  T
   4    -45.6261507 -0.101679E-05  0.718E-03    9.22       2.9  T
   5    -45.6261508 -0.501164E-07  0.209E-03    9.22      10.0  T
   6    -45.6261508 -0.349494E-08  0.119E-03    9.22      17.6  T
speedup  1.09
cpu  time for SCC    0.00 s
wall time for SCC    0.00 s
speedup  0.97
cpu  time for grad    0.01 s
wall time for grad    0.01 s
 E :    -45.37203554  G :  0.012959    pred/act E change: -0.137D-03 -0.176D-03
Maxdispl :   0.0578   ||displ|| :   0.1134   Lambda : -0.220D-03
Largest |displ|/coords:  0.0578 (   1)  0.0574 (   2)  0.0306 (   9)
................................................................................
.............................. CYCLE   29 ......................................
................................................................................
   1    -45.6273910 -0.456274E+02  0.784E-02    9.22       0.0  T
   2    -45.6273938 -0.286720E-05  0.589E-02    9.22       1.0  T
   3    -45.6273960 -0.213098E-05  0.107E-02    9.21       1.9  T
   4    -45.6273963 -0.354527E-06  0.371E-03    9.21       5.6  T
   5    -45.6273963 -0.181085E-07  0.102E-03    9.22      20.4  T
   6    -45.6273963 -0.982475E-09  0.592E-04    9.22      35.2  T
speedup  0.89
cpu  time for SCC    0.00 s
wall time for SCC    0.00 s
speedup  0.98
cpu  time for grad    0.01 s
wall time for grad    0.01 s
 E :    -45.37214655  G :  0.003682    pred/act E change: -0.212D-03 -0.111D-03
Maxdispl :   0.0849   ||displ|| :   0.1459   Lambda : -0.105D-03
Largest |displ|/coords:  0.0849 (   1)  0.0645 (  10)  0.0546 (   3)
................................................................................
.............................. CYCLE   30 ......................................
................................................................................
   1    -45.6269928 -0.456270E+02  0.880E-02    9.20       0.0  T
   2    -45.6269939 -0.118530E-05  0.661E-02    9.20       1.0  T
   3    -45.6269952 -0.128226E-05  0.793E-03    9.21       2.6  T
   4    -45.6269953 -0.866673E-07  0.243E-03    9.20       8.6  T
   5    -45.6269953 -0.792174E-08  0.752E-04    9.20      27.7  T
   6    -45.6269953 -0.648235E-09  0.480E-04    9.20      43.4  T
speedup  1.11
cpu  time for SCC    0.00 s
wall time for SCC    0.00 s
speedup  1.03
cpu  time for grad    0.01 s
wall time for grad    0.01 s
 E :    -45.37223161  G :  0.002758    pred/act E change: -0.111D-03 -0.851D-04
Maxdispl :   0.1922   ||displ|| :   0.3305   Lambda : -0.182D-03
Largest |displ|/coords:  0.1922 (   1)  0.1513 (  10)  0.1295 (   3)
................................................................................
.............................. CYCLE   31 ......................................
................................................................................
   1    -45.6248473 -0.456248E+02  0.209E-01    9.15       0.0  T
   2    -45.6248536 -0.635653E-05  0.157E-01    9.16       1.0  T
   3    -45.6248604 -0.676751E-05  0.177E-02    9.17       1.2  T
   4    -45.6248609 -0.512330E-06  0.483E-03    9.16       4.3  T
   5    -45.6248609 -0.344386E-07  0.195E-03    9.16      10.7  T
   6    -45.6248609 -0.603716E-08  0.116E-03    9.16      18.0  T
   7    -45.6248609 -0.158601E-08  0.243E-04    9.16      85.9  T
   8    -45.6248609 -0.162004E-09  0.816E-05    9.16     255.4  T
speedup  1.02
cpu  time for SCC    0.01 s
wall time for SCC    0.01 s
speedup  1.00
cpu  time for grad    0.01 s
wall time for grad    0.01 s
 E :    -45.37231717  G :  0.008814    pred/act E change: -0.534D-04 -0.856D-04
Maxdispl :   0.0218   ||displ|| :   0.0460   Lambda : -0.874D-04
Largest |displ|/coords:  0.0218 (   6)  0.0185 (   9)  0.0164 (  13)
................................................................................
.............................. CYCLE   32 ......................................
................................................................................
   1    -45.6264020 -0.456264E+02  0.313E-02    9.17       0.0  T
   2    -45.6264028 -0.763123E-06  0.234E-02    9.17       1.0  T
   3    -45.6264032 -0.434603E-06  0.573E-03    9.17       3.6  T
   4    -45.6264033 -0.865759E-07  0.233E-03    9.17       8.9  T
   5    -45.6264033 -0.974716E-08  0.544E-04    9.17      38.3  T
speedup  1.05
cpu  time for SCC    0.00 s
wall time for SCC    0.00 s
speedup  1.04
cpu  time for grad    0.01 s
wall time for grad    0.01 s
 E :    -45.37236617  G :  0.003639    pred/act E change: -0.101D-03 -0.490D-04
Maxdispl :   0.0616   ||displ|| :   0.1021   Lambda : -0.522D-04
Largest |displ|/coords:  0.0616 (   1)  0.0451 (  10)  0.0303 (   4)
................................................................................
.............................. CYCLE   33 ......................................
................................................................................
   1    -45.6265748 -0.456266E+02  0.612E-02    9.18       0.0  T
   2    -45.6265753 -0.502225E-06  0.461E-02    9.18       1.0  T
   3    -45.6265758 -0.509191E-06  0.450E-03    9.18       4.6  T
   4    -45.6265759 -0.525377E-07  0.256E-03    9.18       8.2  T
   5    -45.6265759 -0.486866E-08  0.562E-04    9.18      37.1  T
   6    -45.6265759 -0.282490E-09  0.376E-04    9.18      55.4  T
speedup  0.85
cpu  time for SCC    0.00 s
wall time for SCC    0.00 s
speedup  0.93
cpu  time for grad    0.01 s
wall time for grad    0.01 s
 E :    -45.37240850  G :  0.002756    pred/act E change: -0.438D-04 -0.423D-04
Maxdispl :   0.1189   ||displ|| :   0.2245   Lambda : -0.106D-03
Largest |displ|/coords:  0.1189 (   1)  0.1019 (  10)  0.0625 (   4)
................................................................................
.............................. CYCLE   34 ......................................
................................................................................
   1    -45.6269430 -0.456269E+02  0.140E-01    9.19       0.0  T
   2    -45.6269459 -0.285434E-05  0.106E-01    9.19       1.0  T
   3    -45.6269481 -0.219224E-05  0.113E-02    9.20       1.9  T
   4    -45.6269485 -0.432561E-06  0.543E-03    9.20       3.8  T
   5    -45.6269485 -0.244632E-07  0.127E-03    9.20      16.4  T
   6    -45.6269485 -0.139594E-08  0.827E-04    9.20      25.2  T
   7    -45.6269485 -0.988742E-09  0.154E-04    9.20     135.7  T
speedup  0.96
cpu  time for SCC    0.00 s
wall time for SCC    0.01 s
speedup  0.97
cpu  time for grad    0.01 s
wall time for grad    0.01 s
 E :    -45.37246011  G :  0.005299    pred/act E change: -0.264D-04 -0.516D-04
Maxdispl :   0.0331   ||displ|| :   0.0569   Lambda : -0.448D-04
Largest |displ|/coords:  0.0331 (   3)  0.0249 (   1)  0.0134 (   8)
................................................................................
.............................. CYCLE   35 ......................................
................................................................................
   1    -45.6275390 -0.456275E+02  0.370E-02    9.22       0.0  T
   2    -45.6275394 -0.477621E-06  0.276E-02    9.22       1.0  T
   3    -45.6275398 -0.386216E-06  0.480E-03    9.22       4.3  T
   4    -45.6275399 -0.590877E-07  0.160E-03    9.22      13.0  T
   5    -45.6275399 -0.400599E-08  0.535E-04    9.22      39.0  T
speedup  1.05
cpu  time for SCC    0.00 s
wall time for SCC    0.00 s
speedup  1.05
cpu  time for grad    0.01 s
wall time for grad    0.01 s
 E :    -45.37248264  G :  0.003608    pred/act E change: -0.555D-04 -0.225D-04
Maxdispl :   0.0537   ||displ|| :   0.0830   Lambda : -0.253D-04
Largest |displ|/coords:  0.0537 (   1)  0.0349 (   7)  0.0293 (  10)
................................................................................
.............................. CYCLE   36 ......................................
................................................................................
   1    -45.6273560 -0.456274E+02  0.440E-02    9.21       0.0  T
   2    -45.6273563 -0.223522E-06  0.329E-02    9.21       1.0  T
   3    -45.6273564 -0.185801E-06  0.372E-03    9.21       5.6  T
   4    -45.6273565 -0.299789E-07  0.109E-03    9.21      19.2  T
   5    -45.6273565 -0.114831E-08  0.374E-04    9.21      55.8  T
   6    -45.6273565 -0.160654E-09  0.204E-04    9.21     102.2  T
speedup  0.87
cpu  time for SCC    0.00 s
wall time for SCC    0.00 s
speedup  0.94
cpu  time for grad    0.01 s
wall time for grad    0.01 s
 E :    -45.37250261  G :  0.002473    pred/act E change: -0.225D-04 -0.200D-04
Maxdispl :   0.1007   ||displ|| :   0.1461   Lambda : -0.354D-04
Largest |displ|/coords:  0.1007 (   1)  0.0591 (   7)  0.0385 (  10)
................................................................................
.............................. CYCLE   37 ......................................
................................................................................
   1    -45.6270249 -0.456270E+02  0.822E-02    9.19       0.0  T
   2    -45.6270255 -0.660012E-06  0.616E-02    9.19       1.0  T
   3    -45.6270261 -0.544872E-06  0.688E-03    9.19       3.0  T
   4    -45.6270262 -0.890833E-07  0.178E-03    9.19      11.7  T
   5    -45.6270262 -0.343163E-08  0.702E-04    9.19      29.7  T
   6    -45.6270262 -0.505942E-09  0.339E-04    9.19      61.5  T
speedup  1.11
cpu  time for SCC    0.00 s
wall time for SCC    0.00 s
speedup  1.03
cpu  time for grad    0.01 s
wall time for grad    0.01 s
 E :    -45.37252183  G :  0.002014    pred/act E change: -0.127D-04 -0.192D-04
Maxdispl :   0.0195   ||displ|| :   0.0327   Lambda : -0.857D-05
Largest |displ|/coords:  0.0195 (   3)  0.0147 (   2)  0.0094 (   4)
................................................................................
.............................. CYCLE   38 ......................................
................................................................................
   1    -45.6275686 -0.456276E+02  0.191E-02    9.19       0.0  T
   2    -45.6275687 -0.127210E-06  0.142E-02    9.19       1.5  T
   3    -45.6275688 -0.766573E-07  0.247E-03    9.19       8.4  T
   4    -45.6275688 -0.168365E-07  0.680E-04    9.19      30.7  T
   5    -45.6275688 -0.835321E-09  0.212E-04    9.19      98.6  T
speedup  1.05
cpu  time for SCC    0.00 s
wall time for SCC    0.00 s
speedup  0.99
cpu  time for grad    0.01 s
wall time for grad    0.01 s
 E :    -45.37252500  G :  0.001368    pred/act E change: -0.181D-04 -0.317D-05
Maxdispl :   0.0375   ||displ|| :   0.0418   Lambda : -0.695D-05
Largest |displ|/coords:  0.0375 (   1)  0.0076 (   5)  0.0073 (  13)
................................................................................
.............................. CYCLE   39 ......................................
................................................................................
   1    -45.6272519 -0.456273E+02  0.275E-02    9.18       0.0  T
   2    -45.6272520 -0.101573E-06  0.207E-02    9.18       1.0  T
   3    -45.6272521 -0.908083E-07  0.243E-03    9.18       8.6  T
   4    -45.6272521 -0.134699E-07  0.695E-04    9.18      30.0  T
   5    -45.6272521 -0.575241E-09  0.255E-04    9.18      81.8  T
speedup  1.05
cpu  time for SCC    0.00 s
wall time for SCC    0.00 s
speedup  1.01
cpu  time for grad    0.01 s
wall time for grad    0.01 s
 E :    -45.37252944  G :  0.001021    pred/act E change: -0.429D-05 -0.444D-05
Maxdispl :   0.0238   ||displ|| :   0.0313   Lambda : -0.488D-05
Largest |displ|/coords:  0.0238 (   1)  0.0121 (   2)  0.0075 (  10)
................................................................................
.............................. CYCLE   40 ......................................
................................................................................
   1    -45.6272781 -0.456273E+02  0.187E-02    9.18       0.0  T
   2    -45.6272782 -0.745920E-07  0.140E-02    9.18       1.5  T
   3    -45.6272782 -0.434962E-07  0.185E-03    9.18      11.3  T
   4    -45.6272783 -0.133906E-07  0.608E-04    9.18      34.3  T
   5    -45.6272783 -0.349090E-09  0.174E-04    9.18     119.7  T
speedup  1.05
cpu  time for SCC    0.00 s
wall time for SCC    0.00 s
speedup  1.00
cpu  time for grad    0.01 s
wall time for grad    0.01 s
 E :    -45.37253281  G :  0.000926    pred/act E change: -0.348D-05 -0.337D-05
Maxdispl :   0.0333   ||displ|| :   0.0466   Lambda : -0.445D-05
Largest |displ|/coords:  0.0333 (   1)  0.0239 (   2)  0.0104 (   4)
................................................................................
.............................. CYCLE   41 ......................................
................................................................................
   1    -45.6273049 -0.456273E+02  0.254E-02    9.18       0.0  T
   2    -45.6273050 -0.115769E-06  0.190E-02    9.18       1.1  T
   3    -45.6273050 -0.662382E-07  0.236E-03    9.18       8.8  T
   4    -45.6273051 -0.208678E-07  0.708E-04    9.18      29.4  T
   5    -45.6273051 -0.517787E-09  0.221E-04    9.18      94.3  T
speedup  1.05
cpu  time for SCC    0.00 s
wall time for SCC    0.00 s
speedup  1.00
cpu  time for grad    0.01 s
wall time for grad    0.01 s
 E :    -45.37253591  G :  0.001120    pred/act E change: -0.244D-05 -0.311D-05
Maxdispl :   0.0317   ||displ|| :   0.0547   Lambda : -0.417D-05
Largest |displ|/coords:  0.0317 (   1)  0.0255 (   2)  0.0238 (   4)
................................................................................
.............................. CYCLE   42 ......................................
................................................................................
   1    -45.6274549 -0.456275E+02  0.265E-02    9.18       0.0  T
   2    -45.6274551 -0.116752E-06  0.199E-02    9.18       1.1  T
   3    -45.6274551 -0.912362E-07  0.234E-03    9.18       8.9  T
   4    -45.6274552 -0.162644E-07  0.816E-04    9.18      25.6  T
   5    -45.6274552 -0.663732E-09  0.215E-04    9.18      96.9  T
speedup  1.05
cpu  time for SCC    0.00 s
wall time for SCC    0.00 s
speedup  0.92
cpu  time for grad    0.01 s
wall time for grad    0.01 s
 E :    -45.37253883  G :  0.001123    pred/act E change: -0.223D-05 -0.292D-05
Maxdispl :   0.0439   ||displ|| :   0.0638   Lambda : -0.378D-05
Largest |displ|/coords:  0.0439 (   1)  0.0306 (   4)  0.0262 (   2)
................................................................................
.............................. CYCLE   43 ......................................
................................................................................
   1    -45.6274604 -0.456275E+02  0.321E-02    9.19       0.0  T
   2    -45.6274605 -0.118147E-06  0.242E-02    9.19       1.0  T
   3    -45.6274606 -0.121930E-06  0.206E-03    9.19      10.1  T
   4    -45.6274607 -0.112950E-07  0.923E-04    9.19      22.6  T
   5    -45.6274607 -0.666866E-09  0.226E-04    9.19      92.3  T
speedup  1.05
cpu  time for SCC    0.00 s
wall time for SCC    0.00 s
speedup  1.01
cpu  time for grad    0.01 s
wall time for grad    0.01 s
 E :    -45.37254137  G :  0.000890    pred/act E change: -0.209D-05 -0.253D-05
Maxdispl :   0.0288   ||displ|| :   0.0421   Lambda : -0.241D-05
Largest |displ|/coords:  0.0288 (   4)  0.0221 (   1)  0.0126 (   2)
................................................................................
.............................. CYCLE   44 ......................................
................................................................................
   1    -45.6275462 -0.456275E+02  0.207E-02    9.19       0.0  T
   2    -45.6275463 -0.751760E-07  0.157E-02    9.19       1.3  T
   3    -45.6275463 -0.635109E-07  0.161E-03    9.19      13.0  T
   4    -45.6275464 -0.999398E-08  0.825E-04    9.19      25.3  T
   5    -45.6275464 -0.589040E-09  0.172E-04    9.19     121.3  T
speedup  1.05
cpu  time for SCC    0.00 s
wall time for SCC    0.00 s
speedup  1.01
cpu  time for grad    0.01 s
wall time for grad    0.01 s
 E :    -45.37254297  G :  0.000716    pred/act E change: -0.190D-05 -0.160D-05
Maxdispl :   0.0213   ||displ|| :   0.0281   Lambda : -0.147D-05
Largest |displ|/coords:  0.0213 (   4)  0.0143 (   1)  0.0055 (   2)
................................................................................
.............................. CYCLE   45 ......................................
................................................................................
   1    -45.6275305 -0.456275E+02  0.137E-02    9.19       0.0  T
   2    -45.6275305 -0.436855E-07  0.103E-02    9.19       2.0  T
   3    -45.6275306 -0.297197E-07  0.143E-03    9.19      14.5  T
   4    -45.6275306 -0.659139E-08  0.558E-04    9.19      37.4  T
   5    -45.6275306 -0.224475E-09  0.106E-04    9.19     196.1  T
speedup  1.03
cpu  time for SCC    0.00 s
wall time for SCC    0.00 s
speedup  1.00
cpu  time for grad    0.01 s
wall time for grad    0.01 s
 E :    -45.37254397  G :  0.000665    pred/act E change: -0.120D-05 -0.101D-05
Maxdispl :   0.0188   ||displ|| :   0.0237   Lambda : -0.113D-05
Largest |displ|/coords:  0.0188 (   4)  0.0097 (   1)  0.0055 (  11)
................................................................................
.............................. CYCLE   46 ......................................
................................................................................
   1    -45.6274919 -0.456275E+02  0.129E-02    9.20       0.0  T
   2    -45.6274919 -0.327657E-07  0.962E-03    9.19       2.2  T
   3    -45.6274919 -0.266119E-07  0.147E-03    9.19      14.2  T
   4    -45.6274919 -0.358165E-08  0.490E-04    9.19      42.5  T
   5    -45.6274919 -0.209191E-09  0.914E-05    9.19     228.3  T
speedup  1.00
cpu  time for SCC    0.00 s
wall time for SCC    0.00 s
speedup  0.99
cpu  time for grad    0.01 s
wall time for grad    0.01 s
 E :    -45.37254474  G :  0.000643    pred/act E change: -0.736D-06 -0.763D-06
Maxdispl :   0.0133   ||displ|| :   0.0169   Lambda : -0.802D-06
Largest |displ|/coords:  0.0133 (   4)  0.0062 (   7)  0.0042 (  11)
................................................................................
.............................. CYCLE   47 ......................................
................................................................................
   1    -45.6274783 -0.456275E+02  0.932E-03    9.19       0.0  T
   2    -45.6274783 -0.212795E-07  0.685E-03    9.19       3.0  T
   3    -45.6274783 -0.149959E-07  0.128E-03    9.19      16.4  T
   4    -45.6274783 -0.221975E-08  0.441E-04    9.19      47.3  T
   5    -45.6274783 -0.179853E-09  0.705E-05    9.19     296.0  T
speedup  0.81
cpu  time for SCC    0.00 s
wall time for SCC    0.00 s
speedup  0.93
cpu  time for grad    0.01 s
wall time for grad    0.01 s
 E :    -45.37254525  G :  0.000520    pred/act E change: -0.566D-06 -0.515D-06
Maxdispl :   0.0088   ||displ|| :   0.0133   Lambda : -0.449D-06
Largest |displ|/coords:  0.0088 (   4)  0.0047 (   1)  0.0043 (   5)
................................................................................
.............................. CYCLE   48 ......................................
................................................................................
   1    -45.6274297 -0.456274E+02  0.799E-03    9.19       0.0  T
   2    -45.6274297 -0.192320E-07  0.595E-03    9.19       3.5  T
   3    -45.6274297 -0.915569E-08  0.111E-03    9.19      18.8  T
   4    -45.6274297 -0.309498E-08  0.335E-04    9.19      62.2  T
   5    -45.6274297 -0.841709E-10  0.635E-05    9.19     328.5  T
speedup  0.79
cpu  time for SCC    0.00 s
wall time for SCC    0.00 s
speedup  0.92
cpu  time for grad    0.01 s
wall time for grad    0.01 s
 E :    -45.37254554  G :  0.000321    pred/act E change: -0.401D-06 -0.291D-06
Maxdispl :   0.0052   ||displ|| :   0.0096   Lambda : -0.298D-06
Largest |displ|/coords:  0.0052 (   4)  0.0047 (   5)  0.0036 (   7)
................................................................................
.............................. CYCLE   49 ......................................
................................................................................
   1    -45.6274561 -0.456275E+02  0.546E-03    9.19       0.0  T
   2    -45.6274561 -0.114676E-07  0.407E-03    9.19       5.1  T
   3    -45.6274561 -0.443234E-08  0.800E-04    9.19      26.1  T
   4    -45.6274561 -0.194677E-08  0.228E-04    9.19      91.3  T
speedup  1.29
cpu  time for SCC    0.00 s
wall time for SCC    0.00 s
speedup  1.08
cpu  time for grad    0.01 s
wall time for grad    0.01 s
 E :    -45.37254575  G :  0.000285    pred/act E change: -0.224D-06 -0.205D-06
Maxdispl :   0.0057   ||displ|| :   0.0106   Lambda : -0.260D-06
Largest |displ|/coords:  0.0057 (   5)  0.0054 (   4)  0.0046 (   3)
................................................................................
.............................. CYCLE   50 ......................................
................................................................................
   1    -45.6274685 -0.456275E+02  0.547E-03    9.19       0.0  T
   2    -45.6274685 -0.920387E-08  0.410E-03    9.19       5.1  T
   3    -45.6274685 -0.427589E-08  0.667E-04    9.19      31.2  T
   4    -45.6274685 -0.160352E-08  0.195E-04    9.19     106.8  T
speedup  0.97
cpu  time for SCC    0.00 s
wall time for SCC    0.00 s
speedup  0.98
cpu  time for grad    0.01 s
wall time for grad    0.01 s
 E :    -45.37254593  G :  0.000358    pred/act E change: -0.146D-06 -0.183D-06
Maxdispl :   0.0082   ||displ|| :   0.0146   Lambda : -0.295D-06
Largest |displ|/coords:  0.0082 (   5)  0.0069 (   4)  0.0069 (   3)
................................................................................
.............................. CYCLE   51 ......................................
................................................................................
   1    -45.6274978 -0.456275E+02  0.762E-03    9.19       0.0  T
   2    -45.6274978 -0.813320E-08  0.572E-03    9.19       3.6  T
   3    -45.6274978 -0.711615E-08  0.548E-04    9.19      38.1  T
   4    -45.6274978 -0.965329E-09  0.238E-04    9.19      87.5  T
speedup  0.97
cpu  time for SCC    0.00 s
wall time for SCC    0.00 s
speedup  0.98
cpu  time for grad    0.01 s
wall time for grad    0.01 s
 E :    -45.37254613  G :  0.000406    pred/act E change: -0.130D-06 -0.198D-06
Maxdispl :   0.0075   ||displ|| :   0.0142   Lambda : -0.234D-06
Largest |displ|/coords:  0.0075 (   5)  0.0071 (   3)  0.0070 (   4)
................................................................................
.............................. CYCLE   52 ......................................
................................................................................
   1    -45.6275063 -0.456275E+02  0.706E-03    9.20       0.0  T
   2    -45.6275063 -0.664787E-08  0.529E-03    9.20       3.9  T
   3    -45.6275063 -0.637522E-08  0.483E-04    9.20      43.1  T
   4    -45.6275063 -0.659270E-09  0.194E-04    9.20     107.7  T
speedup  0.97
cpu  time for SCC    0.00 s
wall time for SCC    0.00 s
speedup  0.98
cpu  time for grad    0.01 s
wall time for grad    0.01 s
 E :    -45.37254631  G :  0.000352    pred/act E change: -0.147D-06 -0.177D-06
Maxdispl :   0.0097   ||displ|| :   0.0180   Lambda : -0.250D-06
Largest |displ|/coords:  0.0097 (   3)  0.0090 (   5)  0.0087 (   4)

generating ANC from model Hessian ...
 Shifting diagonal of input Hessian by   4.664644137936378E-003
 Lowest  eigenvalues of input Hessian
   -0.000000   -0.000000   -0.000000   -0.000000    0.000000    0.000000
    0.005000    0.005347    0.005639    0.006351    0.007181    0.007620
    0.007868    0.008712    0.009625    0.010091    0.012102    0.012982
 Highest eigenvalues
    1.393834    1.405250    1.437828    2.639928    3.385412    3.658611
 
cpu  time for ANC gen    0.01 s
wall time for ANC gen    0.01 s
................................................................................
.............................. CYCLE   53 ......................................
................................................................................
   1    -45.6274899 -0.456275E+02  0.874E-03    9.20       0.0  T
   2    -45.6274899 -0.109142E-07  0.655E-03    9.20       3.2  T
   3    -45.6274900 -0.989883E-08  0.602E-04    9.20      34.6  T
   4    -45.6274900 -0.117871E-08  0.229E-04    9.20      91.0  T
speedup  1.00
cpu  time for SCC    0.00 s
wall time for SCC    0.00 s
speedup  1.07
cpu  time for grad    0.01 s
wall time for grad    0.01 s
 E :    -45.37254648  G :  0.000252    pred/act E change:  0.000D+00 -0.174D-06
Maxdispl :   0.0011   ||displ|| :   0.0019   Lambda : -0.938D-07
Largest |displ|/coords:  0.0011 (   3)  0.0006 (  12)  0.0006 (   9)
................................................................................
.............................. CYCLE   54 ......................................
................................................................................
   1    -45.6274799 -0.456275E+02  0.194E-03    9.20       0.0  T
   2    -45.6274799 -0.681148E-09  0.147E-03    9.20      14.1  T
   3    -45.6274799 -0.626436E-09  0.152E-04    9.20     136.8  T
   4    -45.6274799 -0.794032E-10  0.685E-05    9.20     304.3  T
speedup  1.00
cpu  time for SCC    0.00 s
wall time for SCC    0.00 s
speedup  0.99
cpu  time for grad    0.01 s
wall time for grad    0.01 s
 E :    -45.37254655  G :  0.000158    pred/act E change:  0.000D+00 -0.735D-07
Maxdispl :   0.0027   ||displ|| :   0.0040   Lambda : -0.108D-06
Largest |displ|/coords:  0.0027 (   3)  0.0011 (  19)  0.0011 (   9)

   *** GEOMETRY OPTIMIZATION CONVERGED AFTER 54 ITERATIONS ***

------------------------------------------------------------------------
 total energy gain (kcal):     -0.0000
------------------------------------------------------------------------
================
 final structure:
================
$coord
       -0.34727587189800       -1.59142060930644        0.95266352662838      S 
       -0.56283916855880       -1.80390333777948       -1.75946251112005      O 
        1.34355752161233       -3.88100098256492        1.81527866309818      O 
        1.09662889497470        0.68660826463096        1.65772129516416      O 
       -2.72665965628624       -1.73676384939406        2.30383381239447      O 
       -1.31927737039574        4.29953148892960       -1.21766902328063      O 
       -3.01339440035445        3.56591530023855       -1.29038030130773      H 
       -0.48775972814038        3.37409014745971        0.12950233209765      H 
        0.98668575527303        1.83728310606471       -4.84859323335203      O 
        0.21576799723258        0.25740195001868       -4.27646965950963      H 
        0.05958129740317        3.12791852457533       -3.84372216614405      H 
       -5.22766086304224        0.98810411189920       -1.21156685705645      O 
       -4.86057195684863       -0.07907349101175       -2.63305552065920      H 
       -4.64148999494446        0.04106189096205        0.25110123216881      H 
       -0.60726982268022       -3.56648524545247        6.39113734879009      O 
       -1.56561901678027       -4.96808365889455        7.03048635663477      H 
        1.04810032992684       -3.99938384846065        3.64071940317648      H 
       -1.74263765195378       -2.62746567944388        5.27243622542656      H 
        4.56239473968316        1.21944113491025       -1.67457836493695      N 
        3.24581597697067        1.58032642456612       -3.27549780230462      H 
        5.54186489649078       -0.40692766903253       -1.94228541189023      H 
        5.74520877983691        2.69647697311083       -1.36325385972518      H 
        3.25684931248493        0.98634909177043       -0.10834548429593      H 
$end
 
 Bond Distances (Angstroems)
 ---------------------------
S1-O2=1.4441         S1-O3=1.5738         S1-O4=1.4752         S1-O5=1.4500         O2-S1=1.4441         O3-S1=1.5738         
O3-H17=0.9806        O4-S1=1.4752         O5-S1=1.4500         O6-H7=0.9777         O6-H8=0.9704         H7-O6=0.9777         
H8-O6=0.9704         O9-H10=0.9783        O9-H11=0.9949        H10-O9=0.9783        H11-O9=0.9949        O12-H13=0.9605       
O12-H14=0.9729       H13-O12=0.9605       H14-O12=0.9729       O15-H16=0.9601       O15-H18=0.9790       H16-O15=0.9601       
H17-O3=0.9806        H18-O15=0.9790       N19-H20=1.1134       N19-H21=1.0146       N19-H22=1.0148       N19-H23=1.0860       
H20-N19=1.1134       H21-N19=1.0146       H22-N19=1.0148       H23-N19=1.0860       
 N  H  Rav=1.0572 sigma=0.0436  Rmin=1.0146  Rmax=1.1134     4
 O  H  Rav=0.9749 sigma=0.0101  Rmin=0.9601  Rmax=0.9949     9
 S  O  Rav=1.4858 sigma=0.0522  Rmin=1.4441  Rmax=1.5738     4
 
 selected bond angles (degree)
 --------------------
O3-S1-O2=105.86                O4-S1-O2=110.85                O4-S1-O3=105.15                O5-S1-O2=114.67                
O5-S1-O3=108.05                O5-S1-O4=111.62                H17-O3-S1=104.14               H8-O6-H7=104.14                
H11-O9-H10=102.45              
 
 selected dihedral angles (degree)
 ---------------------------------
H17-O3-S1-O2=196.42           H17-O3-S1-O4= 79.03           H17-O3-S1-O5=319.71           
 
 CMA Distance (Angstroems)
 ---------------------------
R(CMA):  1.5262

========================================================================
 FINAL SINGLEPOINT CALCULATION ON OPTIMIZED GEOMETRY
========================================================================

 Ncao       : 59
 Nao        : 58
 Nshell     : 34
 Nel        : 72
 T(el)      :   300.0
 intcut     :    25.0
 scfconv/Eh :  0.100E-05
   qconv/e  :  0.100E-03
 intneglect :  0.100E-07
 broydamp   :      0.250
 iter      E             dE          RMSdq      gap      omega  full diag
   1    -45.6274799 -0.456275E+02  0.253E-05    9.20       0.0  T
   2    -45.6274799 -0.355271E-12  0.161E-05    9.20    1294.0  T
   3    -45.6274799 -0.135003E-12  0.252E-06    9.20    8260.2  T
speedup  0.87
cpu  time for SCC    0.00 s
wall time for SCC    0.00 s

   *** convergence criteria satisfied after 3 iterations ***

          eigenvalues
 #    :          24         25         26         27         28         29         30         31
 occ. :        2.000      2.000      2.000      2.000      2.000      2.000      2.000      2.000
 eps  :       -13.840    -13.574    -13.259    -12.621    -12.426    -12.395    -12.346    -12.241
 #    :          32         33         34         35         36         37         38         39
 occ. :        2.000      2.000      2.000      2.000      2.000      0.000      0.000      0.000
 eps  :       -12.113    -12.090    -11.898    -11.726    -11.611     -2.416     -1.209     -0.262
 #    :          40         41         42         43         44         45         46         47
 occ. :        0.000      0.000      0.000      0.000      0.000      0.000      0.000      0.000
 eps  :         0.909      1.195      1.770      1.986      3.310      4.012      4.238      5.077


   #   Z            q   n(s)   n(p)   n(d)      C6AA      α(0)
   1  16 S      1.697  1.586  1.772  0.944    88.834    15.863
   2   8 O     -0.734  1.757  4.977  0.000    29.646     7.300
   3   8 O     -0.627  1.760  4.867  0.000    25.811     6.858
   4   8 O     -0.756  1.777  4.979  0.000    30.264     7.377
   5   8 O     -0.747  1.776  4.971  0.000    30.019     7.346
   6   8 O     -0.626  1.752  4.874  0.000    25.818     6.858
   7   1 H      0.320  0.680  0.000  0.000     0.663     1.279
   8   1 H      0.301  0.699  0.000  0.000     0.717     1.330
   9   8 O     -0.601  1.759  4.842  0.000    25.188     6.775
  10   1 H      0.330  0.670  0.000  0.000     0.638     1.255
  11   1 H      0.341  0.659  0.000  0.000     0.609     1.227
  12   8 O     -0.604  1.740  4.864  0.000    25.280     6.786
  13   1 H      0.293  0.707  0.000  0.000     0.742     1.353
  14   1 H      0.310  0.690  0.000  0.000     0.692     1.307
  15   8 O     -0.607  1.747  4.860  0.000    25.354     6.796
  16   1 H      0.295  0.705  0.000  0.000     0.737     1.348
  17   1 H      0.371  0.629  0.000  0.000     0.535     1.146
  18   1 H      0.322  0.678  0.000  0.000     0.657     1.274
  19   7 N     -0.348  1.281  4.067  0.000    28.948     7.991
  20   1 H      0.311  0.689  0.000  0.000     0.678     1.289
  21   1 H      0.228  0.772  0.000  0.000     0.976     1.547
  22   1 H      0.231  0.769  0.000  0.000     0.960     1.535
  23   1 H      0.298  0.702  0.000  0.000     0.718     1.326

 Mol. C6AA /au·bohr⁶  :       4506.526553
 Mol. C8AA /au·bohr⁸  :      99183.250546
 Mol. α(0) /au        :         97.165077

 
 Wiberg/Mayer (AO) data. WBOs > 0.1 written file <wbo>
 largest (>0.05) Wiberg bond orders for each atom
           total WBO             WBO to atom ...
     1  S   4.831    O    2 1.364    O    5 1.302    O    4 1.205    O    3 0.924
     2  O   1.719    S    1 1.364    O    4 0.110    O    5 0.107    O    3 0.067
     3  O   1.953    S    1 0.924    H   17 0.773    O    5 0.080    O    4 0.075    O    2 0.067
     4  O   1.750    S    1 1.205    H   23 0.153    O    2 0.110    O    5 0.097    O    3 0.075    N   19 0.060
     5  O   1.730    S    1 1.302    O    2 0.107    O    4 0.097    O    3 0.080    H   18 0.052
     6  O   1.880    H    8 0.872    H    7 0.847    H   11 0.079
     7  H   0.897    O    6 0.847
     8  H   0.909    O    6 0.872
     9  O   2.003    H   10 0.846    H   11 0.802    H   20 0.204    N   19 0.087
    10  H   0.891    O    9 0.846
    11  H   0.883    O    9 0.802    O    6 0.079
    12  O   1.866    H   13 0.909    H   14 0.857
    13  H   0.914    O   12 0.909
    14  H   0.904    O   12 0.857
    15  O   1.880    H   16 0.910    H   18 0.840    H   17 0.072
    16  H   0.913    O   15 0.910
    17  H   0.862    O    3 0.773    O   15 0.072
    18  H   0.896    O   15 0.840    O    5 0.052
    19  N   3.494    H   21 0.945    H   22 0.943    H   23 0.751    H   20 0.693    O    9 0.087    O    4 0.060
    20  H   0.903    N   19 0.693    O    9 0.204
    21  H   0.948    N   19 0.945
    22  H   0.947    N   19 0.943
    23  H   0.911    N   19 0.751    O    4 0.153
 MOs/occ written to file <molden.input>
 
molecular dipole:
                 x           y           z       tot (Debye)
 q only:        2.410       0.004      -0.569
   full:        2.192      -0.731      -0.005       5.872
molecular quadrupole (traceless):
                xx          xy          yy          xz          yz          zz
 q only:       10.133       8.574      -4.827      -7.008      -4.029      -5.306
  q+dip:       11.442      11.159      -4.587      -7.886      -3.094      -6.855
   full:       11.232      11.008      -4.431      -7.745      -3.623      -6.801

SCC energy    :     -45.6274799
rep           :       0.2548126
ES            :       0.2351919
AES           :      -0.0663844
AXC           :      -0.0082022
disp          :      -0.0174111
XB            :       0.0000000
fix           :       0.0000000
total E       :     -45.3725466
atomizationE  :       4.4556090     2795.94
(atE without considering molecular charge,
 total energy contains solvation terms)
H-L gap (eV)  :          9.1955
optimized geometry written to: xtbopt.xyz


------------------------------------------------------------------------
 * finished run on 2019/09/16 at 11:47:49.176     
------------------------------------------------------------------------
 total:
 * wall-time:     0 d,  0 h,  0 min,  1.196 sec
 *  cpu-time:     0 d,  0 h,  0 min,  1.176 sec
 * ratio c/w:     0.983 speedup
 SCF:
 * wall-time:     0 d,  0 h,  0 min,  0.131 sec
 *  cpu-time:     0 d,  0 h,  0 min,  0.127 sec
 * ratio c/w:     0.972 speedup
 ANC optimizer:
 * wall-time:     0 d,  0 h,  0 min,  1.039 sec
 *  cpu-time:     0 d,  0 h,  0 min,  1.026 sec
 * ratio c/w:     0.988 speedup

