      -----------------------------------------------------------      
     |                   =====================                   |     
     |                           x T B                           |     
     |                   =====================                   |     
     |                         S. Grimme                         |     
     |          Mulliken Center for Theoretical Chemistry        |     
     |                    University of Bonn                     |     
     |                 Version 6.0.1 (SAW181210)                 |     
      -----------------------------------------------------------      

   This program is distributed in the hope that it will be useful,
   but WITHOUT ANY WARRANTY; without even the implied warranty of
   MERCHANTABILITY or FITNESS FOR A PARTICULAR PURPOSE.
   
   FOR NON-COMMERCIAL, ACADEMIA USE ONLY.
   
   Cite this work as:
   S. Grimme, C. Bannwarth, P. Shushkov, J. Comput. Theory Chem., 2017,
   13, 1989-2009.
   C. Bannwarth, S. Ehlert and S. Grimme., ChemRxiv, 2018, preprint.
   http://doi.org/10.26434/chemrxiv.7246238.v1
   
   for sTDA-xTB:
   S. Grimme and C. Bannwarth, J. Chem. Phys., 2016, 145, 054103.
   
   in the mass-spec context:
   V. Asgeirsson, C. Bauer and S. Grimme, Chem. Sci., 2017, 8, 4879.
   
   if GBSA is used:
   P. Shushkov, F. März and S. Grimme, unpublished.
   
   for ANC optimizer:
   S. Grimme, unpublished.
   Rational Function algorithm used in ANCopt:
   F. Eckert, P. Pulay, H.-J. Werner, J. Comput. Chem., 1997, 18, 1473.
   
   with help from (in alphabetical order)
   C. Bannwarth, F. Bohle, G. Brandenburg, E. Caldeweyher, M. Checinski,
   S. Dohm, S. Ehlert, S. Ehrlich, F. März, H. Neugebauer, J. Pisarek,
   P. Pracht, P. Shushkov, and S. Spicher.
   
 * started run on 2019/09/16 at 12:07:54.573     
========================================================================
 # omp threads = 1
========================================================================
number of atoms            : 23
number of electrons        : 72
charge                     : 0
spin                       : .0
first test random number   : .6311

########################################################################
# WARNING! Please study the warnings concerning your input carefully
#  - XTBPATH is not set, using XTBHOME instead
#  - the use of '-opt' is discouraged, please use '--opt' next time
#  - the use of '-chrg' is discouraged, please use '--chrg' next time
#  - the use of '-uhf' is discouraged, please use '--uhf' next time
########################################################################

           ------------------------------------------------- 
          |                 G F N 2 - x T B                 |
          | Geometry, Frequencies, Noncovalent interactions |
          |            JCTC 2018 parametrisation            |
           ------------------------------------------------- 
      method parameters     
 k(s)        :  1.8500
 k(p)        :  2.2300
 k(d)        :  2.2300
 k(f)        :  2.0000
 kEN (H0ij)  : -2.0000
 D4 a1       :  0.5200
 D4 a2       :  5.0000
 D4 s6       :  1.0000
 D4 s8       :  2.7000
 D4 s9       :  5.0000
 alphaj      :  2.0000


            Z     q(EN)     CN     RAES       Cart. coordinates
     1  S   6.0    0.67    4.17    3.99     0.35232     1.33142     0.15110
     2  O   6.0   -0.33    1.25    1.80     0.58069    -0.36858     2.38403
     3  O   6.0   -0.30    1.20    1.80     1.96212     3.60908     0.53699
     4  O   6.0   -0.32    1.21    1.80     1.19927    -0.03589    -2.16001
     5  O   6.0   -0.31    1.19    1.80    -2.33281     2.12107    -0.15661
     6  O   6.0   -0.29    2.04    1.83    -5.82494    -1.48833    -0.32518
     7  H   1.0    0.17    1.04    1.43    -4.98486     0.09811    -0.02176
     8  H   1.0    0.16    1.01    1.43    -5.46208    -2.51240     1.13572
     9  O   6.0   -0.29    2.05    1.83     6.81323     3.45321     1.66309
    10  H   1.0    0.15    0.97    1.43     7.62966     5.02578     2.08153
    11  H   1.0    0.18    1.05    1.44     5.08832     3.89298     1.28111
    12  O   6.0   -0.28    1.99    1.82    -3.43792    -3.12982     3.88750
    13  H   1.0    0.17    1.05    1.44    -1.96196    -2.19409     3.37703
    14  H   1.0    0.15    0.97    1.43    -3.68154    -2.72333     5.64534
    15  O   6.0   -0.22    2.93    2.61     5.34908    -1.18194     1.09336
    16  H   1.0    0.14    1.05    1.44     3.85449    -1.35077     2.20131
    17  H   1.0    0.13    0.98    1.43     4.90772    -1.37225    -0.71191
    18  H   1.0    0.14    1.05    1.44     6.28669     0.40092     1.42038
    19  N   5.0   -0.14    3.94    2.70    -3.26750    -0.71503    -4.69661
    20  H   1.0    0.12    1.09    1.44    -1.45638    -0.51679    -4.01470
    21  H   1.0    0.11    1.06    1.44    -4.45878    -1.20707    -3.23949
    22  H   1.0    0.09    0.99    1.43    -3.85538     0.96831    -5.47454
    23  H   1.0    0.08    0.99    1.43    -3.29945    -2.10459    -6.05769

  Z AO/shell   Hii/eV     exponent
  1     Wed Apr 25 08:07:45 CEST 2018   EN: 2.200 GM2: 0.406  GM3: 0.0800  RAES: 1.40
     1s    -10.707211    1.230000
  7     Wed Apr 25 08:07:45 CEST 2018   EN: 3.040 GM2: 0.461  GM3:-0.0640  RAES: 1.90
     2s    -16.686243    2.339881
     2p    -12.523956    2.014332
  8     Wed Apr 25 08:07:45 CEST 2018   EN: 3.440 GM2: 0.452  GM3:-0.0517  RAES: 1.80
     2s    -20.229985    2.439742
     2p    -15.503117    2.137023
 16     Tue Apr 24 11:44:34 CEST 2018   EN: 2.580 GM2: 0.340  GM3:-0.0502  RAES: 3.10
     3s    -20.029654    1.981333
     3p    -11.377694    2.025643
     3d     -0.420282    1.702555
 no old-style atom pair restraining (fixing) potential

molecular fragmentation (1/2 indicates fragments):
11111222222222222222222
# atoms in fragment 1/2:     5    18
 fragment masses (1/2) :       96.06       91.11
CMA distance (Bohr)    :   1.939
constraining FC (au)   :  0.0500
           ------------------------------------------------- 
          |        Self-Consistent Charge Iterations        |
           ------------------------------------------------- 

 Ncao       : 59
 Nao        : 58
 Nshell     : 34
 Nel        : 72
 T(el)      :   300.0
 intcut     :    25.0
 scfconv/Eh :  0.100E-05
   qconv/e  :  0.100E-03
 intneglect :  0.100E-07
 broydamp   :      0.250
 iter      E             dE          RMSdq      gap      omega  full diag
   1    -45.4860017 -0.454860E+02  0.713E+00   10.48       0.0  T
   2    -45.5217557 -0.357540E-01  0.514E+00    9.98       1.0  T
   3    -45.5524629 -0.307072E-01  0.112E+00    7.47       1.0  T
   4    -45.5559348 -0.347182E-02  0.533E-01    7.45       1.0  T
   5    -45.5566693 -0.734541E-03  0.243E-01    7.32       1.0  T
   6    -45.5569011 -0.231840E-03  0.123E-01    7.35       1.0  T
   7    -45.5569800 -0.788883E-04  0.439E-02    7.42       1.0  T
   8    -45.5569876 -0.761813E-05  0.248E-02    7.42       1.0  T
   9    -45.5569908 -0.314589E-05  0.840E-03    7.41       2.5  T
  10    -45.5569910 -0.255147E-06  0.173E-03    7.41      12.1  T
  11    -45.5569911 -0.136593E-07  0.769E-04    7.41      27.1  T
  12    -45.5569911 -0.264499E-08  0.316E-04    7.41      66.0  T
speedup  1.02
cpu  time for SCC    0.01 s
wall time for SCC    0.01 s

   *** convergence criteria satisfied after 12 iterations ***

          eigenvalues
 #    :          24         25         26         27         28         29         30         31
 occ. :        2.000      2.000      2.000      2.000      2.000      2.000      2.000      2.000
 eps  :       -12.074    -12.059    -12.020    -11.164    -10.984    -10.776    -10.585     -9.998
 #    :          32         33         34         35         36         37         38         39
 occ. :        2.000      2.000      2.000      2.000      2.000      0.000      0.000      0.000
 eps  :        -9.907     -9.698     -9.487     -9.388     -9.228     -1.818     -1.418      0.406
 #    :          40         41         42         43         44         45         46         47
 occ. :        0.000      0.000      0.000      0.000      0.000      0.000      0.000      0.000
 eps  :         2.250      2.605      2.667      2.919      2.993      3.110      4.435      5.297


   #   Z            q   n(s)   n(p)   n(d)      C6AA      α(0)
   1  16 S      1.469  1.610  1.916  1.005    94.203    16.336
   2   8 O     -0.803  1.782  5.020  0.000    31.662     7.544
   3   8 O     -0.785  1.784  5.001  0.000    31.136     7.481
   4   8 O     -0.818  1.778  5.041  0.000    32.140     7.601
   5   8 O     -0.777  1.777  5.000  0.000    30.909     7.454
   6   8 O     -0.645  1.739  4.906  0.000    26.276     6.918
   7   1 H      0.326  0.674  0.000  0.000     0.648     1.264
   8   1 H      0.320  0.680  0.000  0.000     0.664     1.280
   9   8 O     -0.633  1.726  4.907  0.000    25.979     6.879
  10   1 H      0.292  0.708  0.000  0.000     0.746     1.357
  11   1 H      0.343  0.657  0.000  0.000     0.604     1.221
  12   8 O     -0.614  1.742  4.872  0.000    25.531     6.820
  13   1 H      0.326  0.674  0.000  0.000     0.647     1.264
  14   1 H      0.272  0.728  0.000  0.000     0.811     1.415
  15   8 O     -0.384  1.625  4.759  0.000    20.493     6.114
  16   1 H      0.417  0.583  0.000  0.000     0.454     1.059
  17   1 H      0.405  0.595  0.000  0.000     0.475     1.083
  18   1 H      0.428  0.572  0.000  0.000     0.436     1.037
  19   7 N     -0.270  1.244  4.026  0.000    26.963     7.712
  20   1 H      0.312  0.688  0.000  0.000     0.679     1.291
  21   1 H      0.319  0.681  0.000  0.000     0.661     1.273
  22   1 H      0.259  0.741  0.000  0.000     0.850     1.444
  23   1 H      0.240  0.760  0.000  0.000     0.924     1.506

 Mol. C6AA /au·bohr⁶  :       4532.886824
 Mol. C8AA /au·bohr⁸  :     100448.265157
 Mol. α(0) /au        :         97.352631

 
 Wiberg/Mayer (AO) data. WBOs > 0.1 written file <wbo>
 largest (>0.05) Wiberg bond orders for each atom
           total WBO             WBO to atom ...
     1  S   5.022    O    5 1.296    O    3 1.278    O    4 1.209    O    2 1.207
     2  O   1.673    S    1 1.207    O    3 0.096    O    5 0.092    O    4 0.092    H   16 0.078    H   13 0.054
     3  O   1.662    S    1 1.278    O    2 0.096    O    4 0.095    O    5 0.092    H   11 0.066
     4  O   1.649    S    1 1.209    O    5 0.097    O    3 0.095    O    2 0.092    H   20 0.088
     5  O   1.663    S    1 1.296    O    4 0.097    O    2 0.092    O    3 0.092
     6  O   1.864    H    8 0.855    H    7 0.838    H   21 0.083
     7  H   0.894    O    6 0.838
     8  H   0.898    O    6 0.855
     9  O   1.844    H   10 0.898    H   11 0.811    H   18 0.076
    10  H   0.915    O    9 0.898
    11  H   0.882    O    9 0.811    O    3 0.066
    12  O   1.838    H   14 0.921    H   13 0.836
    13  H   0.894    O   12 0.836    O    2 0.054
    14  H   0.926    O   12 0.921
    15  O   2.359    H   17 0.813    H   16 0.741    H   18 0.732
    16  H   0.826    O   15 0.741    O    2 0.078
    17  H   0.836    O   15 0.813
    18  H   0.817    O   15 0.732    O    9 0.076
    19  N   3.571    H   23 0.938    H   22 0.929    H   21 0.807    H   20 0.806
    20  H   0.903    N   19 0.806    O    4 0.088
    21  H   0.898    N   19 0.807    O    6 0.083
    22  H   0.933    N   19 0.929
    23  H   0.942    N   19 0.938
 MOs/occ written to file <molden.input>
 
molecular dipole:
                 x           y           z       tot (Debye)
 q only:        1.311      -2.029      -2.483
   full:        1.375      -1.443      -2.217       7.578
molecular quadrupole (traceless):
                xx          xy          yy          xz          yz          zz
 q only:        8.270      -1.374     -20.498      19.727       4.534      12.228
  q+dip:        2.431       0.166     -18.680      17.671       5.334      16.250
   full:        2.309       0.468     -18.613      17.717       5.391      16.305

SCC energy    :     -45.5569911
rep           :       0.2624816
ES            :       0.3543460
AES           :      -0.0796036
AXC           :      -0.0097625
disp          :      -0.0159965
XB            :       0.0000000
fix           :       0.0000000
total E       :     -45.2944217
atomizationE  :       4.3774842     2746.91
(atE without considering molecular charge,
 total energy contains solvation terms)
H-L gap (eV)  :          7.4105
           ------------------------------------------------- 
          |                 ===============                 |
          |                   A N C O P T                   |
          |                 ===============                 |
          |          Approximate Normal Coordinate          |
          |           Rational Function Optimizer           |
           ------------------------------------------------- 
dumping coords to <xtbopt.coord> and <xtbopt.log>
 optlevel               2
 Maxcycle             460
 Maxmicro              25
 Econv         1.000000000000000E-007
 Gconv         2.000000000000000E-004
 Maxdispl       1.00000000000000     
 Hlow          5.000000000000000E-003
 S6             20.0000000000000     
 Nvar               63

generating ANC from model Hessian ...
 Shifting diagonal of input Hessian by   4.977383937975231E-003
 Lowest  eigenvalues of input Hessian
   -0.000000   -0.000000   -0.000000    0.000000    0.000000    0.000000
    0.005000    0.005137    0.005199    0.005781    0.006349    0.006986
    0.007036    0.007273    0.007466    0.008130    0.009178    0.009360
 Highest eigenvalues
    1.432428    1.543505    1.556196    3.075269    3.080410    3.087428
 
cpu  time for ANC gen    0.01 s
wall time for ANC gen    0.01 s
................................................................................
.............................. CYCLE    1 ......................................
................................................................................
   1    -45.5569911 -0.455570E+02  0.548E-05    7.41       0.0  T
   2    -45.5569911 -0.628830E-11  0.406E-05    7.41     513.6  T
   3    -45.5569911 -0.412115E-11  0.194E-05    7.41    1075.6  T
speedup  0.80
cpu  time for SCC    0.00 s
wall time for SCC    0.00 s
speedup  0.96
cpu  time for grad    0.01 s
wall time for grad    0.01 s
 E :    -45.29442173  G :  0.130287    pred/act E change:  0.000D+00  0.834D-08
Maxdispl :   0.2868   ||displ|| :   0.5847   Lambda : -0.322D-01
Largest |displ|/coords:  0.2868 (  23)  0.1742 (   1)  0.1714 (   6)
................................................................................
.............................. CYCLE    2 ......................................
................................................................................
   1    -45.5659270 -0.455659E+02  0.403E-01    7.96       0.0  T
   2    -45.5661812 -0.254164E-03  0.299E-01    8.06       1.0  T
   3    -45.5662918 -0.110648E-03  0.871E-02    8.28       1.0  T
   4    -45.5663179 -0.261169E-04  0.257E-02    8.28       1.0  T
   5    -45.5663190 -0.105160E-05  0.828E-03    8.27       2.5  T
   6    -45.5663191 -0.141366E-06  0.484E-03    8.27       4.3  T
   7    -45.5663192 -0.941015E-07  0.201E-03    8.27      10.4  T
speedup  0.91
cpu  time for SCC    0.00 s
wall time for SCC    0.01 s
speedup  1.00
cpu  time for grad    0.01 s
wall time for grad    0.01 s
 E :    -45.32264326  G :  0.083911    pred/act E change:  0.000D+00 -0.282D-01
Maxdispl :   0.3700   ||displ|| :   0.6380   Lambda : -0.242D-01
Largest |displ|/coords:  0.3700 (  23)  0.1998 (   1)  0.1829 (   6)
................................................................................
.............................. CYCLE    3 ......................................
................................................................................
   1    -45.5741232 -0.455741E+02  0.431E-01    8.61       0.0  T
   2    -45.5747619 -0.638658E-03  0.313E-01    8.70       1.0  T
   3    -45.5750461 -0.284202E-03  0.125E-01    8.84       1.0  T
   4    -45.5750737 -0.276179E-04  0.392E-02    8.86       1.0  T
   5    -45.5750761 -0.242003E-05  0.137E-02    8.86       1.5  T
   6    -45.5750766 -0.428574E-06  0.729E-03    8.86       2.9  T
   7    -45.5750768 -0.195701E-06  0.314E-03    8.86       6.6  T
   8    -45.5750768 -0.532930E-07  0.111E-03    8.86      18.8  T
speedup  0.97
cpu  time for SCC    0.01 s
wall time for SCC    0.01 s
speedup  0.94
cpu  time for grad    0.01 s
wall time for grad    0.01 s
 E :    -45.34190770  G :  0.061875    pred/act E change: -0.216D-01 -0.193D-01
Maxdispl :   0.2090   ||displ|| :   0.5504   Lambda : -0.111D-01
Largest |displ|/coords:  0.2090 (  23)  0.1919 (   1)  0.1804 (  16)
................................................................................
.............................. CYCLE    4 ......................................
................................................................................
   1    -45.5785857 -0.455786E+02  0.375E-01    9.05       0.0  T
   2    -45.5792127 -0.626981E-03  0.267E-01    9.10       1.0  T
   3    -45.5794778 -0.265135E-03  0.122E-01    9.16       1.0  T
   4    -45.5794964 -0.185607E-04  0.387E-02    9.17       1.0  T
   5    -45.5794987 -0.228512E-05  0.119E-02    9.18       1.7  T
   6    -45.5794989 -0.276548E-06  0.618E-03    9.17       3.4  T
   7    -45.5794991 -0.122122E-06  0.260E-03    9.17       8.0  T
   8    -45.5794991 -0.364320E-07  0.950E-04    9.17      21.9  T
speedup  0.98
cpu  time for SCC    0.01 s
wall time for SCC    0.01 s
speedup  1.02
cpu  time for grad    0.01 s
wall time for grad    0.01 s
 E :    -45.34923199  G :  0.057084    pred/act E change: -0.170D-01 -0.732D-02
Maxdispl :   0.2410   ||displ|| :   0.4463   Lambda : -0.554D-02
Largest |displ|/coords:  0.2410 (  11)  0.1467 (   7)  0.1442 (   5)
................................................................................
.............................. CYCLE    5 ......................................
................................................................................
   1    -45.5846688 -0.455847E+02  0.223E-01    9.21       0.0  T
   2    -45.5847393 -0.704741E-04  0.163E-01    9.24       1.0  T
   3    -45.5847626 -0.233176E-04  0.548E-02    9.28       1.0  T
   4    -45.5847688 -0.621763E-05  0.988E-03    9.28       2.1  T
   5    -45.5847691 -0.235453E-06  0.356E-03    9.28       5.9  T
   6    -45.5847691 -0.252161E-07  0.170E-03    9.28      12.2  T
speedup  1.09
cpu  time for SCC    0.01 s
wall time for SCC    0.00 s
speedup  1.07
cpu  time for grad    0.01 s
wall time for grad    0.01 s
 E :    -45.35335187  G :  0.046834    pred/act E change: -0.725D-02 -0.412D-02
Maxdispl :   0.2645   ||displ|| :   0.5820   Lambda : -0.705D-02
Largest |displ|/coords:  0.2645 (   5)  0.2151 (  11)  0.2065 (   4)
................................................................................
.............................. CYCLE    6 ......................................
................................................................................
   1    -45.5986478 -0.455986E+02  0.323E-01    9.42       0.0  T
   2    -45.5991414 -0.493611E-03  0.229E-01    9.45       1.0  T
   3    -45.5993630 -0.221590E-03  0.109E-01    9.49       1.0  T
   4    -45.5993771 -0.141312E-04  0.293E-02    9.50       1.0  T
   5    -45.5993791 -0.197801E-05  0.961E-03    9.50       2.2  T
   6    -45.5993792 -0.136223E-06  0.524E-03    9.50       4.0  T
   7    -45.5993793 -0.339544E-07  0.134E-03    9.50      15.6  T
speedup  1.13
cpu  time for SCC    0.01 s
wall time for SCC    0.01 s
speedup  1.01
cpu  time for grad    0.01 s
wall time for grad    0.01 s
 E :    -45.35878381  G :  0.038501    pred/act E change: -0.332D-02 -0.543D-02
Maxdispl :   0.4030   ||displ|| :   0.6885   Lambda : -0.915D-02
Largest |displ|/coords:  0.4030 (   7)  0.2186 (  11)  0.1841 (   4)
................................................................................
.............................. CYCLE    7 ......................................
................................................................................
   1    -45.6061461 -0.456061E+02  0.792E-01    9.64       0.0  T
   2    -45.6069832 -0.837061E-03  0.587E-01    9.67       1.0  T
   3    -45.6073994 -0.416242E-03  0.172E-01    9.72       1.0  T
   4    -45.6074823 -0.829223E-04  0.437E-02    9.72       1.0  T
   5    -45.6074860 -0.367646E-05  0.162E-02    9.72       1.3  T
   6    -45.6074862 -0.226480E-06  0.853E-03    9.72       2.4  T
   7    -45.6074863 -0.112720E-06  0.224E-03    9.72       9.3  T
   8    -45.6074864 -0.105741E-07  0.709E-04    9.72      29.4  T
speedup  1.00
cpu  time for SCC    0.01 s
wall time for SCC    0.01 s
speedup  1.03
cpu  time for grad    0.01 s
wall time for grad    0.01 s
 E :    -45.35746036  G :  0.096222    pred/act E change: -0.472D-02  0.132D-02
Maxdispl :   0.2725   ||displ|| :   0.5897   Lambda : -0.316D-01
Largest |displ|/coords:  0.2725 (   7)  0.2487 (   5)  0.2366 (  10)
................................................................................
.............................. CYCLE    8 ......................................
................................................................................
   1    -45.6106154 -0.456106E+02  0.952E-01    9.54       0.0  T
   2    -45.6115470 -0.931575E-03  0.705E-01    9.52       1.0  T
   3    -45.6120676 -0.520552E-03  0.185E-01    9.47       1.0  T
   4    -45.6121627 -0.951004E-04  0.423E-02    9.48       1.0  T
   5    -45.6121664 -0.369536E-05  0.178E-02    9.48       1.2  T
   6    -45.6121667 -0.338813E-06  0.955E-03    9.48       2.2  T
   7    -45.6121668 -0.136555E-06  0.268E-03    9.48       7.8  T
   8    -45.6121669 -0.202738E-07  0.792E-04    9.48      26.3  T
speedup  1.00
cpu  time for SCC    0.01 s
wall time for SCC    0.01 s
speedup  1.03
cpu  time for grad    0.01 s
wall time for grad    0.01 s
 E :    -45.35688120  G :  0.105422    pred/act E change: -0.674D-02  0.579D-03
Maxdispl :   0.1369   ||displ|| :   0.3813   Lambda : -0.172D-01
Largest |displ|/coords:  0.1369 (  16)  0.1147 (  28)  0.1074 (   6)
................................................................................
.............................. CYCLE    9 ......................................
................................................................................
   1    -45.6132885 -0.456133E+02  0.413E-01    9.40       0.0  T
   2    -45.6135680 -0.279442E-03  0.303E-01    9.40       1.0  T
   3    -45.6137202 -0.152233E-03  0.105E-01    9.40       1.0  T
   4    -45.6137400 -0.198060E-04  0.336E-02    9.41       1.0  T
   5    -45.6137427 -0.263671E-05  0.109E-02    9.41       1.9  T
   6    -45.6137427 -0.710511E-07  0.534E-03    9.41       3.9  T
   7    -45.6137428 -0.571734E-07  0.132E-03    9.41      15.7  T
speedup  0.94
cpu  time for SCC    0.00 s
wall time for SCC    0.01 s
speedup  0.93
cpu  time for grad    0.01 s
wall time for grad    0.01 s
 E :    -45.36335033  G :  0.041754    pred/act E change: -0.213D-01 -0.647D-02
Maxdispl :   0.1383   ||displ|| :   0.3118   Lambda : -0.530D-02
Largest |displ|/coords:  0.1383 (   3)  0.1357 (  16)  0.0912 (  17)
................................................................................
.............................. CYCLE   10 ......................................
................................................................................
   1    -45.6103052 -0.456103E+02  0.305E-01    9.42       0.0  T
   2    -45.6103502 -0.450316E-04  0.230E-01    9.43       1.0  T
   3    -45.6103749 -0.247607E-04  0.446E-02    9.45       1.0  T
   4    -45.6103812 -0.627774E-05  0.156E-02    9.44       1.3  T
   5    -45.6103816 -0.394349E-06  0.368E-03    9.44       5.7  T
   6    -45.6103816 -0.139497E-07  0.222E-03    9.44       9.4  T
speedup  1.04
cpu  time for SCC    0.00 s
wall time for SCC    0.00 s
speedup  1.05
cpu  time for grad    0.01 s
wall time for grad    0.01 s
 E :    -45.36509344  G :  0.035200    pred/act E change: -0.986D-02 -0.174D-02
Maxdispl :   0.1149   ||displ|| :   0.2771   Lambda : -0.256D-02
Largest |displ|/coords:  0.1149 (   3)  0.0877 (   1)  0.0818 (  18)
................................................................................
.............................. CYCLE   11 ......................................
................................................................................
   1    -45.6218357 -0.456218E+02  0.204E-01    9.49       0.0  T
   2    -45.6219077 -0.719761E-04  0.153E-01    9.48       1.0  T
   3    -45.6219479 -0.402537E-04  0.520E-02    9.48       1.0  T
   4    -45.6219542 -0.633838E-05  0.145E-02    9.48       1.4  T
   5    -45.6219547 -0.462521E-06  0.519E-03    9.48       4.0  T
   6    -45.6219547 -0.206635E-07  0.286E-03    9.48       7.3  T
speedup  1.09
cpu  time for SCC    0.00 s
wall time for SCC    0.00 s
speedup  0.99
cpu  time for grad    0.01 s
wall time for grad    0.01 s
 E :    -45.36622052  G :  0.030319    pred/act E change: -0.291D-02 -0.113D-02
Maxdispl :   0.1686   ||displ|| :   0.2555   Lambda : -0.143D-02
Largest |displ|/coords:  0.1686 (   4)  0.1087 (   2)  0.0680 (  16)
................................................................................
.............................. CYCLE   12 ......................................
................................................................................
   1    -45.6194609 -0.456195E+02  0.196E-01    9.38       0.0  T
   2    -45.6194693 -0.840027E-05  0.146E-01    9.38       1.0  T
   3    -45.6194747 -0.540674E-05  0.203E-02    9.37       1.0  T
   4    -45.6194760 -0.129683E-05  0.849E-03    9.38       2.5  T
   5    -45.6194761 -0.756834E-07  0.256E-03    9.38       8.2  T
   6    -45.6194761 -0.753223E-08  0.162E-03    9.38      12.9  T
speedup  1.06
cpu  time for SCC    0.00 s
wall time for SCC    0.00 s
speedup  0.98
cpu  time for grad    0.01 s
wall time for grad    0.01 s
 E :    -45.36704796  G :  0.021217    pred/act E change: -0.138D-02 -0.827D-03
Maxdispl :   0.1459   ||displ|| :   0.2621   Lambda : -0.131D-02
Largest |displ|/coords:  0.1459 (   3)  0.0943 (   8)  0.0910 (   4)
................................................................................
.............................. CYCLE   13 ......................................
................................................................................
   1    -45.6188898 -0.456189E+02  0.189E-01    9.23       0.0  T
   2    -45.6189080 -0.181821E-04  0.141E-01    9.22       1.0  T
   3    -45.6189160 -0.795370E-05  0.257E-02    9.22       1.0  T
   4    -45.6189191 -0.312659E-05  0.906E-03    9.22       2.3  T
   5    -45.6189192 -0.981691E-07  0.244E-03    9.22       8.5  T
   6    -45.6189192 -0.495184E-08  0.142E-03    9.22      14.7  T
speedup  1.09
cpu  time for SCC    0.00 s
wall time for SCC    0.00 s
speedup  0.98
cpu  time for grad    0.01 s
wall time for grad    0.01 s
 E :    -45.36771836  G :  0.016282    pred/act E change: -0.764D-03 -0.670D-03
Maxdispl :   0.2475   ||displ|| :   0.2985   Lambda : -0.915D-03
Largest |displ|/coords:  0.2475 (   3)  0.0805 (   4)  0.0552 (  11)
................................................................................
.............................. CYCLE   14 ......................................
................................................................................
   1    -45.6204069 -0.456204E+02  0.179E-01    9.13       0.0  T
   2    -45.6204230 -0.160427E-04  0.134E-01    9.13       1.0  T
   3    -45.6204310 -0.802376E-05  0.243E-02    9.12       1.0  T
   4    -45.6204336 -0.261885E-05  0.755E-03    9.12       2.8  T
   5    -45.6204337 -0.913428E-07  0.270E-03    9.12       7.7  T
   6    -45.6204337 -0.740870E-08  0.159E-03    9.12      13.2  T
speedup  1.09
cpu  time for SCC    0.00 s
wall time for SCC    0.00 s
speedup  0.98
cpu  time for grad    0.01 s
wall time for grad    0.01 s
 E :    -45.36799606  G :  0.014486    pred/act E change: -0.701D-03 -0.278D-03
Maxdispl :   0.1016   ||displ|| :   0.1633   Lambda : -0.574D-03
Largest |displ|/coords:  0.1016 (   8)  0.0590 (   2)  0.0475 (  17)
................................................................................
.............................. CYCLE   15 ......................................
................................................................................
   1    -45.6212056 -0.456212E+02  0.123E-01    9.15       0.0  T
   2    -45.6212104 -0.485006E-05  0.920E-02    9.15       1.0  T
   3    -45.6212132 -0.280387E-05  0.132E-02    9.15       1.6  T
   4    -45.6212140 -0.737750E-06  0.447E-03    9.15       4.7  T
   5    -45.6212140 -0.318873E-07  0.139E-03    9.15      15.0  T
   6    -45.6212140 -0.147358E-08  0.812E-04    9.15      25.7  T
speedup  1.09
cpu  time for SCC    0.00 s
wall time for SCC    0.00 s
speedup  0.98
cpu  time for grad    0.01 s
wall time for grad    0.01 s
 E :    -45.36826603  G :  0.008322    pred/act E change: -0.499D-03 -0.270D-03
Maxdispl :   0.0778   ||displ|| :   0.1557   Lambda : -0.342D-03
Largest |displ|/coords:  0.0778 (   3)  0.0573 (   9)  0.0549 (   6)
................................................................................
.............................. CYCLE   16 ......................................
................................................................................
   1    -45.6203430 -0.456203E+02  0.110E-01    9.19       0.0  T
   2    -45.6203467 -0.372012E-05  0.824E-02    9.19       1.0  T
   3    -45.6203491 -0.241792E-05  0.122E-02    9.19       1.7  T
   4    -45.6203497 -0.569860E-06  0.398E-03    9.19       5.2  T
   5    -45.6203497 -0.228265E-07  0.132E-03    9.19      15.9  T
   6    -45.6203497 -0.131802E-08  0.704E-04    9.19      29.6  T
speedup  1.06
cpu  time for SCC    0.00 s
wall time for SCC    0.00 s
speedup  0.97
cpu  time for grad    0.01 s
wall time for grad    0.01 s
 E :    -45.36841461  G :  0.011039    pred/act E change: -0.295D-03 -0.149D-03
Maxdispl :   0.1072   ||displ|| :   0.2050   Lambda : -0.367D-03
Largest |displ|/coords:  0.1072 (   3)  0.0874 (   4)  0.0769 (   2)
................................................................................
.............................. CYCLE   17 ......................................
................................................................................
   1    -45.6242850 -0.456243E+02  0.140E-01    9.25       0.0  T
   2    -45.6242904 -0.538288E-05  0.104E-01    9.25       1.0  T
   3    -45.6242945 -0.412759E-05  0.169E-02    9.25       1.2  T
   4    -45.6242951 -0.663350E-06  0.496E-03    9.25       4.2  T
   5    -45.6242952 -0.358135E-07  0.157E-03    9.25      13.3  T
   6    -45.6242952 -0.258107E-08  0.863E-04    9.25      24.2  T
speedup  0.89
cpu  time for SCC    0.00 s
wall time for SCC    0.00 s
speedup  0.99
cpu  time for grad    0.01 s
wall time for grad    0.01 s
 E :    -45.36855383  G :  0.011922    pred/act E change: -0.175D-03 -0.139D-03
Maxdispl :   0.1580   ||displ|| :   0.2765   Lambda : -0.451D-03
Largest |displ|/coords:  0.1580 (   3)  0.1107 (   2)  0.1098 (   6)
................................................................................
.............................. CYCLE   18 ......................................
................................................................................
   1    -45.6217353 -0.456217E+02  0.160E-01    9.22       0.0  T
   2    -45.6217420 -0.666673E-05  0.119E-01    9.22       1.0  T
   3    -45.6217471 -0.505050E-05  0.169E-02    9.22       1.2  T
   4    -45.6217478 -0.776317E-06  0.485E-03    9.22       4.3  T
   5    -45.6217479 -0.251008E-07  0.207E-03    9.22      10.1  T
   6    -45.6217479 -0.496242E-08  0.109E-03    9.22      19.2  T
speedup  0.89
cpu  time for SCC    0.00 s
wall time for SCC    0.00 s
speedup  0.99
cpu  time for grad    0.01 s
wall time for grad    0.01 s
 E :    -45.36876147  G :  0.011748    pred/act E change: -0.191D-03 -0.208D-03
Maxdispl :   0.0618   ||displ|| :   0.1595   Lambda : -0.296D-03
Largest |displ|/coords:  0.0618 (   8)  0.0616 (   3)  0.0564 (   2)
................................................................................
.............................. CYCLE   19 ......................................
................................................................................
   1    -45.6211110 -0.456211E+02  0.646E-02    9.19       0.0  T
   2    -45.6211143 -0.323727E-05  0.486E-02    9.19       1.0  T
   3    -45.6211158 -0.156811E-05  0.112E-02    9.19       1.9  T
   4    -45.6211163 -0.475892E-06  0.458E-03    9.19       4.5  T
   5    -45.6211163 -0.274548E-07  0.113E-03    9.19      18.4  T
   6    -45.6211163 -0.205630E-08  0.582E-04    9.19      35.8  T
speedup  0.87
cpu  time for SCC    0.00 s
wall time for SCC    0.00 s
speedup  0.98
cpu  time for grad    0.01 s
wall time for grad    0.01 s
 E :    -45.36888107  G :  0.008493    pred/act E change: -0.243D-03 -0.120D-03
Maxdispl :   0.1064   ||displ|| :   0.1970   Lambda : -0.242D-03
Largest |displ|/coords:  0.1064 (   3)  0.0733 (   2)  0.0675 (   8)
................................................................................
.............................. CYCLE   20 ......................................
................................................................................
   1    -45.6200156 -0.456200E+02  0.113E-01    9.18       0.0  T
   2    -45.6200192 -0.364590E-05  0.854E-02    9.18       1.0  T
   3    -45.6200213 -0.205438E-05  0.110E-02    9.18       1.9  T
   4    -45.6200219 -0.631866E-06  0.433E-03    9.18       4.8  T
   5    -45.6200220 -0.274250E-07  0.119E-03    9.18      17.5  T
   6    -45.6200220 -0.136188E-08  0.644E-04    9.18      32.4  T
speedup  0.89
cpu  time for SCC    0.00 s
wall time for SCC    0.00 s
speedup  1.00
cpu  time for grad    0.01 s
wall time for grad    0.01 s
 E :    -45.36901379  G :  0.007379    pred/act E change: -0.152D-03 -0.133D-03
Maxdispl :   0.0903   ||displ|| :   0.2024   Lambda : -0.181D-03
Largest |displ|/coords:  0.0903 (   3)  0.0852 (   8)  0.0751 (   6)
................................................................................
.............................. CYCLE   21 ......................................
................................................................................
   1    -45.6197344 -0.456197E+02  0.107E-01    9.17       0.0  T
   2    -45.6197384 -0.396578E-05  0.801E-02    9.17       1.0  T
   3    -45.6197404 -0.201385E-05  0.130E-02    9.17       1.6  T
   4    -45.6197411 -0.722363E-06  0.413E-03    9.17       5.0  T
   5    -45.6197411 -0.125459E-07  0.121E-03    9.17      17.2  T
   6    -45.6197411 -0.188631E-08  0.641E-04    9.17      32.5  T
speedup  1.06
cpu  time for SCC    0.00 s
wall time for SCC    0.00 s
speedup  1.07
cpu  time for grad    0.01 s
wall time for grad    0.01 s
 E :    -45.36912028  G :  0.006225    pred/act E change: -0.126D-03 -0.106D-03
Maxdispl :   0.1269   ||displ|| :   0.2682   Lambda : -0.218D-03
Largest |displ|/coords:  0.1269 (   2)  0.1241 (   3)  0.0902 (   6)
................................................................................
.............................. CYCLE   22 ......................................
................................................................................
   1    -45.6210613 -0.456211E+02  0.134E-01    9.15       0.0  T
   2    -45.6210664 -0.508475E-05  0.101E-01    9.15       1.0  T
   3    -45.6210701 -0.362491E-05  0.142E-02    9.15       1.5  T
   4    -45.6210708 -0.732886E-06  0.473E-03    9.15       4.4  T
   5    -45.6210708 -0.301946E-07  0.173E-03    9.15      12.1  T
   6    -45.6210708 -0.328923E-08  0.949E-04    9.15      22.0  T
speedup  1.11
cpu  time for SCC    0.00 s
wall time for SCC    0.00 s
speedup  0.99
cpu  time for grad    0.01 s
wall time for grad    0.01 s
 E :    -45.36920891  G :  0.010304    pred/act E change: -0.941D-04 -0.886D-04
Maxdispl :   0.1631   ||displ|| :   0.2646   Lambda : -0.221D-03
Largest |displ|/coords:  0.1631 (   3)  0.1005 (   8)  0.0868 (   6)
................................................................................
.............................. CYCLE   23 ......................................
................................................................................
   1    -45.6184742 -0.456185E+02  0.126E-01    9.12       0.0  T
   2    -45.6184776 -0.338761E-05  0.943E-02    9.12       1.0  T
   3    -45.6184800 -0.239263E-05  0.124E-02    9.12       1.7  T
   4    -45.6184806 -0.530210E-06  0.495E-03    9.12       4.2  T
   5    -45.6184806 -0.183424E-07  0.139E-03    9.12      15.0  T
   6    -45.6184806 -0.290606E-08  0.781E-04    9.12      26.7  T
speedup  1.11
cpu  time for SCC    0.00 s
wall time for SCC    0.00 s
speedup  1.00
cpu  time for grad    0.01 s
wall time for grad    0.01 s
 E :    -45.36931163  G :  0.009088    pred/act E change: -0.117D-03 -0.103D-03
Maxdispl :   0.0530   ||displ|| :   0.1279   Lambda : -0.283D-03
Largest |displ|/coords:  0.0530 (  15)  0.0464 (   2)  0.0396 (  10)
................................................................................
.............................. CYCLE   24 ......................................
................................................................................
   1    -45.6240626 -0.456241E+02  0.113E-01    9.15       0.0  T
   2    -45.6240674 -0.477855E-05  0.837E-02    9.16       1.0  T
   3    -45.6240709 -0.349707E-05  0.166E-02    9.16       1.3  T
   4    -45.6240714 -0.517339E-06  0.569E-03    9.16       3.7  T
   5    -45.6240714 -0.385616E-07  0.155E-03    9.16      13.4  T
   6    -45.6240714 -0.227806E-08  0.889E-04    9.16      23.5  T
speedup  0.89
cpu  time for SCC    0.00 s
wall time for SCC    0.00 s
speedup  1.00
cpu  time for grad    0.01 s
wall time for grad    0.01 s
 E :    -45.36921270  G :  0.014371    pred/act E change: -0.118D-03  0.989D-04
Maxdispl :   0.0670   ||displ|| :   0.1416   Lambda : -0.418D-03
Largest |displ|/coords:  0.0670 (   8)  0.0640 (   2)  0.0550 (   6)
................................................................................
.............................. CYCLE   25 ......................................
................................................................................
   1    -45.6207044 -0.456207E+02  0.925E-02    9.14       0.0  T
   2    -45.6207069 -0.251042E-05  0.691E-02    9.14       1.0  T
   3    -45.6207085 -0.159016E-05  0.914E-03    9.14       2.3  T
   4    -45.6207089 -0.348995E-06  0.250E-03    9.14       8.3  T
   5    -45.6207089 -0.896042E-08  0.104E-03    9.14      20.0  T
speedup  1.05
cpu  time for SCC    0.00 s
wall time for SCC    0.00 s
speedup  1.07
cpu  time for grad    0.01 s
wall time for grad    0.01 s
 E :    -45.36939930  G :  0.008774    pred/act E change: -0.144D-03 -0.187D-03
Maxdispl :   0.0745   ||displ|| :   0.1353   Lambda : -0.319D-03
Largest |displ|/coords:  0.0745 (   8)  0.0641 (  15)  0.0392 (  12)

generating ANC from model Hessian ...
 Shifting diagonal of input Hessian by   4.772003393594288E-003
 Lowest  eigenvalues of input Hessian
   -0.000000   -0.000000   -0.000000    0.000000    0.000000    0.000000
    0.005000    0.005151    0.005751    0.006212    0.006715    0.007425
    0.008202    0.008633    0.011525    0.012086    0.013755    0.014151
 Highest eigenvalues
    1.383737    1.408171    1.444405    2.553650    3.385184    3.695985
 
cpu  time for ANC gen    0.01 s
wall time for ANC gen    0.01 s
................................................................................
.............................. CYCLE   26 ......................................
................................................................................
   1    -45.6198308 -0.456198E+02  0.139E-01    9.15       0.0  T
   2    -45.6198386 -0.772743E-05  0.105E-01    9.14       1.0  T
   3    -45.6198449 -0.635125E-05  0.169E-02    9.14       1.2  T
   4    -45.6198459 -0.939386E-06  0.540E-03    9.14       3.9  T
   5    -45.6198459 -0.451541E-07  0.204E-03    9.14      10.2  T
   6    -45.6198459 -0.383883E-08  0.102E-03    9.14      20.4  T
   7    -45.6198459 -0.195909E-08  0.264E-04    9.14      79.0  T
   8    -45.6198459 -0.117304E-09  0.577E-05    9.14     361.3  T
speedup  1.00
cpu  time for SCC    0.01 s
wall time for SCC    0.01 s
speedup  1.00
cpu  time for grad    0.01 s
wall time for grad    0.01 s
 E :    -45.36920324  G :  0.019618    pred/act E change:  0.000D+00  0.196D-03
Maxdispl :   0.0593   ||displ|| :   0.1092   Lambda : -0.529D-03
Largest |displ|/coords:  0.0593 (   6)  0.0420 (  14)  0.0350 (   5)
................................................................................
.............................. CYCLE   27 ......................................
................................................................................
   1    -45.6208505 -0.456209E+02  0.115E-01    9.15       0.0  T
   2    -45.6208536 -0.310751E-05  0.874E-02    9.15       1.0  T
   3    -45.6208566 -0.293649E-05  0.102E-02    9.16       2.0  T
   4    -45.6208569 -0.350932E-06  0.379E-03    9.16       5.5  T
   5    -45.6208569 -0.198163E-07  0.129E-03    9.15      16.2  T
   6    -45.6208569 -0.134968E-08  0.654E-04    9.15      31.9  T
speedup  0.89
cpu  time for SCC    0.00 s
wall time for SCC    0.00 s
speedup  0.99
cpu  time for grad    0.01 s
wall time for grad    0.01 s
 E :    -45.36951679  G :  0.005884    pred/act E change:  0.000D+00 -0.314D-03
Maxdispl :   0.0542   ||displ|| :   0.1040   Lambda : -0.135D-03
Largest |displ|/coords:  0.0542 (   2)  0.0441 (   6)  0.0416 (   3)
................................................................................
.............................. CYCLE   28 ......................................
................................................................................
   1    -45.6214748 -0.456215E+02  0.944E-02    9.16       0.0  T
   2    -45.6214763 -0.145161E-05  0.712E-02    9.16       1.0  T
   3    -45.6214776 -0.125535E-05  0.706E-03    9.16       3.0  T
   4    -45.6214777 -0.176317E-06  0.209E-03    9.16      10.0  T
   5    -45.6214777 -0.438268E-08  0.913E-04    9.16      22.8  T
speedup  0.79
cpu  time for SCC    0.00 s
wall time for SCC    0.00 s
speedup  0.97
cpu  time for grad    0.01 s
wall time for grad    0.01 s
 E :    -45.36959556  G :  0.003893    pred/act E change: -0.267D-03 -0.788D-04
Maxdispl :   0.0456   ||displ|| :   0.0967   Lambda : -0.546D-04
Largest |displ|/coords:  0.0456 (   2)  0.0442 (   6)  0.0417 (   3)
................................................................................
.............................. CYCLE   29 ......................................
................................................................................
   1    -45.6215687 -0.456216E+02  0.796E-02    9.16       0.0  T
   2    -45.6215693 -0.608109E-06  0.600E-02    9.16       1.0  T
   3    -45.6215699 -0.589707E-06  0.449E-03    9.16       4.6  T
   4    -45.6215699 -0.592068E-07  0.122E-03    9.16      17.1  T
   5    -45.6215699 -0.873328E-09  0.656E-04    9.16      31.8  T
   6    -45.6215699 -0.640213E-09  0.204E-04    9.16     102.0  T
speedup  0.89
cpu  time for SCC    0.00 s
wall time for SCC    0.00 s
speedup  0.96
cpu  time for grad    0.01 s
wall time for grad    0.01 s
 E :    -45.36964131  G :  0.004946    pred/act E change: -0.681D-04 -0.458D-04
Maxdispl :   0.1267   ||displ|| :   0.2686   Lambda : -0.134D-03
Largest |displ|/coords:  0.1267 (   3)  0.1245 (   2)  0.1237 (   6)
................................................................................
.............................. CYCLE   30 ......................................
................................................................................
   1    -45.6210511 -0.456211E+02  0.192E-01    9.15       0.0  T
   2    -45.6210546 -0.354717E-05  0.145E-01    9.15       1.0  T
   3    -45.6210583 -0.365105E-05  0.115E-02    9.16       1.8  T
   4    -45.6210586 -0.300871E-06  0.302E-03    9.16       6.9  T
   5    -45.6210586 -0.606796E-08  0.170E-03    9.16      12.3  T
   6    -45.6210586 -0.444687E-08  0.434E-04    9.16      48.1  T
speedup  0.89
cpu  time for SCC    0.00 s
wall time for SCC    0.00 s
speedup  0.99
cpu  time for grad    0.01 s
wall time for grad    0.01 s
 E :    -45.36972097  G :  0.006213    pred/act E change: -0.275D-04 -0.797D-04
Maxdispl :   0.0829   ||displ|| :   0.1276   Lambda : -0.714D-04
Largest |displ|/coords:  0.0829 (   3)  0.0499 (   6)  0.0383 (   2)
................................................................................
.............................. CYCLE   31 ......................................
................................................................................
   1    -45.6219871 -0.456220E+02  0.603E-02    9.15       0.0  T
   2    -45.6219879 -0.768095E-06  0.452E-02    9.15       1.0  T
   3    -45.6219887 -0.779911E-06  0.574E-03    9.15       3.6  T
   4    -45.6219888 -0.679736E-07  0.149E-03    9.15      14.0  T
   5    -45.6219888 -0.205636E-08  0.710E-04    9.15      29.4  T
speedup  1.05
cpu  time for SCC    0.00 s
wall time for SCC    0.00 s
speedup  1.07
cpu  time for grad    0.01 s
wall time for grad    0.01 s
 E :    -45.36976034  G :  0.003203    pred/act E change: -0.716D-04 -0.394D-04
Maxdispl :   0.1076   ||displ|| :   0.1916   Lambda : -0.616D-04
Largest |displ|/coords:  0.1076 (   3)  0.0931 (   2)  0.0832 (   6)
................................................................................
.............................. CYCLE   32 ......................................
................................................................................
   1    -45.6218345 -0.456218E+02  0.117E-01    9.14       0.0  T
   2    -45.6218360 -0.150943E-05  0.884E-02    9.14       1.0  T
   3    -45.6218377 -0.166705E-05  0.883E-03    9.15       2.4  T
   4    -45.6218378 -0.117887E-06  0.236E-03    9.15       8.8  T
   5    -45.6218378 -0.580660E-08  0.105E-03    9.15      19.8  T
   6    -45.6218378 -0.104923E-08  0.464E-04    9.15      45.0  T
   7    -45.6218378 -0.417380E-09  0.111E-04    9.15     188.2  T
speedup  0.94
cpu  time for SCC    0.00 s
wall time for SCC    0.01 s
speedup  0.98
cpu  time for grad    0.01 s
wall time for grad    0.01 s
 E :    -45.36980534  G :  0.003505    pred/act E change: -0.363D-04 -0.450D-04
Maxdispl :   0.1469   ||displ|| :   0.2436   Lambda : -0.685D-04
Largest |displ|/coords:  0.1469 (   3)  0.1201 (   2)  0.1140 (   6)
................................................................................
.............................. CYCLE   33 ......................................
................................................................................
   1    -45.6218440 -0.456218E+02  0.120E-01    9.13       0.0  T
   2    -45.6218455 -0.147384E-05  0.900E-02    9.13       1.0  T
   3    -45.6218470 -0.155307E-05  0.101E-02    9.13       2.1  T
   4    -45.6218471 -0.127184E-06  0.290E-03    9.13       7.2  T
   5    -45.6218472 -0.992187E-08  0.103E-03    9.13      20.2  T
   6    -45.6218472 -0.109887E-08  0.569E-04    9.13      36.6  T
   7    -45.6218472 -0.350703E-09  0.130E-04    9.13     160.4  T
speedup  0.93
cpu  time for SCC    0.00 s
wall time for SCC    0.01 s
speedup  0.98
cpu  time for grad    0.01 s
wall time for grad    0.01 s
 E :    -45.36985078  G :  0.002740    pred/act E change: -0.319D-04 -0.454D-04
Maxdispl :   0.1131   ||displ|| :   0.1773   Lambda : -0.473D-04
Largest |displ|/coords:  0.1131 (   3)  0.0944 (   2)  0.0537 (   6)
................................................................................
.............................. CYCLE   34 ......................................
................................................................................
   1    -45.6226538 -0.456227E+02  0.711E-02    9.13       0.0  T
   2    -45.6226547 -0.873553E-06  0.531E-02    9.13       1.0  T
   3    -45.6226554 -0.713048E-06  0.766E-03    9.13       2.7  T
   4    -45.6226555 -0.112260E-06  0.224E-03    9.13       9.3  T
   5    -45.6226555 -0.612564E-08  0.704E-04    9.13      29.6  T
   6    -45.6226555 -0.556575E-09  0.428E-04    9.13      48.7  T
speedup  0.89
cpu  time for SCC    0.00 s
wall time for SCC    0.00 s
speedup  0.96
cpu  time for grad    0.01 s
wall time for grad    0.01 s
 E :    -45.36987863  G :  0.002004    pred/act E change: -0.363D-04 -0.278D-04
Maxdispl :   0.2448   ||displ|| :   0.4063   Lambda : -0.606D-04
Largest |displ|/coords:  0.2448 (   3)  0.2161 (   2)  0.1643 (   6)
................................................................................
.............................. CYCLE   35 ......................................
................................................................................
   1    -45.6194177 -0.456194E+02  0.190E-01    9.09       0.0  T
   2    -45.6194218 -0.407664E-05  0.142E-01    9.10       1.0  T
   3    -45.6194257 -0.396065E-05  0.155E-02    9.10       1.3  T
   4    -45.6194261 -0.404000E-06  0.481E-03    9.10       4.3  T
   5    -45.6194261 -0.237304E-07  0.172E-03    9.10      12.1  T
   6    -45.6194262 -0.324668E-08  0.909E-04    9.10      22.9  T
   7    -45.6194262 -0.950735E-09  0.173E-04    9.10     120.4  T
speedup  0.96
cpu  time for SCC    0.00 s
wall time for SCC    0.01 s
speedup  0.99
cpu  time for grad    0.01 s
wall time for grad    0.01 s
 E :    -45.36985651  G :  0.007876    pred/act E change: -0.244D-04  0.221D-04
Maxdispl :   0.1280   ||displ|| :   0.2012   Lambda : -0.122D-03
Largest |displ|/coords:  0.1280 (   3)  0.0875 (   6)  0.0848 (   2)
................................................................................
.............................. CYCLE   36 ......................................
................................................................................
   1    -45.6222873 -0.456223E+02  0.106E-01    9.13       0.0  T
   2    -45.6222889 -0.166394E-05  0.789E-02    9.13       1.0  T
   3    -45.6222902 -0.128509E-05  0.997E-03    9.13       2.1  T
   4    -45.6222904 -0.209452E-06  0.272E-03    9.13       7.7  T
   5    -45.6222904 -0.960499E-08  0.956E-04    9.13      21.8  T
speedup  1.05
cpu  time for SCC    0.00 s
wall time for SCC    0.00 s
speedup  0.96
cpu  time for grad    0.01 s
wall time for grad    0.01 s
 E :    -45.36990760  G :  0.002179    pred/act E change: -0.353D-04 -0.511D-04
Maxdispl :   0.0491   ||displ|| :   0.0683   Lambda : -0.130D-04
Largest |displ|/coords:  0.0491 (   2)  0.0355 (   3)  0.0165 (   5)
................................................................................
.............................. CYCLE   37 ......................................
................................................................................
   1    -45.6222583 -0.456223E+02  0.332E-02    9.13       0.0  T
   2    -45.6222584 -0.151206E-06  0.249E-02    9.13       1.0  T
   3    -45.6222586 -0.135166E-06  0.258E-03    9.14       8.1  T
   4    -45.6222586 -0.166821E-07  0.736E-04    9.13      28.3  T
   5    -45.6222586 -0.608509E-09  0.308E-04    9.13      67.7  T
speedup  1.03
cpu  time for SCC    0.00 s
wall time for SCC    0.00 s
speedup  1.02
cpu  time for grad    0.01 s
wall time for grad    0.01 s
 E :    -45.36991749  G :  0.001316    pred/act E change: -0.633D-04 -0.989D-05
Maxdispl :   0.1982   ||displ|| :   0.2812   Lambda : -0.418D-04
Largest |displ|/coords:  0.1982 (   2)  0.1411 (   3)  0.0811 (   6)
................................................................................
.............................. CYCLE   38 ......................................
................................................................................
   1    -45.6217219 -0.456217E+02  0.118E-01    9.14       0.0  T
   2    -45.6217235 -0.160260E-05  0.885E-02    9.14       1.0  T
   3    -45.6217253 -0.172620E-05  0.862E-03    9.14       2.4  T
   4    -45.6217254 -0.128244E-06  0.304E-03    9.14       6.9  T
   5    -45.6217254 -0.975211E-08  0.107E-03    9.14      19.5  T
   6    -45.6217254 -0.133816E-08  0.610E-04    9.14      34.2  T
   7    -45.6217254 -0.566224E-09  0.138E-04    9.14     150.6  T
speedup  0.94
cpu  time for SCC    0.00 s
wall time for SCC    0.01 s
speedup  0.98
cpu  time for grad    0.01 s
wall time for grad    0.01 s
 E :    -45.36994230  G :  0.002950    pred/act E change: -0.655D-05 -0.248D-04
Maxdispl :   0.0789   ||displ|| :   0.1020   Lambda : -0.180D-04
Largest |displ|/coords:  0.0789 (   2)  0.0395 (   3)  0.0293 (   5)
................................................................................
.............................. CYCLE   39 ......................................
................................................................................
   1    -45.6219090 -0.456219E+02  0.427E-02    9.15       0.0  T
   2    -45.6219092 -0.209840E-06  0.321E-02    9.15       1.0  T
   3    -45.6219094 -0.238308E-06  0.302E-03    9.15       6.9  T
   4    -45.6219095 -0.156524E-07  0.131E-03    9.15      15.9  T
   5    -45.6219095 -0.152941E-08  0.362E-04    9.15      57.5  T
   6    -45.6219095 -0.139451E-09  0.222E-04    9.15      94.0  T
speedup  0.87
cpu  time for SCC    0.00 s
wall time for SCC    0.00 s
speedup  1.04
cpu  time for grad    0.01 s
wall time for grad    0.01 s
 E :    -45.36995648  G :  0.002357    pred/act E change: -0.225D-04 -0.142D-04
Maxdispl :   0.1246   ||displ|| :   0.1814   Lambda : -0.352D-04
Largest |displ|/coords:  0.1246 (   2)  0.0766 (   3)  0.0599 (   7)
................................................................................
.............................. CYCLE   40 ......................................
................................................................................
   1    -45.6226353 -0.456226E+02  0.757E-02    9.14       0.0  T
   2    -45.6226362 -0.847965E-06  0.567E-02    9.14       1.0  T
   3    -45.6226370 -0.876481E-06  0.642E-03    9.14       3.2  T
   4    -45.6226371 -0.810597E-07  0.254E-03    9.14       8.2  T
   5    -45.6226371 -0.613102E-08  0.708E-04    9.14      29.5  T
   6    -45.6226371 -0.543949E-09  0.421E-04    9.14      49.6  T
speedup  1.11
cpu  time for SCC    0.01 s
wall time for SCC    0.00 s
speedup  1.05
cpu  time for grad    0.01 s
wall time for grad    0.01 s
 E :    -45.36997841  G :  0.001717    pred/act E change: -0.909D-05 -0.219D-04
Maxdispl :   0.1696   ||displ|| :   0.2482   Lambda : -0.215D-04
Largest |displ|/coords:  0.1696 (   2)  0.1245 (   3)  0.0835 (   5)
................................................................................
.............................. CYCLE   41 ......................................
................................................................................
   1    -45.6213879 -0.456214E+02  0.110E-01    9.11       0.0  T
   2    -45.6213893 -0.140058E-05  0.823E-02    9.11       1.0  T
   3    -45.6213906 -0.131516E-05  0.937E-03    9.12       2.2  T
   4    -45.6213908 -0.156054E-06  0.294E-03    9.11       7.1  T
   5    -45.6213908 -0.774978E-08  0.915E-04    9.11      22.8  T
   6    -45.6213908 -0.864915E-09  0.481E-04    9.11      43.3  T
speedup  0.87
cpu  time for SCC    0.00 s
wall time for SCC    0.00 s
speedup  0.96
cpu  time for grad    0.01 s
wall time for grad    0.01 s
 E :    -45.36998589  G :  0.003086    pred/act E change: -0.182D-04 -0.748D-05
Maxdispl :   0.0231   ||displ|| :   0.0504   Lambda : -0.241D-04
Largest |displ|/coords:  0.0231 (   2)  0.0228 (   6)  0.0157 (   3)
................................................................................
.............................. CYCLE   42 ......................................
................................................................................
   1    -45.6225591 -0.456226E+02  0.200E-02    9.11       0.0  T
   2    -45.6225594 -0.289575E-06  0.147E-02    9.11       1.4  T
   3    -45.6225596 -0.123465E-06  0.354E-03    9.11       5.9  T
   4    -45.6225596 -0.372682E-07  0.979E-04    9.11      21.3  T
   5    -45.6225596 -0.159370E-08  0.291E-04    9.11      71.6  T
speedup  1.03
cpu  time for SCC    0.00 s
wall time for SCC    0.00 s
speedup  1.02
cpu  time for grad    0.01 s
wall time for grad    0.01 s
 E :    -45.36999478  G :  0.002035    pred/act E change: -0.114D-04 -0.889D-05
Maxdispl :   0.0423   ||displ|| :   0.0664   Lambda : -0.118D-04
Largest |displ|/coords:  0.0423 (   3)  0.0310 (   2)  0.0213 (   7)
................................................................................
.............................. CYCLE   43 ......................................
................................................................................
   1    -45.6224897 -0.456225E+02  0.296E-02    9.11       0.0  T
   2    -45.6224899 -0.186009E-06  0.222E-02    9.11       1.0  T
   3    -45.6224900 -0.143761E-06  0.301E-03    9.11       6.9  T
   4    -45.6224901 -0.258777E-07  0.993E-04    9.11      21.0  T
   5    -45.6224901 -0.120522E-08  0.309E-04    9.11      67.6  T
speedup  1.05
cpu  time for SCC    0.00 s
wall time for SCC    0.00 s
speedup  1.02
cpu  time for grad    0.01 s
wall time for grad    0.01 s
 E :    -45.37000289  G :  0.001137    pred/act E change: -0.121D-04 -0.811D-05
Maxdispl :   0.0836   ||displ|| :   0.1418   Lambda : -0.121D-04
Largest |displ|/coords:  0.0836 (   3)  0.0781 (   2)  0.0359 (   5)
................................................................................
.............................. CYCLE   44 ......................................
................................................................................
   1    -45.6220335 -0.456220E+02  0.632E-02    9.10       0.0  T
   2    -45.6220341 -0.583831E-06  0.473E-02    9.10       1.0  T
   3    -45.6220345 -0.403636E-06  0.592E-03    9.10       3.5  T
   4    -45.6220346 -0.867565E-07  0.173E-03    9.10      12.0  T
   5    -45.6220346 -0.251033E-08  0.488E-04    9.10      42.7  T
   6    -45.6220346 -0.188180E-09  0.264E-04    9.10      78.9  T
speedup  1.11
cpu  time for SCC    0.00 s
wall time for SCC    0.00 s
speedup  1.04
cpu  time for grad    0.01 s
wall time for grad    0.01 s
 E :    -45.37001090  G :  0.001978    pred/act E change: -0.593D-05 -0.801D-05
Maxdispl :   0.0464   ||displ|| :   0.0833   Lambda : -0.107D-04
Largest |displ|/coords:  0.0464 (   3)  0.0357 (   4)  0.0250 (   2)
................................................................................
.............................. CYCLE   45 ......................................
................................................................................
   1    -45.6221831 -0.456222E+02  0.381E-02    9.10       0.0  T
   2    -45.6221834 -0.246109E-06  0.286E-02    9.10       1.0  T
   3    -45.6221835 -0.157432E-06  0.354E-03    9.11       5.9  T
   4    -45.6221836 -0.391618E-07  0.115E-03    9.11      18.1  T
   5    -45.6221836 -0.100312E-08  0.310E-04    9.11      67.3  T
   6    -45.6221836 -0.729869E-10  0.163E-04    9.11     128.3  T
speedup  0.87
cpu  time for SCC    0.00 s
wall time for SCC    0.00 s
speedup  0.96
cpu  time for grad    0.01 s
wall time for grad    0.01 s
 E :    -45.37001888  G :  0.001885    pred/act E change: -0.619D-05 -0.797D-05
Maxdispl :   0.0574   ||displ|| :   0.1099   Lambda : -0.114D-04
Largest |displ|/coords:  0.0574 (   3)  0.0500 (   4)  0.0334 (   2)
................................................................................
.............................. CYCLE   46 ......................................
................................................................................
   1    -45.6223676 -0.456224E+02  0.507E-02    9.10       0.0  T
   2    -45.6223680 -0.340233E-06  0.378E-02    9.10       1.0  T
   3    -45.6223682 -0.254080E-06  0.457E-03    9.11       4.6  T
   4    -45.6223683 -0.449067E-07  0.149E-03    9.11      14.0  T
   5    -45.6223683 -0.155147E-08  0.362E-04    9.11      57.5  T
   6    -45.6223683 -0.908571E-10  0.205E-04    9.11     101.5  T
speedup  1.11
cpu  time for SCC    0.01 s
wall time for SCC    0.00 s
speedup  1.05
cpu  time for grad    0.01 s
wall time for grad    0.01 s
 E :    -45.37002695  G :  0.001678    pred/act E change: -0.540D-05 -0.807D-05
Maxdispl :   0.0629   ||displ|| :   0.1206   Lambda : -0.887D-05
Largest |displ|/coords:  0.0629 (   3)  0.0460 (   4)  0.0440 (   2)
................................................................................
.............................. CYCLE   47 ......................................
................................................................................
   1    -45.6223331 -0.456223E+02  0.565E-02    9.10       0.0  T
   2    -45.6223335 -0.375657E-06  0.420E-02    9.10       1.0  T
   3    -45.6223338 -0.315816E-06  0.518E-03    9.10       4.0  T
   4    -45.6223339 -0.419008E-07  0.173E-03    9.10      12.1  T
   5    -45.6223339 -0.199762E-08  0.393E-04    9.10      53.0  T
   6    -45.6223339 -0.107818E-09  0.246E-04    9.10      84.9  T
speedup  0.89
cpu  time for SCC    0.00 s
wall time for SCC    0.00 s
speedup  0.96
cpu  time for grad    0.01 s
wall time for grad    0.01 s
 E :    -45.37003343  G :  0.001566    pred/act E change: -0.575D-05 -0.648D-05
Maxdispl :   0.0741   ||displ|| :   0.1379   Lambda : -0.102D-04
Largest |displ|/coords:  0.0741 (   3)  0.0589 (   4)  0.0470 (   2)
................................................................................
.............................. CYCLE   48 ......................................
................................................................................
   1    -45.6225692 -0.456226E+02  0.641E-02    9.10       0.0  T
   2    -45.6225697 -0.473180E-06  0.474E-02    9.10       1.0  T
   3    -45.6225701 -0.407358E-06  0.627E-03    9.10       3.3  T
   4    -45.6225702 -0.444582E-07  0.200E-03    9.10      10.4  T
   5    -45.6225702 -0.329974E-08  0.454E-04    9.10      45.9  T
   6    -45.6225702 -0.153371E-09  0.292E-04    9.10      71.3  T
speedup  0.91
cpu  time for SCC    0.00 s
wall time for SCC    0.00 s
speedup  1.03
cpu  time for grad    0.01 s
wall time for grad    0.01 s
 E :    -45.37003981  G :  0.001350    pred/act E change: -0.450D-05 -0.638D-05
Maxdispl :   0.0631   ||displ|| :   0.1119   Lambda : -0.774D-05
Largest |displ|/coords:  0.0631 (   3)  0.0463 (   2)  0.0345 (   5)
................................................................................
.............................. CYCLE   49 ......................................
................................................................................
   1    -45.6223972 -0.456224E+02  0.538E-02    9.09       0.0  T
   2    -45.6223976 -0.335830E-06  0.399E-02    9.09       1.0  T
   3    -45.6223979 -0.339510E-06  0.524E-03    9.10       4.0  T
   4    -45.6223979 -0.271875E-07  0.170E-03    9.09      12.2  T
   5    -45.6223979 -0.274607E-08  0.446E-04    9.10      46.7  T
   6    -45.6223979 -0.160021E-09  0.301E-04    9.10      69.3  T
speedup  1.11
cpu  time for SCC    0.01 s
wall time for SCC    0.00 s
speedup  1.05
cpu  time for grad    0.01 s
wall time for grad    0.01 s
 E :    -45.37004483  G :  0.001047    pred/act E change: -0.519D-05 -0.503D-05
Maxdispl :   0.0790   ||displ|| :   0.1321   Lambda : -0.620D-05
Largest |displ|/coords:  0.0790 (   3)  0.0608 (   2)  0.0396 (   5)
................................................................................
.............................. CYCLE   50 ......................................
................................................................................
   1    -45.6219913 -0.456220E+02  0.586E-02    9.09       0.0  T
   2    -45.6219917 -0.400511E-06  0.435E-02    9.09       1.0  T
   3    -45.6219921 -0.366144E-06  0.555E-03    9.09       3.8  T
   4    -45.6219921 -0.400872E-07  0.170E-03    9.09      12.3  T
   5    -45.6219921 -0.289597E-08  0.486E-04    9.09      42.9  T
   6    -45.6219921 -0.223345E-09  0.315E-04    9.09      66.2  T
speedup  0.89
cpu  time for SCC    0.00 s
wall time for SCC    0.00 s
speedup  0.96
cpu  time for grad    0.01 s
wall time for grad    0.01 s
 E :    -45.37004845  G :  0.001969    pred/act E change: -0.392D-05 -0.362D-05
Maxdispl :   0.1251   ||displ|| :   0.1983   Lambda : -0.250D-04
Largest |displ|/coords:  0.1251 (   3)  0.0708 (   6)  0.0601 (   2)
................................................................................
.............................. CYCLE   51 ......................................
................................................................................
   1    -45.6233917 -0.456234E+02  0.874E-02    9.11       0.0  T
   2    -45.6233929 -0.122457E-05  0.640E-02    9.11       1.0  T
   3    -45.6233941 -0.114153E-05  0.956E-03    9.11       2.2  T
   4    -45.6233942 -0.101223E-06  0.284E-03    9.11       7.4  T
   5    -45.6233942 -0.132885E-07  0.961E-04    9.11      21.7  T
   6    -45.6233942 -0.930150E-09  0.611E-04    9.11      34.1  T
speedup  0.89
cpu  time for SCC    0.00 s
wall time for SCC    0.00 s
speedup  0.87
cpu  time for grad    0.01 s
wall time for grad    0.01 s
 E :    -45.37004482  G :  0.004009    pred/act E change: -0.315D-05  0.363D-05
Maxdispl :   0.0569   ||displ|| :   0.0924   Lambda : -0.279D-04
Largest |displ|/coords:  0.0569 (   3)  0.0470 (   2)  0.0264 (   5)
................................................................................
.............................. CYCLE   52 ......................................
................................................................................
   1    -45.6220200 -0.456220E+02  0.454E-02    9.09       0.0  T
   2    -45.6220205 -0.465030E-06  0.339E-02    9.09       1.0  T
   3    -45.6220208 -0.265864E-06  0.554E-03    9.09       3.8  T
   4    -45.6220209 -0.735630E-07  0.148E-03    9.09      14.1  T
   5    -45.6220209 -0.185717E-08  0.386E-04    9.09      54.0  T
speedup  0.79
cpu  time for SCC    0.00 s
wall time for SCC    0.00 s
speedup  0.87
cpu  time for grad    0.01 s
wall time for grad    0.01 s
 E :    -45.37005852  G :  0.003061    pred/act E change: -0.130D-04 -0.137D-04
Maxdispl :   0.0777   ||displ|| :   0.1302   Lambda : -0.165D-04
Largest |displ|/coords:  0.0777 (   3)  0.0507 (   2)  0.0426 (   4)

generating ANC from model Hessian ...
 Shifting diagonal of input Hessian by   4.663350509786252E-003
 Lowest  eigenvalues of input Hessian
   -0.000000   -0.000000   -0.000000   -0.000000   -0.000000    0.000000
    0.005000    0.005239    0.005947    0.006259    0.007108    0.008263
    0.008483    0.008885    0.010188    0.012235    0.012841    0.013991
 Highest eigenvalues
    1.398385    1.408303    1.429095    2.506232    3.404729    3.730730
 
cpu  time for ANC gen    0.01 s
wall time for ANC gen    0.01 s
................................................................................
.............................. CYCLE   53 ......................................
................................................................................
   1    -45.6222717 -0.456223E+02  0.648E-02    9.09       0.0  T
   2    -45.6222722 -0.543475E-06  0.471E-02    9.09       1.0  T
   3    -45.6222728 -0.517912E-06  0.737E-03    9.09       2.8  T
   4    -45.6222728 -0.356821E-07  0.191E-03    9.09      10.9  T
   5    -45.6222728 -0.514781E-08  0.568E-04    9.09      36.7  T
   6    -45.6222728 -0.271953E-09  0.392E-04    9.09      53.1  T
speedup  1.09
cpu  time for SCC    0.00 s
wall time for SCC    0.00 s
speedup  1.04
cpu  time for grad    0.01 s
wall time for grad    0.01 s
 E :    -45.37006359  G :  0.001201    pred/act E change:  0.000D+00 -0.507D-05
Maxdispl :   0.0117   ||displ|| :   0.0228   Lambda : -0.640D-05
Largest |displ|/coords:  0.0117 (   5)  0.0113 (   4)  0.0076 (   7)
................................................................................
.............................. CYCLE   54 ......................................
................................................................................
   1    -45.6226081 -0.456226E+02  0.142E-02    9.10       0.0  T
   2    -45.6226082 -0.277708E-07  0.106E-02    9.10       2.0  T
   3    -45.6226082 -0.200332E-07  0.102E-03    9.09      20.4  T
   4    -45.6226082 -0.375253E-08  0.359E-04    9.09      58.1  T
   5    -45.6226082 -0.130072E-09  0.109E-04    9.09     191.2  T
speedup  1.05
cpu  time for SCC    0.00 s
wall time for SCC    0.00 s
speedup  0.93
cpu  time for grad    0.01 s
wall time for grad    0.01 s
 E :    -45.37006844  G :  0.000659    pred/act E change:  0.000D+00 -0.485D-05
Maxdispl :   0.0249   ||displ|| :   0.0503   Lambda : -0.890D-05
Largest |displ|/coords:  0.0249 (   4)  0.0246 (   3)  0.0195 (   5)
................................................................................
.............................. CYCLE   55 ......................................
................................................................................
   1    -45.6230357 -0.456230E+02  0.315E-02    9.10       0.0  T
   2    -45.6230358 -0.116979E-06  0.236E-02    9.10       1.0  T
   3    -45.6230359 -0.999424E-07  0.215E-03    9.10       9.7  T
   4    -45.6230360 -0.123901E-07  0.881E-04    9.10      23.7  T
   5    -45.6230360 -0.696424E-09  0.258E-04    9.10      80.7  T
speedup  0.81
cpu  time for SCC    0.00 s
wall time for SCC    0.00 s
speedup  0.93
cpu  time for grad    0.01 s
wall time for grad    0.01 s
 E :    -45.37007483  G :  0.000719    pred/act E change: -0.320D-05 -0.639D-05
Maxdispl :   0.0399   ||displ|| :   0.0762   Lambda : -0.834D-05
Largest |displ|/coords:  0.0399 (   3)  0.0386 (   4)  0.0266 (   5)
................................................................................
.............................. CYCLE   56 ......................................
................................................................................
   1    -45.6231866 -0.456232E+02  0.440E-02    9.10       0.0  T
   2    -45.6231868 -0.200245E-06  0.329E-02    9.10       1.0  T
   3    -45.6231870 -0.205594E-06  0.286E-03    9.10       7.3  T
   4    -45.6231870 -0.152269E-07  0.110E-03    9.10      19.0  T
   5    -45.6231870 -0.956412E-09  0.352E-04    9.10      59.2  T
   6    -45.6231870 -0.132871E-09  0.199E-04    9.10     104.6  T
speedup  1.11
cpu  time for SCC    0.00 s
wall time for SCC    0.00 s
speedup  0.96
cpu  time for grad    0.01 s
wall time for grad    0.01 s
 E :    -45.37008107  G :  0.000775    pred/act E change: -0.446D-05 -0.624D-05
Maxdispl :   0.0709   ||displ|| :   0.1269   Lambda : -0.106D-04
Largest |displ|/coords:  0.0709 (   3)  0.0591 (   4)  0.0454 (   5)
................................................................................
.............................. CYCLE   57 ......................................
................................................................................
   1    -45.6230965 -0.456231E+02  0.655E-02    9.11       0.0  T
   2    -45.6230969 -0.428568E-06  0.490E-02    9.10       1.0  T
   3    -45.6230974 -0.433296E-06  0.423E-03    9.10       4.9  T
   4    -45.6230974 -0.357563E-07  0.161E-03    9.10      12.9  T
   5    -45.6230974 -0.221044E-08  0.537E-04    9.10      38.9  T
   6    -45.6230974 -0.359549E-09  0.305E-04    9.10      68.5  T
speedup  1.11
cpu  time for SCC    0.00 s
wall time for SCC    0.00 s
speedup  1.04
cpu  time for grad    0.01 s
wall time for grad    0.01 s
 E :    -45.37008855  G :  0.001033    pred/act E change: -0.419D-05 -0.749D-05
Maxdispl :   0.1024   ||displ|| :   0.1717   Lambda : -0.132D-04
Largest |displ|/coords:  0.1024 (   3)  0.0765 (   4)  0.0634 (   2)
................................................................................
.............................. CYCLE   58 ......................................
................................................................................
   1    -45.6228284 -0.456228E+02  0.761E-02    9.10       0.0  T
   2    -45.6228290 -0.643739E-06  0.570E-02    9.10       1.0  T
   3    -45.6228297 -0.672919E-06  0.530E-03    9.10       3.9  T
   4    -45.6228297 -0.515446E-07  0.150E-03    9.10      13.9  T
   5    -45.6228297 -0.344842E-08  0.693E-04    9.10      30.1  T
   6    -45.6228297 -0.789626E-09  0.318E-04    9.10      65.6  T
speedup  0.87
cpu  time for SCC    0.00 s
wall time for SCC    0.00 s
speedup  0.96
cpu  time for grad    0.01 s
wall time for grad    0.01 s
 E :    -45.37009855  G :  0.002078    pred/act E change: -0.538D-05 -0.100D-04
Maxdispl :   0.1845   ||displ|| :   0.3085   Lambda : -0.289D-04
Largest |displ|/coords:  0.1845 (   3)  0.1316 (   2)  0.1269 (   4)
................................................................................
.............................. CYCLE   59 ......................................
................................................................................
   1    -45.6221562 -0.456222E+02  0.119E-01    9.09       0.0  T
   2    -45.6221578 -0.164508E-05  0.892E-02    9.09       1.0  T
   3    -45.6221594 -0.152456E-05  0.862E-03    9.09       2.4  T
   4    -45.6221595 -0.173837E-06  0.248E-03    9.09       8.4  T
   5    -45.6221595 -0.939469E-08  0.114E-03    9.09      18.3  T
   6    -45.6221595 -0.209690E-08  0.509E-04    9.09      40.9  T
   7    -45.6221595 -0.418119E-09  0.119E-04    9.09     174.8  T
speedup  0.96
cpu  time for SCC    0.01 s
wall time for SCC    0.01 s
speedup  0.98
cpu  time for grad    0.01 s
wall time for grad    0.01 s
 E :    -45.37011956  G :  0.004318    pred/act E change: -0.679D-05 -0.210D-04
Maxdispl :   0.1901   ||displ|| :   0.3188   Lambda : -0.548D-04
Largest |displ|/coords:  0.1901 (   3)  0.1555 (   2)  0.1133 (   4)
................................................................................
.............................. CYCLE   60 ......................................
................................................................................
   1    -45.6222217 -0.456222E+02  0.991E-02    9.08       0.0  T
   2    -45.6222232 -0.154100E-05  0.740E-02    9.08       1.0  T
   3    -45.6222245 -0.124558E-05  0.853E-03    9.08       2.4  T
   4    -45.6222247 -0.205055E-06  0.245E-03    9.08       8.5  T
   5    -45.6222247 -0.815665E-08  0.103E-03    9.08      20.3  T
speedup  1.05
cpu  time for SCC    0.00 s
wall time for SCC    0.00 s
speedup  1.06
cpu  time for grad    0.01 s
wall time for grad    0.01 s
 E :    -45.37015796  G :  0.005393    pred/act E change: -0.158D-04 -0.384D-04
Maxdispl :   0.1881   ||displ|| :   0.3199   Lambda : -0.727D-04
Largest |displ|/coords:  0.1881 (   3)  0.1644 (   2)  0.1047 (   4)
................................................................................
.............................. CYCLE   61 ......................................
................................................................................
   1    -45.6225033 -0.456225E+02  0.951E-02    9.07       0.0  T
   2    -45.6225047 -0.144332E-05  0.710E-02    9.07       1.0  T
   3    -45.6225057 -0.100746E-05  0.752E-03    9.08       2.8  T
   4    -45.6225059 -0.214432E-06  0.229E-03    9.07       9.1  T
   5    -45.6225059 -0.762969E-08  0.972E-04    9.07      21.4  T
speedup  1.05
cpu  time for SCC    0.00 s
wall time for SCC    0.00 s
speedup  1.07
cpu  time for grad    0.01 s
wall time for grad    0.01 s
 E :    -45.37021765  G :  0.005520    pred/act E change: -0.302D-04 -0.597D-04
Maxdispl :   0.2017   ||displ|| :   0.3184   Lambda : -0.163D-03
Largest |displ|/coords:  0.2017 (   2)  0.1600 (   3)  0.0959 (   1)
................................................................................
.............................. CYCLE   62 ......................................
................................................................................
   1    -45.6258854 -0.456259E+02  0.117E-01    9.09       0.0  T
   2    -45.6258882 -0.284665E-05  0.873E-02    9.09       1.0  T
   3    -45.6258902 -0.197087E-05  0.108E-02    9.09       1.9  T
   4    -45.6258906 -0.375471E-06  0.350E-03    9.09       6.0  T
   5    -45.6258906 -0.150650E-07  0.119E-03    9.09      17.5  T
   6    -45.6258906 -0.114518E-08  0.670E-04    9.09      31.1  T
speedup  1.11
cpu  time for SCC    0.00 s
wall time for SCC    0.00 s
speedup  0.99
cpu  time for grad    0.01 s
wall time for grad    0.01 s
 E :    -45.37028015  G :  0.005282    pred/act E change: -0.401D-04 -0.625D-04
Maxdispl :   0.3480   ||displ|| :   0.6015   Lambda : -0.242D-03
Largest |displ|/coords:  0.3480 (   3)  0.3209 (   2)  0.2061 (   5)
................................................................................
.............................. CYCLE   63 ......................................
................................................................................
   1    -45.6207348 -0.456207E+02  0.233E-01    9.07       0.0  T
   2    -45.6207410 -0.617367E-05  0.174E-01    9.07       1.0  T
   3    -45.6207458 -0.483317E-05  0.153E-02    9.07       1.4  T
   4    -45.6207466 -0.777419E-06  0.492E-03    9.07       4.2  T
   5    -45.6207466 -0.248764E-07  0.219E-03    9.07       9.5  T
   6    -45.6207466 -0.556351E-08  0.865E-04    9.07      24.1  T
speedup  1.11
cpu  time for SCC    0.00 s
wall time for SCC    0.00 s
speedup  0.97
cpu  time for grad    0.01 s
wall time for grad    0.01 s
 E :    -45.37017891  G :  0.015742    pred/act E change: -0.899D-04  0.101D-03
Maxdispl :   0.2540   ||displ|| :   0.4485   Lambda : -0.587D-03
Largest |displ|/coords:  0.2540 (   3)  0.2332 (   2)  0.1484 (   4)
................................................................................
.............................. CYCLE   64 ......................................
................................................................................
   1    -45.6241068 -0.456241E+02  0.136E-01    9.09       0.0  T
   2    -45.6241106 -0.376163E-05  0.102E-01    9.09       1.0  T
   3    -45.6241130 -0.241451E-05  0.129E-02    9.09       1.6  T
   4    -45.6241135 -0.520783E-06  0.307E-03    9.09       6.8  T
   5    -45.6241135 -0.155822E-07  0.135E-03    9.09      15.5  T
   6    -45.6241135 -0.148064E-08  0.652E-04    9.09      32.0  T
speedup  1.09
cpu  time for SCC    0.00 s
wall time for SCC    0.00 s
speedup  0.98
cpu  time for grad    0.01 s
wall time for grad    0.01 s
 E :    -45.37040858  G :  0.008314    pred/act E change: -0.165D-03 -0.230D-03
Maxdispl :   0.0966   ||displ|| :   0.1594   Lambda : -0.249D-03
Largest |displ|/coords:  0.0966 (   2)  0.0663 (   7)  0.0507 (   1)
................................................................................
.............................. CYCLE   65 ......................................
................................................................................
   1    -45.6271283 -0.456271E+02  0.814E-02    9.10       0.0  T
   2    -45.6271293 -0.934114E-06  0.611E-02    9.10       1.0  T
   3    -45.6271299 -0.600214E-06  0.523E-03    9.10       4.0  T
   4    -45.6271300 -0.144603E-06  0.201E-03    9.10      10.4  T
   5    -45.6271300 -0.429500E-08  0.706E-04    9.10      29.5  T
speedup  1.05
cpu  time for SCC    0.00 s
wall time for SCC    0.00 s
speedup  0.96
cpu  time for grad    0.01 s
wall time for grad    0.01 s
 E :    -45.37036844  G :  0.008655    pred/act E change: -0.352D-03  0.401D-04
Maxdispl :   0.0530   ||displ|| :   0.1038   Lambda : -0.253D-03
Largest |displ|/coords:  0.0530 (   7)  0.0529 (   5)  0.0335 (   9)
................................................................................
.............................. CYCLE   66 ......................................
................................................................................
   1    -45.6255421 -0.456255E+02  0.540E-02    9.10       0.0  T
   2    -45.6255425 -0.353973E-06  0.401E-02    9.10       1.0  T
[...]
   4    -45.6290833 -0.517925E-08  0.618E-04    9.09      33.7  T
   5    -45.6290833 -0.647972E-09  0.233E-04    9.09      89.5  T
speedup  0.79
cpu  time for SCC    0.00 s
wall time for SCC    0.00 s
speedup  0.93
cpu  time for grad    0.01 s
wall time for grad    0.01 s
 E :    -45.37322189  G :  0.000438    pred/act E change: -0.257D-06 -0.648D-06
Maxdispl :   0.0286   ||displ|| :   0.0408   Lambda : -0.716D-06
Largest |displ|/coords:  0.0286 (   3)  0.0186 (   1)  0.0097 (   4)
................................................................................
.............................. CYCLE  121 ......................................
................................................................................
   1    -45.6291483 -0.456291E+02  0.200E-02    9.08       0.0  T
   2    -45.6291484 -0.654471E-07  0.150E-02    9.08       1.4  T
   3    -45.6291485 -0.788142E-07  0.178E-03    9.08      11.7  T
   4    -45.6291485 -0.451683E-08  0.576E-04    9.08      36.2  T
   5    -45.6291485 -0.575113E-09  0.201E-04    9.08     103.7  T
speedup  1.03
cpu  time for SCC    0.00 s
wall time for SCC    0.00 s
speedup  1.01
cpu  time for grad    0.01 s
wall time for grad    0.01 s
 E :    -45.37322246  G :  0.000411    pred/act E change: -0.443D-06 -0.579D-06
Maxdispl :   0.0421   ||displ|| :   0.0580   Lambda : -0.914D-06
Largest |displ|/coords:  0.0421 (   3)  0.0234 (   1)  0.0155 (   4)
................................................................................
.............................. CYCLE  122 ......................................
................................................................................
   1    -45.6291600 -0.456292E+02  0.294E-02    9.08       0.0  T
   2    -45.6291602 -0.132706E-06  0.220E-02    9.08       1.0  T
   3    -45.6291603 -0.161943E-06  0.251E-03    9.08       8.3  T
   4    -45.6291604 -0.860368E-08  0.890E-04    9.08      23.4  T
   5    -45.6291604 -0.113291E-08  0.292E-04    9.08      71.3  T
speedup  1.03
cpu  time for SCC    0.00 s
wall time for SCC    0.00 s
speedup  1.02
cpu  time for grad    0.01 s
wall time for grad    0.01 s
 E :    -45.37322309  G :  0.000299    pred/act E change: -0.388D-06 -0.629D-06
Maxdispl :   0.0238   ||displ|| :   0.0315   Lambda : -0.513D-06
Largest |displ|/coords:  0.0238 (   3)  0.0105 (   4)  0.0088 (  10)
................................................................................
.............................. CYCLE  123 ......................................
................................................................................
   1    -45.6291503 -0.456292E+02  0.150E-02    9.08       0.0  T
   2    -45.6291504 -0.353830E-07  0.113E-02    9.08       1.8  T
   3    -45.6291504 -0.379610E-07  0.126E-03    9.08      16.6  T
   4    -45.6291504 -0.307257E-08  0.624E-04    9.08      33.4  T
   5    -45.6291504 -0.351797E-09  0.136E-04    9.08     153.0  T
speedup  1.05
cpu  time for SCC    0.00 s
wall time for SCC    0.00 s
speedup  1.02
cpu  time for grad    0.01 s
wall time for grad    0.01 s
 E :    -45.37322348  G :  0.000270    pred/act E change: -0.459D-06 -0.383D-06
Maxdispl :   0.0329   ||displ|| :   0.0432   Lambda : -0.604D-06
Largest |displ|/coords:  0.0329 (   3)  0.0160 (   4)  0.0111 (  10)
................................................................................
.............................. CYCLE  124 ......................................
................................................................................
   1    -45.6290638 -0.456291E+02  0.224E-02    9.07       0.0  T
   2    -45.6290639 -0.722153E-07  0.169E-02    9.07       1.2  T
   3    -45.6290639 -0.777572E-07  0.181E-03    9.07      11.5  T
   4    -45.6290639 -0.643892E-08  0.870E-04    9.07      24.0  T
   5    -45.6290639 -0.645734E-09  0.197E-04    9.07     106.1  T
speedup  1.03
cpu  time for SCC    0.00 s
wall time for SCC    0.00 s
speedup  1.02
cpu  time for grad    0.01 s
wall time for grad    0.01 s
 E :    -45.37322389  G :  0.000338    pred/act E change: -0.257D-06 -0.416D-06
Maxdispl :   0.0146   ||displ|| :   0.0226   Lambda : -0.474D-06
Largest |displ|/coords:  0.0146 (   3)  0.0116 (   4)  0.0061 (   2)
................................................................................
.............................. CYCLE  125 ......................................
................................................................................
   1    -45.6290469 -0.456290E+02  0.982E-03    9.07       0.0  T
   2    -45.6290469 -0.176457E-07  0.737E-03    9.07       2.8  T
   3    -45.6290469 -0.958790E-08  0.867E-04    9.08      24.1  T
   4    -45.6290469 -0.326318E-08  0.384E-04    9.08      54.3  T
speedup  1.00
cpu  time for SCC    0.00 s
wall time for SCC    0.00 s
speedup  1.00
cpu  time for grad    0.01 s
wall time for grad    0.01 s
 E :    -45.37322422  G :  0.000341    pred/act E change: -0.303D-06 -0.323D-06
Maxdispl :   0.0217   ||displ|| :   0.0306   Lambda : -0.416D-06
Largest |displ|/coords:  0.0217 (   3)  0.0135 (   4)  0.0079 (  11)
................................................................................
.............................. CYCLE  126 ......................................
................................................................................
   1    -45.6289663 -0.456290E+02  0.162E-02    9.07       0.0  T
   2    -45.6289664 -0.428197E-07  0.121E-02    9.08       1.7  T
   3    -45.6289664 -0.339470E-07  0.143E-03    9.08      14.6  T
   4    -45.6289664 -0.614252E-08  0.579E-04    9.08      36.0  T
   5    -45.6289664 -0.298492E-09  0.138E-04    9.08     151.4  T
speedup  1.05
cpu  time for SCC    0.00 s
wall time for SCC    0.00 s
speedup  1.03
cpu  time for grad    0.01 s
wall time for grad    0.01 s
 E :    -45.37322451  G :  0.000272    pred/act E change: -0.241D-06 -0.297D-06
Maxdispl :   0.0168   ||displ|| :   0.0277   Lambda : -0.379D-06
Largest |displ|/coords:  0.0168 (   3)  0.0141 (   4)  0.0095 (   2)
................................................................................
.............................. CYCLE  127 ......................................
................................................................................
   1    -45.6289623 -0.456290E+02  0.128E-02    9.08       0.0  T
   2    -45.6289623 -0.229816E-07  0.957E-03    9.08       2.2  T
   3    -45.6289623 -0.175803E-07  0.111E-03    9.08      18.8  T
   4    -45.6289623 -0.335187E-08  0.441E-04    9.08      47.3  T
   5    -45.6289623 -0.173166E-09  0.102E-04    9.08     203.8  T
speedup  0.81
cpu  time for SCC    0.00 s
wall time for SCC    0.00 s
speedup  0.93
cpu  time for grad    0.01 s
wall time for grad    0.01 s
 E :    -45.37322476  G :  0.000198    pred/act E change: -0.208D-06 -0.245D-06
Maxdispl :   0.0040   ||displ|| :   0.0085   Lambda : -0.188D-06
Largest |displ|/coords:  0.0040 (   2)  0.0038 (   8)  0.0033 (  11)
................................................................................
.............................. CYCLE  128 ......................................
................................................................................
   1    -45.6289900 -0.456290E+02  0.407E-03    9.08       0.0  T
   2    -45.6289900 -0.208183E-08  0.304E-03    9.08       6.9  T
   3    -45.6289900 -0.175559E-08  0.369E-04    9.08      56.5  T
   4    -45.6289900 -0.258474E-09  0.123E-04    9.08     169.2  T
speedup  0.97
cpu  time for SCC    0.00 s
wall time for SCC    0.00 s
speedup  1.00
cpu  time for grad    0.01 s
wall time for grad    0.01 s
 E :    -45.37322490  G :  0.000179    pred/act E change: -0.190D-06 -0.138D-06
Maxdispl :   0.0168   ||displ|| :   0.0269   Lambda : -0.217D-06
Largest |displ|/coords:  0.0168 (   3)  0.0107 (   4)  0.0092 (   2)
................................................................................
.............................. CYCLE  129 ......................................
................................................................................
   1    -45.6289847 -0.456290E+02  0.128E-02    9.07       0.0  T
   2    -45.6289847 -0.218102E-07  0.956E-03    9.07       2.2  T
   3    -45.6289847 -0.264461E-07  0.107E-03    9.07      19.5  T
   4    -45.6289847 -0.151205E-08  0.418E-04    9.07      49.9  T
   5    -45.6289847 -0.211067E-09  0.119E-04    9.07     175.6  T
speedup  0.79
cpu  time for SCC    0.00 s
wall time for SCC    0.00 s
speedup  1.02
cpu  time for grad    0.01 s
wall time for grad    0.01 s
 E :    -45.37322505  G :  0.000209    pred/act E change: -0.942D-07 -0.151D-06
Maxdispl :   0.0081   ||displ|| :   0.0159   Lambda : -0.118D-06
Largest |displ|/coords:  0.0081 (   3)  0.0072 (   2)  0.0067 (   4)
................................................................................
.............................. CYCLE  130 ......................................
................................................................................
   1    -45.6290098 -0.456290E+02  0.680E-03    9.07       0.0  T
   2    -45.6290098 -0.643592E-08  0.510E-03    9.07       4.1  T
   3    -45.6290098 -0.646143E-08  0.525E-04    9.07      39.7  T
   4    -45.6290098 -0.697270E-09  0.257E-04    9.07      81.3  T
speedup  1.00
cpu  time for SCC    0.00 s
wall time for SCC    0.00 s
speedup  1.00
cpu  time for grad    0.01 s
wall time for grad    0.01 s
 E :    -45.37322513  G :  0.000187    pred/act E change: -0.109D-06 -0.832D-07
Maxdispl :   0.0091   ||displ|| :   0.0122   Lambda : -0.541D-07
Largest |displ|/coords:  0.0091 (   3)  0.0053 (   1)  0.0033 (   4)

   *** GEOMETRY OPTIMIZATION CONVERGED AFTER 130 ITERATIONS ***

------------------------------------------------------------------------
 total energy gain (kcal):     -0.0045
------------------------------------------------------------------------
================
 final structure:
================
$coord
        0.21082820077794        2.18310939808793        0.51486380734588      S 
        0.64961736693270       -0.05061434468016        2.49819465514529      O 
        1.96905932724084        4.16234911864088        1.11734437197350      O 
        0.75083463197409        0.98667277183307       -1.95474947934947      O 
       -2.42816092467418        2.82413619315002        0.75607300075358      O 
       -6.52689866249632        1.21556781225024       -1.42702191338442      O 
       -5.10054714763542        2.13750420934610       -0.64725507733181      H 
       -7.68819065682218        0.89085426905402       -0.07384801661810      H 
        6.85158863991020        3.19952719287905        1.30674315638349      O 
        7.42732998080811        3.83172823689641        2.90326263164066      H 
        5.10180979131246        3.80398119936568        1.12474782424494      H 
       -1.82184850394459       -4.42658868295122        1.60152570474486      O 
       -1.16221651351162       -2.82687558391230        2.25516247741888      H 
       -0.49614136524344       -5.64100630420562        1.83467310838679      H 
        4.75107614709667       -1.24849792614098        0.24759430736437      O 
        2.36798006347434       -0.64057013063125        1.96009611513491      H 
        3.83248043126275       -0.63369657575275       -1.21674229283292      H 
        5.93671592822856        0.11934568868990        0.65821096695530      H 
       -2.94923476776274       -2.02721974535393       -2.73831400661723      N 
       -1.37537165200426       -0.71629653297070       -2.59302854334249      H 
       -4.59256954664681       -0.94425889482364       -2.41356065601021      H 
       -2.99010091603243       -2.88622072868347       -4.45066901050275      H 
       -2.71803981445481       -3.31293060229334       -1.26330311261299      H 
$end
 
 Bond Distances (Angstroems)
 ---------------------------
S1-O2=1.5977         S1-O3=1.4368         S1-O4=1.4800         S1-O5=1.4428         O2-S1=1.5977         O2-H16=1.0027        
O3-S1=1.4368         O4-S1=1.4800         O5-S1=1.4428         O6-H7=0.9889         O6-H8=0.9591         H7-O6=0.9889         
H8-O6=0.9591         O9-H10=0.9584        O9-H11=0.9844        H10-O9=0.9584        H11-O9=0.9844        O12-H13=0.9788       
O12-H14=0.9594       H13-O12=0.9788       H14-O12=0.9594       O15-H17=0.9709       O15-H18=0.9822       H16-O2=1.0027        
H17-O15=0.9709       H18-O15=0.9822       N19-H20=1.0866       N19-H21=1.0555       N19-H22=1.0140       N19-H23=1.0426       
H20-N19=1.0866       H21-N19=1.0555       H22-N19=1.0140       H23-N19=1.0426       
 N  H  Rav=1.0497 sigma=0.0261  Rmin=1.0140  Rmax=1.0866     4
 O  H  Rav=0.9761 sigma=0.0145  Rmin=0.9584  Rmax=1.0027     9
 S  O  Rav=1.4893 sigma=0.0647  Rmin=1.4368  Rmax=1.5977     4
 
 selected bond angles (degree)
 --------------------
O3-S1-O2=107.42                O4-S1-O2=103.62                O4-S1-O3=112.50                O5-S1-O2=104.86                
O5-S1-O3=115.84                O5-S1-O4=111.44                H16-O2-S1=100.11               H8-O6-H7=105.42                
H11-O9-H10=105.77              
 
 selected dihedral angles (degree)
 ---------------------------------
H16-O2-S1-O3=291.87           H16-O2-S1-O4= 51.13           H16-O2-S1-O5=168.10           
 
 CMA Distance (Angstroems)
 ---------------------------
R(CMA):  1.4571

========================================================================
 FINAL SINGLEPOINT CALCULATION ON OPTIMIZED GEOMETRY
========================================================================

 Ncao       : 59
 Nao        : 58
 Nshell     : 34
 Nel        : 72
 T(el)      :   300.0
 intcut     :    25.0
 scfconv/Eh :  0.100E-05
   qconv/e  :  0.100E-03
 intneglect :  0.100E-07
 broydamp   :      0.250
 iter      E             dE          RMSdq      gap      omega  full diag
   1    -45.6290098 -0.456290E+02  0.922E-05    9.07       0.0  T
   2    -45.6290098 -0.327560E-11  0.588E-05    9.07     354.5  T
   3    -45.6290098 -0.220268E-11  0.124E-05    9.07    1688.2  T
speedup  0.87
cpu  time for SCC    0.00 s
wall time for SCC    0.00 s

   *** convergence criteria satisfied after 3 iterations ***

          eigenvalues
 #    :          24         25         26         27         28         29         30         31
 occ. :        2.000      2.000      2.000      2.000      2.000      2.000      2.000      2.000
 eps  :       -13.619    -13.412    -13.022    -12.749    -12.391    -12.368    -12.278    -12.116
 #    :          32         33         34         35         36         37         38         39
 occ. :        2.000      2.000      2.000      2.000      2.000      0.000      0.000      0.000
 eps  :       -11.976    -11.846    -11.770    -11.682    -11.510     -2.437     -0.919     -0.140
 #    :          40         41         42         43         44         45         46         47
 occ. :        0.000      0.000      0.000      0.000      0.000      0.000      0.000      0.000
 eps  :         0.916      1.475      1.777      1.941      2.853      3.823      5.196      5.679


   #   Z            q   n(s)   n(p)   n(d)      C6AA      α(0)
   1  16 S      1.666  1.590  1.790  0.954    89.535    15.926
   2   8 O     -0.660  1.775  4.884  0.000    26.630     6.966
   3   8 O     -0.711  1.765  4.946  0.000    29.007     7.221
   4   8 O     -0.758  1.777  4.982  0.000    30.324     7.384
   5   8 O     -0.721  1.757  4.964  0.000    29.297     7.257
   6   8 O     -0.602  1.743  4.860  0.000    25.240     6.781
   7   1 H      0.343  0.657  0.000  0.000     0.606     1.223
   8   1 H      0.291  0.709  0.000  0.000     0.747     1.358
   9   8 O     -0.614  1.746  4.868  0.000    25.529     6.819
  10   1 H      0.283  0.717  0.000  0.000     0.776     1.383
  11   1 H      0.328  0.672  0.000  0.000     0.643     1.260
  12   8 O     -0.602  1.739  4.863  0.000    25.229     6.779
  13   1 H      0.328  0.672  0.000  0.000     0.642     1.258
  14   1 H      0.295  0.705  0.000  0.000     0.737     1.348
  15   8 O     -0.623  1.756  4.868  0.000    25.744     6.848
  16   1 H      0.370  0.630  0.000  0.000     0.536     1.146
  17   1 H      0.311  0.689  0.000  0.000     0.688     1.303
  18   1 H      0.335  0.665  0.000  0.000     0.624     1.241
  19   7 N     -0.354  1.278  4.076  0.000    29.106     8.013
  20   1 H      0.298  0.702  0.000  0.000     0.716     1.325
  21   1 H      0.291  0.709  0.000  0.000     0.742     1.349
  22   1 H      0.227  0.773  0.000  0.000     0.976     1.548
  23   1 H      0.278  0.722  0.000  0.000     0.783     1.386

 Mol. C6AA /au·bohr⁶  :       4502.064344
 Mol. C8AA /au·bohr⁸  :      99184.040427
 Mol. α(0) /au        :         97.123162

 
 Wiberg/Mayer (AO) data. WBOs > 0.1 written file <wbo>
 largest (>0.05) Wiberg bond orders for each atom
           total WBO             WBO to atom ...
     1  S   4.862    O    3 1.373    O    5 1.365    O    4 1.204    O    2 0.878
     2  O   1.943    S    1 0.878    H   16 0.725    O    3 0.080    O    4 0.075    O    5 0.067
     3  O   1.755    S    1 1.373    O    5 0.106    O    4 0.100    O    2 0.080    H   11 0.061
     4  O   1.745    S    1 1.204    H   20 0.155    O    5 0.105    O    3 0.100    O    2 0.075    N   19 0.061
     5  O   1.742    S    1 1.365    O    3 0.106    O    4 0.105    O    2 0.067    H    7 0.065
     6  O   1.912    H    8 0.910    H    7 0.813    H   21 0.102    N   19 0.051
     7  H   0.883    O    6 0.813    O    5 0.065
     8  H   0.915    O    6 0.910
     9  O   1.859    H   10 0.915    H   11 0.828    H   18 0.057
    10  H   0.920    O    9 0.915
    11  H   0.892    O    9 0.828    O    3 0.061
    12  O   1.890    H   14 0.909    H   13 0.841    H   23 0.075
    13  H   0.892    O   12 0.841
    14  H   0.913    O   12 0.909
    15  O   1.917    H   17 0.870    H   18 0.828    H   16 0.122
    16  H   0.863    O    2 0.725    O   15 0.122
    17  H   0.903    O   15 0.870
    18  H   0.888    O   15 0.828    O    9 0.057
    19  N   3.516    H   22 0.945    H   23 0.843    H   21 0.808    H   20 0.749    O    4 0.061    O    6 0.051
    20  H   0.911    N   19 0.749    O    4 0.155
    21  H   0.915    N   19 0.808    O    6 0.102
    22  H   0.948    N   19 0.945
    23  H   0.923    N   19 0.843    O   12 0.075
 MOs/occ written to file <molden.input>
 
molecular dipole:
                 x           y           z       tot (Debye)
 q only:       -1.255      -2.340      -0.783
   full:       -0.966      -2.036      -0.348       5.796
molecular quadrupole (traceless):
                xx          xy          yy          xz          yz          zz
 q only:       -0.228       4.359      -4.258       7.540       5.333       4.486
  q+dip:       -2.805       5.031      -3.197       6.994       6.983       6.002
   full:       -2.621       4.875      -3.259       7.335       7.053       5.880

SCC energy    :     -45.6290098
rep           :       0.2556915
ES            :       0.2361739
AES           :      -0.0665984
AXC           :      -0.0081964
disp          :      -0.0166831
XB            :       0.0000000
fix           :       0.0000000
total E       :     -45.3732251
atomizationE  :       4.4562876     2796.36
(atE without considering molecular charge,
 total energy contains solvation terms)
H-L gap (eV)  :          9.0735
optimized geometry written to: xtbopt.xyz


------------------------------------------------------------------------
 * finished run on 2019/09/16 at 12:07:56.952     
------------------------------------------------------------------------
 total:
 * wall-time:     0 d,  0 h,  0 min,  2.376 sec
 *  cpu-time:     0 d,  0 h,  0 min,  2.354 sec
 * ratio c/w:     0.990 speedup
 SCF:
 * wall-time:     0 d,  0 h,  0 min,  0.124 sec
 *  cpu-time:     0 d,  0 h,  0 min,  0.121 sec
 * ratio c/w:     0.974 speedup
 ANC optimizer:
 * wall-time:     0 d,  0 h,  0 min,  2.228 sec
 *  cpu-time:     0 d,  0 h,  0 min,  2.212 sec
 * ratio c/w:     0.993 speedup

