      -----------------------------------------------------------      
     |                   =====================                   |     
     |                           x T B                           |     
     |                   =====================                   |     
     |                         S. Grimme                         |     
     |          Mulliken Center for Theoretical Chemistry        |     
     |                    University of Bonn                     |     
     |                 Version 6.0.1 (SAW181210)                 |     
      -----------------------------------------------------------      

   This program is distributed in the hope that it will be useful,
   but WITHOUT ANY WARRANTY; without even the implied warranty of
   MERCHANTABILITY or FITNESS FOR A PARTICULAR PURPOSE.
   
   FOR NON-COMMERCIAL, ACADEMIA USE ONLY.
   
   Cite this work as:
   S. Grimme, C. Bannwarth, P. Shushkov, J. Comput. Theory Chem., 2017,
   13, 1989-2009.
   C. Bannwarth, S. Ehlert and S. Grimme., ChemRxiv, 2018, preprint.
   http://doi.org/10.26434/chemrxiv.7246238.v1
   
   for sTDA-xTB:
   S. Grimme and C. Bannwarth, J. Chem. Phys., 2016, 145, 054103.
   
   in the mass-spec context:
   V. Asgeirsson, C. Bauer and S. Grimme, Chem. Sci., 2017, 8, 4879.
   
   if GBSA is used:
   P. Shushkov, F. März and S. Grimme, unpublished.
   
   for ANC optimizer:
   S. Grimme, unpublished.
   Rational Function algorithm used in ANCopt:
   F. Eckert, P. Pulay, H.-J. Werner, J. Comput. Chem., 1997, 18, 1473.
   
   with help from (in alphabetical order)
   C. Bannwarth, F. Bohle, G. Brandenburg, E. Caldeweyher, M. Checinski,
   S. Dohm, S. Ehlert, S. Ehrlich, F. März, H. Neugebauer, J. Pisarek,
   P. Pracht, P. Shushkov, and S. Spicher.
   
 * started run on 2019/09/16 at 11:35:03.407     
========================================================================
 # omp threads = 1
========================================================================
number of atoms            : 26
number of electrons        : 80
charge                     : 0
spin                       : .0
first test random number   : .3371

########################################################################
# WARNING! Please study the warnings concerning your input carefully
#  - XTBPATH is not set, using XTBHOME instead
#  - the use of '-opt' is discouraged, please use '--opt' next time
#  - the use of '-chrg' is discouraged, please use '--chrg' next time
#  - the use of '-uhf' is discouraged, please use '--uhf' next time
########################################################################

           ------------------------------------------------- 
          |                 G F N 2 - x T B                 |
          | Geometry, Frequencies, Noncovalent interactions |
          |            JCTC 2018 parametrisation            |
           ------------------------------------------------- 
      method parameters     
 k(s)        :  1.8500
 k(p)        :  2.2300
 k(d)        :  2.2300
 k(f)        :  2.0000
 kEN (H0ij)  : -2.0000
 D4 a1       :  0.5200
 D4 a2       :  5.0000
 D4 s6       :  1.0000
 D4 s8       :  2.7000
 D4 s9       :  5.0000
 alphaj      :  2.0000


            Z     q(EN)     CN     RAES       Cart. coordinates
     1  S   6.0    0.64    4.35    4.32     2.43096    -3.16133     1.53482
     2  O   6.0   -0.31    1.21    1.80     2.41854    -3.16260    -1.28085
     3  O   6.0   -0.33    1.22    1.80     2.51891    -0.50757     2.47180
     4  O   6.0   -0.31    1.20    1.80     0.09535    -4.41498     2.48425
     5  O   6.0   -0.25    2.09    1.84     4.66008    -4.54102     2.45133
     6  H   1.0    0.16    1.24    1.48     6.16540    -3.73392     1.84005
     7  O   6.0   -0.29    2.02    1.83    -4.59143    -2.88502     3.38469
     8  H   1.0    0.15    0.97    1.43    -5.56158    -4.08789     4.34724
     9  H   1.0    0.18    1.05    1.44    -2.95980    -3.65848     3.15199
    10  O   6.0   -0.30    2.02    1.83    -1.26200     4.03317    -4.64918
    11  H   1.0    0.15    0.97    1.43    -0.08026     4.48086    -5.95978
    12  H   1.0    0.16    1.04    1.43    -1.22942     2.21448    -4.57225
    13  O   6.0   -0.29    2.02    1.83    -3.66286     5.68714    -0.55230
    14  H   1.0    0.16    1.04    1.43    -2.84688     5.34458    -2.14335
    15  H   1.0    0.15    0.97    1.43    -4.34603     7.36700    -0.71343
    16  O   6.0   -0.27    1.99    1.82     7.67387    -0.28339     1.88212
    17  H   1.0    0.15    0.97    1.43     8.71079     1.20469     1.72399
    18  H   1.0    0.16    1.03    1.43     6.00037     0.33267     2.24886
    19  O   6.0   -0.31    2.08    1.84    -1.18415    -0.98719    -3.95740
    20  H   1.0    0.18    1.06    1.44     0.28473    -1.75811    -3.20727
    21  H   1.0    0.15    0.97    1.43    -1.96884    -2.30274    -4.94136
    22  N   5.0   -0.14    3.97    2.78    -2.25315     0.96393     0.89120
    23  H   1.0    0.10    1.04    1.43    -2.09854     0.25752    -0.91477
    24  H   1.0    0.11    1.06    1.44    -0.50473     0.95205     1.74404
    25  H   1.0    0.10    1.05    1.44    -2.92692     2.78745     0.81875
    26  H   1.0    0.11    1.05    1.44    -3.48241    -0.14131     1.91678

  Z AO/shell   Hii/eV     exponent
  1     Wed Apr 25 08:07:45 CEST 2018   EN: 2.200 GM2: 0.406  GM3: 0.0800  RAES: 1.40
     1s    -10.707211    1.230000
  7     Wed Apr 25 08:07:45 CEST 2018   EN: 3.040 GM2: 0.461  GM3:-0.0640  RAES: 1.90
     2s    -16.686243    2.339881
     2p    -12.523956    2.014332
  8     Wed Apr 25 08:07:45 CEST 2018   EN: 3.440 GM2: 0.452  GM3:-0.0517  RAES: 1.80
     2s    -20.229985    2.439742
     2p    -15.503117    2.137023
 16     Tue Apr 24 11:44:34 CEST 2018   EN: 2.580 GM2: 0.340  GM3:-0.0502  RAES: 3.10
     3s    -20.029654    1.981333
     3p    -11.377694    2.025643
     3d     -0.420282    1.702555
 no old-style atom pair restraining (fixing) potential

molecular fragmentation (1/2 indicates fragments):
11111122222222222222222222
# atoms in fragment 1/2:     6    20
 fragment masses (1/2) :       97.07      108.11
CMA distance (Bohr)    :   5.763
constraining FC (au)   :  0.0500
           ------------------------------------------------- 
          |        Self-Consistent Charge Iterations        |
           ------------------------------------------------- 

 Ncao       : 65
 Nao        : 64
 Nshell     : 38
 Nel        : 80
 T(el)      :   300.0
 intcut     :    25.0
 scfconv/Eh :  0.100E-05
   qconv/e  :  0.100E-03
 intneglect :  0.100E-07
 broydamp   :      0.250
 iter      E             dE          RMSdq      gap      omega  full diag
   1    -50.6535062 -0.506535E+02  0.701E+00   10.52       0.0  T
   2    -50.7023257 -0.488195E-01  0.504E+00   10.06       1.0  T
   3    -50.7398209 -0.374952E-01  0.128E+00    9.01       1.0  T
   4    -50.7447881 -0.496723E-02  0.569E-01    9.05       1.0  T
   5    -50.7455469 -0.758779E-03  0.286E-01    8.98       1.0  T
   6    -50.7459104 -0.363495E-03  0.131E-01    8.98       1.0  T
   7    -50.7460066 -0.961950E-04  0.463E-02    9.01       1.0  T
   8    -50.7460151 -0.848164E-05  0.312E-02    9.00       1.0  T
   9    -50.7460218 -0.670777E-05  0.777E-03    9.00       2.5  T
  10    -50.7460221 -0.292386E-06  0.221E-03    9.00       8.9  T
  11    -50.7460221 -0.194010E-07  0.103E-03    9.00      19.1  T
  12    -50.7460221 -0.556310E-08  0.340E-04    9.00      57.6  T
  13    -50.7460221 -0.436088E-09  0.132E-04    9.00     149.0  T
speedup  0.97
cpu  time for SCC    0.01 s
wall time for SCC    0.02 s

   *** convergence criteria satisfied after 13 iterations ***

          eigenvalues
 #    :          28         29         30         31         32         33         34         35
 occ. :        2.000      2.000      2.000      2.000      2.000      2.000      2.000      2.000
 eps  :       -12.575    -12.515    -12.361    -12.356    -12.276    -11.791    -11.693    -11.413
 #    :          36         37         38         39         40         41         42         43
 occ. :        2.000      2.000      2.000      2.000      2.000      0.000      0.000      0.000
 eps  :       -11.212    -11.179    -10.712    -10.659    -10.426     -1.431     -0.659      0.531
 #    :          44         45         46         47         48         49         50         51
 occ. :        0.000      0.000      0.000      0.000      0.000      0.000      0.000      0.000
 eps  :         1.160      1.635      1.756      2.095      2.521      3.011      4.180      5.624


   #   Z            q   n(s)   n(p)   n(d)      C6AA      α(0)
   1  16 S      1.593  1.590  1.841  0.976    91.248    16.077
   2   8 O     -0.769  1.777  4.991  0.000    30.649     7.423
   3   8 O     -0.774  1.774  4.999  0.000    30.800     7.441
   4   8 O     -0.741  1.770  4.971  0.000    29.837     7.324
   5   8 O     -0.549  1.717  4.832  0.000    23.974     6.610
   6   1 H      0.383  0.617  0.000  0.000     0.509     1.116
   7   8 O     -0.623  1.731  4.892  0.000    25.738     6.847
   8   1 H      0.283  0.717  0.000  0.000     0.773     1.381
   9   1 H      0.335  0.665  0.000  0.000     0.625     1.242
  10   8 O     -0.617  1.740  4.877  0.000    25.590     6.827
  11   1 H      0.284  0.716  0.000  0.000     0.771     1.379
  12   1 H      0.330  0.670  0.000  0.000     0.638     1.255
  13   8 O     -0.614  1.734  4.881  0.000    25.532     6.820
  14   1 H      0.333  0.667  0.000  0.000     0.629     1.246
  15   1 H      0.283  0.717  0.000  0.000     0.774     1.382
  16   8 O     -0.611  1.741  4.870  0.000    25.448     6.809
  17   1 H      0.283  0.717  0.000  0.000     0.775     1.383
  18   1 H      0.314  0.686  0.000  0.000     0.681     1.297
  19   8 O     -0.618  1.732  4.886  0.000    25.609     6.830
  20   1 H      0.347  0.653  0.000  0.000     0.595     1.212
  21   1 H      0.296  0.704  0.000  0.000     0.733     1.345
  22   7 N     -0.320  1.252  4.068  0.000    28.217     7.890
  23   1 H      0.289  0.711  0.000  0.000     0.748     1.355
  24   1 H      0.288  0.712  0.000  0.000     0.750     1.356
  25   1 H      0.296  0.704  0.000  0.000     0.724     1.333
  26   1 H      0.298  0.702  0.000  0.000     0.719     1.328

 Mol. C6AA /au·bohr⁶  :       5439.630267
 Mol. C8AA /au·bohr⁸  :     117955.014491
 Mol. α(0) /au        :        106.506517

 
 Wiberg/Mayer (AO) data. WBOs > 0.1 written file <wbo>
 largest (>0.05) Wiberg bond orders for each atom
           total WBO             WBO to atom ...
     1  S   4.911    O    4 1.329    O    2 1.279    O    3 1.251    O    5 1.018
     2  O   1.667    S    1 1.279    O    4 0.113    O    3 0.112    O    5 0.074    H   20 0.062
     3  O   1.675    S    1 1.251    O    2 0.112    O    4 0.110    O    5 0.074    H   24 0.053
     4  O   1.693    S    1 1.329    O    2 0.113    O    3 0.110    O    5 0.057    H    9 0.052
     5  O   2.050    S    1 1.018    H    6 0.811    O    2 0.074    O    3 0.074    O    4 0.057
     6  H   0.853    O    5 0.811
     7  O   1.832    H    8 0.907    H    9 0.832
     8  H   0.920    O    7 0.907
     9  H   0.888    O    7 0.832    O    4 0.052
    10  O   1.838    H   11 0.910    H   12 0.839
    11  H   0.919    O   10 0.910
    12  H   0.891    O   10 0.839
    13  O   1.841    H   15 0.908    H   14 0.842
    14  H   0.889    O   13 0.842
    15  H   0.920    O   13 0.908
    16  O   1.822    H   17 0.914    H   18 0.867
    17  H   0.920    O   16 0.914
    18  H   0.902    O   16 0.867
    19  O   1.889    H   21 0.903    H   20 0.810    H   23 0.052
    20  H   0.880    O   19 0.810    O    2 0.062
    21  H   0.912    O   19 0.903
    22  N   3.556    H   25 0.860    H   26 0.859    H   23 0.859    H   24 0.858
    23  H   0.917    N   22 0.859    O   19 0.052
    24  H   0.917    N   22 0.858    O    3 0.053
    25  H   0.912    N   22 0.860
    26  H   0.911    N   22 0.859
 MOs/occ written to file <molden.input>
 
molecular dipole:
                 x           y           z       tot (Debye)
 q only:       -1.521       2.183      -1.016
   full:       -0.802       1.817      -1.157       5.842
molecular quadrupole (traceless):
                xx          xy          yy          xz          yz          zz
 q only:        3.444       5.803      -3.788      -1.933       1.463       0.344
  q+dip:        1.212       7.628      -1.878      -1.100      -0.572       0.665
   full:        1.663       7.431      -1.634      -1.366      -0.777      -0.029

SCC energy    :     -50.7460221
rep           :       0.3086158
ES            :       0.2936979
AES           :      -0.0740039
AXC           :      -0.0095460
disp          :      -0.0166213
XB            :       0.0000000
fix           :       0.0000000
total E       :     -50.4371977
atomizationE  :       4.9675019     3117.15
(atE without considering molecular charge,
 total energy contains solvation terms)
H-L gap (eV)  :          8.9958
           ------------------------------------------------- 
          |                 ===============                 |
          |                   A N C O P T                   |
          |                 ===============                 |
          |          Approximate Normal Coordinate          |
          |           Rational Function Optimizer           |
           ------------------------------------------------- 
dumping coords to <xtbopt.coord> and <xtbopt.log>
 optlevel               2
 Maxcycle             520
 Maxmicro              25
 Econv         1.000000000000000E-007
 Gconv         2.000000000000000E-004
 Maxdispl       1.00000000000000     
 Hlow          5.000000000000000E-003
 S6             20.0000000000000     
 Nvar               72

generating ANC from model Hessian ...
 Shifting diagonal of input Hessian by   5.272512467538859E-003
 Lowest  eigenvalues of input Hessian
    0.005000    0.005150   -0.000000   -0.000000   -0.000000    0.000000
    0.000000    0.000000    0.005411    0.005534    0.005597    0.005631
    0.005949    0.006091    0.006442    0.006695    0.007043    0.007201
 Highest eigenvalues
    1.430628    1.432425    1.458246    3.139536    3.215065    3.315541
 
cpu  time for ANC gen    0.01 s
wall time for ANC gen    0.01 s
................................................................................
.............................. CYCLE    1 ......................................
................................................................................
   1    -50.7460221 -0.507460E+02  0.800E-05    9.00       0.0  T
   2    -50.7460221 -0.114824E-10  0.634E-05    9.00     309.2  T
   3    -50.7460221 -0.160583E-10  0.260E-05    9.00     755.7  T
speedup  1.03
cpu  time for SCC    0.00 s
wall time for SCC    0.00 s
speedup  0.92
cpu  time for grad    0.01 s
wall time for grad    0.01 s
 E :    -50.43719767  G :  0.139789    pred/act E change:  0.000D+00  0.504D-07
Maxdispl :   0.1624   ||displ|| :   0.3833   Lambda : -0.133D-01
Largest |displ|/coords:  0.1624 (  21)  0.1418 (  23)  0.1078 (  35)
................................................................................
.............................. CYCLE    2 ......................................
................................................................................
   1    -50.7463876 -0.507464E+02  0.292E-01    9.03       0.0  T
   2    -50.7464884 -0.100773E-03  0.222E-01    9.07       1.0  T
   3    -50.7465251 -0.367036E-04  0.774E-02    9.14       1.0  T
   4    -50.7465369 -0.117825E-04  0.166E-02    9.13       1.2  T
   5    -50.7465373 -0.463811E-06  0.468E-03    9.13       4.2  T
   6    -50.7465374 -0.420539E-07  0.270E-03    9.13       7.3  T
speedup  0.93
cpu  time for SCC    0.00 s
wall time for SCC    0.01 s
speedup  1.02
cpu  time for grad    0.01 s
wall time for grad    0.01 s
 E :    -50.44779605  G :  0.089993    pred/act E change:  0.000D+00 -0.106D-01
Maxdispl :   0.1858   ||displ|| :   0.3719   Lambda : -0.706D-02
Largest |displ|/coords:  0.1858 (  23)  0.1049 (  35)  0.1024 (  21)
................................................................................
.............................. CYCLE    3 ......................................
................................................................................
   1    -50.7484223 -0.507484E+02  0.250E-01    9.18       0.0  T
   2    -50.7485159 -0.935224E-04  0.191E-01    9.21       1.0  T
   3    -50.7485467 -0.308643E-04  0.716E-02    9.26       1.0  T
   4    -50.7485564 -0.962347E-05  0.169E-02    9.26       1.2  T
   5    -50.7485569 -0.498049E-06  0.443E-03    9.25       4.4  T
   6    -50.7485569 -0.427750E-07  0.250E-03    9.25       7.8  T
speedup  0.93
cpu  time for SCC    0.00 s
wall time for SCC    0.01 s
speedup  1.02
cpu  time for grad    0.01 s
wall time for grad    0.01 s
 E :    -50.45319756  G :  0.054030    pred/act E change: -0.761D-02 -0.540D-02
Maxdispl :   0.1332   ||displ|| :   0.3584   Lambda : -0.346D-02
Largest |displ|/coords:  0.1332 (  21)  0.1295 (  11)  0.1159 (  13)
................................................................................
.............................. CYCLE    4 ......................................
................................................................................
   1    -50.7478327 -0.507478E+02  0.337E-01    9.27       0.0  T
   2    -50.7478971 -0.644682E-04  0.256E-01    9.29       1.0  T
   3    -50.7479212 -0.240240E-04  0.555E-02    9.34       1.0  T
   4    -50.7479332 -0.120859E-04  0.140E-02    9.33       1.4  T
   5    -50.7479336 -0.378924E-06  0.367E-03    9.32       5.3  T
   6    -50.7479336 -0.197493E-07  0.199E-03    9.32       9.9  T
speedup  0.93
cpu  time for SCC    0.00 s
wall time for SCC    0.01 s
speedup  1.02
cpu  time for grad    0.01 s
wall time for grad    0.01 s
 E :    -50.45532867  G :  0.034463    pred/act E change: -0.402D-02 -0.213D-02
Maxdispl :   0.2576   ||displ|| :   0.5354   Lambda : -0.452D-02
Largest |displ|/coords:  0.2576 (   9)  0.1982 (   7)  0.1824 (  23)
................................................................................
.............................. CYCLE    5 ......................................
................................................................................
   1    -50.7522871 -0.507523E+02  0.507E-01    9.27       0.0  T
   2    -50.7524734 -0.186252E-03  0.387E-01    9.31       1.0  T
   3    -50.7525435 -0.700872E-04  0.930E-02    9.38       1.0  T
   4    -50.7525753 -0.318046E-04  0.260E-02    9.36       1.0  T
   5    -50.7525767 -0.141648E-05  0.582E-03    9.35       3.4  T
   6    -50.7525768 -0.443186E-07  0.314E-03    9.35       6.2  T
speedup  1.11
cpu  time for SCC    0.01 s
wall time for SCC    0.01 s
speedup  1.02
cpu  time for grad    0.01 s
wall time for grad    0.01 s
 E :    -50.45581347  G :  0.032618    pred/act E change: -0.195D-02 -0.485D-03
Maxdispl :   0.0959   ||displ|| :   0.2427   Lambda : -0.248D-02
Largest |displ|/coords:  0.0959 (  23)  0.0918 (  10)  0.0680 (  16)
................................................................................
.............................. CYCLE    6 ......................................
................................................................................
   1    -50.7503088 -0.507503E+02  0.313E-01    9.31       0.0  T
   2    -50.7503495 -0.406818E-04  0.238E-01    9.31       1.0  T
   3    -50.7503709 -0.213985E-04  0.370E-02    9.29       1.0  T
   4    -50.7503782 -0.730562E-05  0.116E-02    9.30       1.7  T
   5    -50.7503785 -0.346763E-06  0.276E-03    9.30       7.1  T
   6    -50.7503786 -0.638842E-08  0.164E-03    9.30      12.0  T
speedup  0.93
cpu  time for SCC    0.00 s
wall time for SCC    0.01 s
speedup  1.02
cpu  time for grad    0.01 s
wall time for grad    0.01 s
 E :    -50.45730718  G :  0.015061    pred/act E change: -0.291D-02 -0.149D-02
Maxdispl :   0.1434   ||displ|| :   0.2926   Lambda : -0.805D-03
Largest |displ|/coords:  0.1434 (   9)  0.1257 (   7)  0.1073 (   1)
................................................................................
.............................. CYCLE    7 ......................................
................................................................................
   1    -50.7493831 -0.507494E+02  0.298E-01    9.24       0.0  T
   2    -50.7494084 -0.253115E-04  0.226E-01    9.24       1.0  T
   3    -50.7494263 -0.178893E-04  0.275E-02    9.24       1.0  T
   4    -50.7494301 -0.377667E-05  0.760E-03    9.24       2.6  T
   5    -50.7494302 -0.953306E-07  0.263E-03    9.24       7.4  T
   6    -50.7494302 -0.383182E-08  0.140E-03    9.24      14.0  T
speedup  0.93
cpu  time for SCC    0.00 s
wall time for SCC    0.01 s
speedup  0.99
cpu  time for grad    0.01 s
wall time for grad    0.01 s
 E :    -50.45710493  G :  0.027164    pred/act E change: -0.131D-02  0.202D-03
Maxdispl :   0.1401   ||displ|| :   0.2797   Lambda : -0.169D-02
Largest |displ|/coords:  0.1401 (  10)  0.1207 (   1)  0.0986 (  15)
................................................................................
.............................. CYCLE    8 ......................................
................................................................................
   1    -50.7514660 -0.507515E+02  0.328E-01    9.21       0.0  T
   2    -50.7514986 -0.326413E-04  0.249E-01    9.21       1.0  T
   3    -50.7515221 -0.234232E-04  0.338E-02    9.22       1.0  T
   4    -50.7515267 -0.459047E-05  0.103E-02    9.21       1.9  T
   5    -50.7515269 -0.283775E-06  0.313E-03    9.21       6.3  T
   6    -50.7515269 -0.201092E-08  0.179E-03    9.21      11.0  T
speedup  1.13
cpu  time for SCC    0.01 s
wall time for SCC    0.01 s
speedup  1.02
cpu  time for grad    0.01 s
wall time for grad    0.01 s
 E :    -50.45776717  G :  0.016046    pred/act E change: -0.437D-03 -0.662D-03
Maxdispl :   0.1596   ||displ|| :   0.3309   Lambda : -0.110D-02
Largest |displ|/coords:  0.1596 (   5)  0.1512 (   4)  0.1247 (   7)
................................................................................
.............................. CYCLE    9 ......................................
................................................................................
   1    -50.7410847 -0.507411E+02  0.399E-01    9.24       0.0  T
   2    -50.7411296 -0.448850E-04  0.303E-01    9.24       1.0  T
   3    -50.7411652 -0.355666E-04  0.385E-02    9.26       1.0  T
   4    -50.7411714 -0.617446E-05  0.122E-02    9.25       1.6  T
   5    -50.7411716 -0.255772E-06  0.445E-03    9.25       4.4  T
   6    -50.7411716 -0.141750E-07  0.230E-03    9.25       8.5  T
   7    -50.7411717 -0.142369E-07  0.581E-04    9.25      33.7  T
speedup  0.97
cpu  time for SCC    0.01 s
wall time for SCC    0.01 s
speedup  1.02
cpu  time for grad    0.01 s
wall time for grad    0.01 s
 E :    -50.45722938  G :  0.040638    pred/act E change: -0.909D-03  0.538D-03
Maxdispl :   0.1253   ||displ|| :   0.2391   Lambda : -0.282D-02
Largest |displ|/coords:  0.1253 (   6)  0.1064 (   4)  0.0798 (   8)
................................................................................
.............................. CYCLE   10 ......................................
................................................................................
   1    -50.7552296 -0.507552E+02  0.396E-01    9.31       0.0  T
   2    -50.7552975 -0.678520E-04  0.300E-01    9.31       1.0  T
   3    -50.7553427 -0.452116E-04  0.454E-02    9.31       1.0  T
   4    -50.7553532 -0.104843E-04  0.614E-03    9.31       3.2  T
   5    -50.7553532 -0.197275E-07  0.413E-03    9.31       4.7  T
   6    -50.7553532 -0.983012E-08  0.688E-04    9.31      28.5  T
speedup  1.13
cpu  time for SCC    0.01 s
wall time for SCC    0.01 s
speedup  1.02
cpu  time for grad    0.01 s
wall time for grad    0.01 s
 E :    -50.45788075  G :  0.025444    pred/act E change: -0.609D-03 -0.651D-03
Maxdispl :   0.2447   ||displ|| :   0.3362   Lambda : -0.145D-02
Largest |displ|/coords:  0.2447 (   6)  0.1047 (   1)  0.0809 (  21)
................................................................................
.............................. CYCLE   11 ......................................
................................................................................
   1    -50.7533121 -0.507533E+02  0.356E-01    9.27       0.0  T
   2    -50.7533433 -0.311672E-04  0.268E-01    9.27       1.0  T
   3    -50.7533667 -0.233825E-04  0.320E-02    9.25       1.0  T
   4    -50.7533710 -0.437966E-05  0.105E-02    9.26       1.9  T
   5    -50.7533712 -0.168412E-06  0.411E-03    9.26       4.8  T
   6    -50.7533712 -0.158669E-07  0.215E-03    9.26       9.1  T
speedup  1.11
cpu  time for SCC    0.01 s
wall time for SCC    0.01 s
speedup  1.01
cpu  time for grad    0.01 s
wall time for grad    0.01 s
 E :    -50.45784258  G :  0.028451    pred/act E change: -0.149D-02  0.382D-04
Maxdispl :   0.1398   ||displ|| :   0.2425   Lambda : -0.146D-02
Largest |displ|/coords:  0.1398 (   6)  0.1322 (  11)  0.0764 (  10)
................................................................................
.............................. CYCLE   12 ......................................
................................................................................
   1    -50.7505612 -0.507506E+02  0.306E-01    9.26       0.0  T
   2    -50.7505931 -0.319618E-04  0.231E-01    9.26       1.0  T
   3    -50.7506172 -0.240915E-04  0.344E-02    9.27       1.0  T
   4    -50.7506214 -0.416134E-05  0.102E-02    9.27       1.9  T
   5    -50.7506216 -0.257154E-06  0.369E-03    9.27       5.3  T
   6    -50.7506216 -0.102763E-07  0.213E-03    9.27       9.2  T
speedup  0.93
cpu  time for SCC    0.00 s
wall time for SCC    0.01 s
speedup  1.01
cpu  time for grad    0.01 s
wall time for grad    0.01 s
 E :    -50.45828807  G :  0.018213    pred/act E change: -0.809D-03 -0.445D-03
Maxdispl :   0.1517   ||displ|| :   0.3287   Lambda : -0.129D-02
Largest |displ|/coords:  0.1517 (  11)  0.1375 (   6)  0.1259 (   5)
................................................................................
.............................. CYCLE   13 ......................................
................................................................................
   1    -50.7531867 -0.507532E+02  0.394E-01    9.35       0.0  T
   2    -50.7532261 -0.393746E-04  0.300E-01    9.35       1.0  T
   3    -50.7532625 -0.364445E-04  0.324E-02    9.36       1.0  T
   4    -50.7532670 -0.447089E-05  0.110E-02    9.36       1.8  T
   5    -50.7532672 -0.210459E-06  0.448E-03    9.36       4.4  T
   6    -50.7532672 -0.743866E-08  0.223E-03    9.36       8.8  T
   7    -50.7532672 -0.111004E-07  0.422E-04    9.36      46.4  T
speedup  0.97
cpu  time for SCC    0.01 s
wall time for SCC    0.01 s
speedup  1.02
cpu  time for grad    0.01 s
wall time for grad    0.01 s
 E :    -50.45758994  G :  0.036296    pred/act E change: -0.773D-03  0.698D-03
Maxdispl :   0.1425   ||displ|| :   0.2340   Lambda : -0.207D-02
Largest |displ|/coords:  0.1425 (   6)  0.0927 (  11)  0.0659 (   1)
................................................................................
.............................. CYCLE   14 ......................................
................................................................................
   1    -50.7543723 -0.507544E+02  0.291E-01    9.34       0.0  T
   2    -50.7543921 -0.197805E-04  0.221E-01    9.34       1.0  T
   3    -50.7544118 -0.197262E-04  0.235E-02    9.34       1.0  T
   4    -50.7544137 -0.188224E-05  0.923E-03    9.34       2.1  T
   5    -50.7544138 -0.120305E-06  0.306E-03    9.34       6.4  T
   6    -50.7544138 -0.667157E-08  0.158E-03    9.34      12.4  T
speedup  0.93
cpu  time for SCC    0.00 s
wall time for SCC    0.01 s
speedup  0.99
cpu  time for grad    0.01 s
wall time for grad    0.01 s
 E :    -50.45860410  G :  0.011406    pred/act E change: -0.712D-03 -0.101D-02
Maxdispl :   0.2190   ||displ|| :   0.3438   Lambda : -0.831D-03
Largest |displ|/coords:  0.2190 (  10)  0.1463 (   1)  0.1131 (   3)
................................................................................
.............................. CYCLE   15 ......................................
................................................................................
   1    -50.7470580 -0.507471E+02  0.326E-01    9.26       0.0  T
   2    -50.7470835 -0.255563E-04  0.245E-01    9.26       1.0  T
   3    -50.7471031 -0.195865E-04  0.284E-02    9.26       1.0  T
   4    -50.7471067 -0.355619E-05  0.788E-03    9.26       2.5  T
   5    -50.7471067 -0.553788E-07  0.411E-03    9.26       4.8  T
   6    -50.7471067 -0.242977E-07  0.164E-03    9.26      12.0  T
   7    -50.7471067 -0.563490E-08  0.329E-04    9.26      59.6  T
speedup  0.97
cpu  time for SCC    0.01 s
wall time for SCC    0.01 s
speedup  1.01
cpu  time for grad    0.01 s
wall time for grad    0.01 s
 E :    -50.45796531  G :  0.034551    pred/act E change: -0.109D-02  0.639D-03
Maxdispl :   0.1192   ||displ|| :   0.2052   Lambda : -0.190D-02
Largest |displ|/coords:  0.1192 (   5)  0.1121 (  10)  0.0962 (   3)
................................................................................
.............................. CYCLE   16 ......................................
................................................................................
   1    -50.7512919 -0.507513E+02  0.228E-01    9.31       0.0  T
   2    -50.7513106 -0.187455E-04  0.171E-01    9.31       1.0  T
   3    -50.7513242 -0.135153E-04  0.246E-02    9.32       1.0  T
   4    -50.7513268 -0.259686E-05  0.678E-03    9.31       2.9  T
   5    -50.7513268 -0.557116E-07  0.321E-03    9.32       6.1  T
   6    -50.7513268 -0.825305E-08  0.146E-03    9.32      13.4  T
speedup  0.93
cpu  time for SCC    0.00 s
wall time for SCC    0.01 s
speedup  1.01
cpu  time for grad    0.01 s
wall time for grad    0.01 s
 E :    -50.45883701  G :  0.011429    pred/act E change: -0.465D-03 -0.872D-03
Maxdispl :   0.1174   ||displ|| :   0.2004   Lambda : -0.413D-03
Largest |displ|/coords:  0.1174 (   7)  0.1099 (   9)  0.0589 (   6)
................................................................................
.............................. CYCLE   17 ......................................
................................................................................
   1    -50.7554920 -0.507555E+02  0.158E-01    9.35       0.0  T
   2    -50.7554993 -0.731151E-05  0.118E-01    9.36       1.0  T
   3    -50.7555048 -0.550627E-05  0.158E-02    9.36       1.2  T
   4    -50.7555058 -0.966224E-06  0.491E-03    9.35       4.0  T
   5    -50.7555058 -0.389339E-07  0.223E-03    9.35       8.8  T
   6    -50.7555058 -0.499059E-08  0.105E-03    9.36      18.7  T
speedup  1.11
cpu  time for SCC    0.01 s
wall time for SCC    0.01 s
speedup  1.01
cpu  time for grad    0.01 s
wall time for grad    0.01 s
 E :    -50.45873017  G :  0.016860    pred/act E change: -0.991D-03  0.107D-03
Maxdispl :   0.0792   ||displ|| :   0.1548   Lambda : -0.487D-03
Largest |displ|/coords:  0.0792 (   9)  0.0675 (   1)  0.0545 (   5)
................................................................................
.............................. CYCLE   18 ......................................
................................................................................
   1    -50.7529847 -0.507530E+02  0.119E-01    9.36       0.0  T
   2    -50.7529878 -0.309939E-05  0.897E-02    9.36       1.0  T
   3    -50.7529904 -0.265203E-05  0.978E-03    9.36       2.0  T
   4    -50.7529908 -0.403117E-06  0.309E-03    9.36       6.3  T
   5    -50.7529908 -0.126661E-07  0.143E-03    9.36      13.7  T
   6    -50.7529909 -0.284133E-08  0.637E-04    9.36      30.8  T
speedup  0.94
cpu  time for SCC    0.01 s
wall time for SCC    0.01 s
speedup  1.01
cpu  time for grad    0.01 s
wall time for grad    0.01 s
 E :    -50.45904313  G :  0.007114    pred/act E change: -0.215D-03 -0.313D-03
Maxdispl :   0.1197   ||displ|| :   0.2350   Lambda : -0.262D-03
Largest |displ|/coords:  0.1197 (   5)  0.1047 (   1)  0.0926 (   9)
................................................................................
.............................. CYCLE   19 ......................................
................................................................................
   1    -50.7512861 -0.507513E+02  0.148E-01    9.35       0.0  T
   2    -50.7512896 -0.350108E-05  0.112E-01    9.35       1.0  T
   3    -50.7512925 -0.290293E-05  0.112E-02    9.35       1.7  T
   4    -50.7512929 -0.422634E-06  0.408E-03    9.35       4.8  T
   5    -50.7512929 -0.249457E-07  0.132E-03    9.35      14.9  T
   6    -50.7512929 -0.151346E-08  0.762E-04    9.35      25.7  T
speedup  0.93
cpu  time for SCC    0.00 s
wall time for SCC    0.01 s
speedup  0.99
cpu  time for grad    0.01 s
wall time for grad    0.01 s
 E :    -50.45914151  G :  0.012565    pred/act E change: -0.250D-03 -0.984D-04
Maxdispl :   0.1042   ||displ|| :   0.2107   Lambda : -0.244D-03
Largest |displ|/coords:  0.1042 (   1)  0.1018 (   5)  0.0996 (   7)
................................................................................
.............................. CYCLE   20 ......................................
................................................................................
   1    -50.7511136 -0.507511E+02  0.117E-01    9.37       0.0  T
   2    -50.7511158 -0.226064E-05  0.883E-02    9.37       1.0  T
   3    -50.7511176 -0.180308E-05  0.885E-03    9.37       2.2  T
   4    -50.7511179 -0.317536E-06  0.267E-03    9.37       7.3  T
   5    -50.7511179 -0.102409E-07  0.103E-03    9.37      19.0  T
speedup  1.11
cpu  time for SCC    0.01 s
wall time for SCC    0.00 s
speedup  1.00
cpu  time for grad    0.01 s
wall time for grad    0.01 s
 E :    -50.45932062  G :  0.009719    pred/act E change: -0.138D-03 -0.179D-03
Maxdispl :   0.1920   ||displ|| :   0.3414   Lambda : -0.331D-03
Largest |displ|/coords:  0.1920 (   5)  0.1377 (   1)  0.1332 (   7)
................................................................................
.............................. CYCLE   21 ......................................
................................................................................
   1    -50.7541000 -0.507541E+02  0.147E-01    9.42       0.0  T
   2    -50.7541040 -0.394308E-05  0.110E-01    9.42       1.0  T
   3    -50.7541066 -0.260448E-05  0.129E-02    9.42       1.5  T
   4    -50.7541072 -0.624983E-06  0.393E-03    9.42       5.0  T
   5    -50.7541072 -0.203079E-07  0.134E-03    9.42      14.7  T
   6    -50.7541072 -0.247645E-08  0.731E-04    9.42      26.8  T
speedup  0.89
cpu  time for SCC    0.00 s
wall time for SCC    0.01 s
speedup  0.98
cpu  time for grad    0.01 s
wall time for grad    0.01 s
 E :    -50.45953149  G :  0.006408    pred/act E change: -0.127D-03 -0.211D-03
Maxdispl :   0.2684   ||displ|| :   0.5124   Lambda : -0.348D-03
Largest |displ|/coords:  0.2684 (   5)  0.2317 (   7)  0.2042 (   1)
................................................................................
.............................. CYCLE   22 ......................................
................................................................................
   1    -50.7483401 -0.507483E+02  0.304E-01    9.41       0.0  T
   2    -50.7483549 -0.147190E-04  0.229E-01    9.41       1.0  T
   3    -50.7483687 -0.138420E-04  0.229E-02    9.41       1.0  T
   4    -50.7483704 -0.171256E-05  0.835E-03    9.41       2.3  T
   5    -50.7483705 -0.936168E-07  0.309E-03    9.41       6.3  T
   6    -50.7483705 -0.992260E-08  0.164E-03    9.41      12.0  T
   7    -50.7483705 -0.591191E-08  0.372E-04    9.41      52.8  T
speedup  1.13
cpu  time for SCC    0.01 s
wall time for SCC    0.01 s
speedup  1.02
cpu  time for grad    0.01 s
wall time for grad    0.01 s
 E :    -50.45950779  G :  0.021302    pred/act E change: -0.185D-03  0.237D-04
Maxdispl :   0.0520   ||displ|| :   0.1087   Lambda : -0.585D-03
Largest |displ|/coords:  0.0520 (   7)  0.0444 (   3)  0.0351 (   5)
................................................................................
.............................. CYCLE   23 ......................................
................................................................................
   1    -50.7532226 -0.507532E+02  0.833E-02    9.41       0.0  T
   2    -50.7532269 -0.424146E-05  0.624E-02    9.41       1.0  T
   3    -50.7532301 -0.324544E-05  0.116E-02    9.41       1.7  T
   4    -50.7532306 -0.505663E-06  0.303E-03    9.41       6.5  T
   5    -50.7532306 -0.979803E-08  0.133E-03    9.41      14.7  T
speedup  1.11
cpu  time for SCC    0.00 s
wall time for SCC    0.00 s
speedup  1.07
cpu  time for grad    0.01 s
wall time for grad    0.01 s
 E :    -50.45979576  G :  0.008984    pred/act E change: -0.220D-03 -0.288D-03
Maxdispl :   0.0668   ||displ|| :   0.1360   Lambda : -0.285D-03
Largest |displ|/coords:  0.0668 (   3)  0.0544 (   4)  0.0366 (   5)
................................................................................
.............................. CYCLE   24 ......................................
................................................................................
   1    -50.7562549 -0.507563E+02  0.103E-01    9.41       0.0  T
   2    -50.7562609 -0.598651E-05  0.769E-02    9.42       1.0  T
   3    -50.7562653 -0.432229E-05  0.139E-02    9.42       1.4  T
   4    -50.7562660 -0.738906E-06  0.293E-03    9.42       6.7  T
   5    -50.7562660 -0.909419E-08  0.144E-03    9.42      13.6  T
speedup  1.11
cpu  time for SCC    0.00 s
wall time for SCC    0.00 s
speedup  0.99
cpu  time for grad    0.01 s
wall time for grad    0.01 s
 E :    -50.45980228  G :  0.013463    pred/act E change: -0.296D-03 -0.652D-05
Maxdispl :   0.1241   ||displ|| :   0.2407   Lambda : -0.344D-03
Largest |displ|/coords:  0.1241 (   5)  0.1116 (   3)  0.0778 (   7)
................................................................................
.............................. CYCLE   25 ......................................
................................................................................
   1    -50.7547309 -0.507547E+02  0.158E-01    9.42       0.0  T
   2    -50.7547360 -0.506982E-05  0.119E-01    9.42       1.0  T
   3    -50.7547402 -0.422779E-05  0.126E-02    9.42       1.6  T
   4    -50.7547409 -0.643362E-06  0.406E-03    9.42       4.8  T
   5    -50.7547409 -0.267981E-07  0.157E-03    9.42      12.5  T
   6    -50.7547409 -0.204221E-08  0.829E-04    9.42      23.7  T
speedup  1.13
cpu  time for SCC    0.01 s
wall time for SCC    0.01 s
speedup  1.01
cpu  time for grad    0.01 s
wall time for grad    0.01 s
 E :    -50.46002898  G :  0.008263    pred/act E change: -0.145D-03 -0.227D-03
Maxdispl :   0.1734   ||displ|| :   0.3817   Lambda : -0.413D-03
Largest |displ|/coords:  0.1734 (   3)  0.1722 (   5)  0.1426 (   7)

generating ANC from model Hessian ...
 Shifting diagonal of input Hessian by   5.196638925028652E-003
 Lowest  eigenvalues of input Hessian
    0.005000    0.005179   -0.000000   -0.000000   -0.000000   -0.000000
    0.000000    0.000000    0.005594    0.005692    0.005835    0.006225
    0.006620    0.007685    0.008297    0.008670    0.010883    0.011298
 Highest eigenvalues
    1.414304    1.415889    1.452136    2.716631    3.331278    3.543548
 
cpu  time for ANC gen    0.01 s
wall time for ANC gen    0.01 s
................................................................................
.............................. CYCLE   26 ......................................
................................................................................
   1    -50.7479633 -0.507480E+02  0.277E-01    9.32       0.0  T
   2    -50.7479840 -0.207088E-04  0.208E-01    9.32       1.0  T
   3    -50.7479982 -0.141678E-04  0.265E-02    9.32       1.0  T
   4    -50.7480012 -0.299746E-05  0.794E-03    9.32       2.5  T
   5    -50.7480013 -0.125328E-06  0.278E-03    9.32       7.1  T
   6    -50.7480013 -0.592141E-08  0.162E-03    9.32      12.1  T
   7    -50.7480013 -0.496233E-08  0.320E-04    9.32      61.2  T
   8    -50.7480013 -0.278497E-09  0.103E-04    9.32     190.1  T
speedup  0.99
cpu  time for SCC    0.01 s
wall time for SCC    0.01 s
speedup  0.98
cpu  time for grad    0.01 s
wall time for grad    0.02 s
 E :    -50.45983978  G :  0.025149    pred/act E change:  0.000D+00  0.189D-03
Maxdispl :   0.1122   ||displ|| :   0.1892   Lambda : -0.918D-03
Largest |displ|/coords:  0.1122 (   3)  0.0613 (   5)  0.0481 (   4)
................................................................................
.............................. CYCLE   27 ......................................
................................................................................
   1    -50.7519346 -0.507519E+02  0.158E-01    9.37       0.0  T
   2    -50.7519406 -0.598183E-05  0.119E-01    9.37       1.0  T
   3    -50.7519454 -0.480178E-05  0.133E-02    9.37       1.5  T
   4    -50.7519462 -0.789219E-06  0.415E-03    9.37       4.7  T
   5    -50.7519462 -0.204981E-07  0.179E-03    9.37      10.9  T
speedup  1.06
cpu  time for SCC    0.00 s
wall time for SCC    0.00 s
speedup  1.07
cpu  time for grad    0.01 s
wall time for grad    0.01 s
 E :    -50.46040159  G :  0.008723    pred/act E change:  0.000D+00 -0.562D-03
Maxdispl :   0.1571   ||displ|| :   0.2514   Lambda : -0.466D-03
Largest |displ|/coords:  0.1571 (   1)  0.0983 (   3)  0.0972 (   4)
................................................................................
.............................. CYCLE   28 ......................................
................................................................................
   1    -50.7549619 -0.507550E+02  0.202E-01    9.41       0.0  T
   2    -50.7549687 -0.681058E-05  0.153E-01    9.41       1.0  T
   3    -50.7549763 -0.762175E-05  0.141E-02    9.41       1.4  T
   4    -50.7549769 -0.619872E-06  0.434E-03    9.41       4.5  T
   5    -50.7549770 -0.168504E-07  0.223E-03    9.41       8.8  T
   6    -50.7549770 -0.635588E-08  0.695E-04    9.41      28.2  T
speedup  0.94
cpu  time for SCC    0.00 s
wall time for SCC    0.01 s
speedup  1.01
cpu  time for grad    0.01 s
wall time for grad    0.01 s
 E :    -50.46059436  G :  0.011738    pred/act E change: -0.475D-03 -0.193D-03
Maxdispl :   0.1057   ||displ|| :   0.1469   Lambda : -0.224D-03
Largest |displ|/coords:  0.1057 (   3)  0.0687 (   1)  0.0356 (  12)
................................................................................
.............................. CYCLE   29 ......................................
................................................................................
   1    -50.7552815 -0.507553E+02  0.108E-01    9.42       0.0  T
   2    -50.7552825 -0.106446E-05  0.812E-02    9.42       1.0  T
   3    -50.7552838 -0.125598E-05  0.525E-03    9.42       3.7  T
   4    -50.7552839 -0.791248E-07  0.173E-03    9.42      11.4  T
   5    -50.7552839 -0.225034E-08  0.942E-04    9.42      20.8  T
speedup  1.11
cpu  time for SCC    0.01 s
wall time for SCC    0.00 s
speedup  0.98
cpu  time for grad    0.01 s
wall time for grad    0.01 s
 E :    -50.46077075  G :  0.009456    pred/act E change: -0.248D-03 -0.176D-03
Maxdispl :   0.2567   ||displ|| :   0.3861   Lambda : -0.410D-03
Largest |displ|/coords:  0.2567 (   3)  0.2121 (   1)  0.0861 (  12)
................................................................................
.............................. CYCLE   30 ......................................
................................................................................
   1    -50.7530586 -0.507531E+02  0.252E-01    9.44       0.0  T
   2    -50.7530634 -0.483188E-05  0.190E-01    9.45       1.0  T
   3    -50.7530695 -0.608462E-05  0.109E-02    9.45       1.8  T
   4    -50.7530697 -0.255200E-06  0.435E-03    9.45       4.5  T
   5    -50.7530697 -0.158096E-07  0.192E-03    9.45      10.2  T
   6    -50.7530698 -0.477219E-08  0.649E-04    9.45      30.2  T
speedup  1.11
cpu  time for SCC    0.01 s
wall time for SCC    0.01 s
speedup  1.01
cpu  time for grad    0.01 s
wall time for grad    0.01 s
 E :    -50.46101704  G :  0.011043    pred/act E change: -0.114D-03 -0.246D-03
Maxdispl :   0.1756   ||displ|| :   0.2663   Lambda : -0.296D-03
Largest |displ|/coords:  0.1756 (   1)  0.1495 (   3)  0.0612 (   2)
................................................................................
.............................. CYCLE   31 ......................................
................................................................................
   1    -50.7547965 -0.507548E+02  0.114E-01    9.46       0.0  T
   2    -50.7547991 -0.266794E-05  0.854E-02    9.46       1.0  T
   3    -50.7548009 -0.180553E-05  0.896E-03    9.45       2.2  T
   4    -50.7548013 -0.376757E-06  0.222E-03    9.45       8.8  T
   5    -50.7548013 -0.598293E-08  0.112E-03    9.45      17.5  T
speedup  0.87
cpu  time for SCC    0.00 s
wall time for SCC    0.00 s
speedup  0.98
cpu  time for grad    0.01 s
wall time for grad    0.01 s
 E :    -50.46117153  G :  0.008199    pred/act E change: -0.236D-03 -0.154D-03
Maxdispl :   0.2936   ||displ|| :   0.5012   Lambda : -0.484D-03
Largest |displ|/coords:  0.2936 (   3)  0.2886 (   1)  0.1134 (   4)
................................................................................
.............................. CYCLE   32 ......................................
................................................................................
   1    -50.7521020 -0.507521E+02  0.333E-01    9.46       0.0  T
   2    -50.7521179 -0.159261E-04  0.252E-01    9.46       1.0  T
   3    -50.7521324 -0.144195E-04  0.213E-02    9.46       1.0  T
   4    -50.7521342 -0.186886E-05  0.721E-03    9.46       2.7  T
   5    -50.7521343 -0.802391E-07  0.309E-03    9.46       6.3  T
   6    -50.7521343 -0.651624E-08  0.155E-03    9.46      12.7  T
   7    -50.7521343 -0.679432E-08  0.290E-04    9.46      67.6  T
speedup  0.95
cpu  time for SCC    0.01 s
wall time for SCC    0.01 s
speedup  1.00
cpu  time for grad    0.01 s
wall time for grad    0.01 s
 E :    -50.46123196  G :  0.021428    pred/act E change: -0.158D-03 -0.604D-04
Maxdispl :   0.0656   ||displ|| :   0.1387   Lambda : -0.561D-03
Largest |displ|/coords:  0.0656 (   6)  0.0631 (   1)  0.0555 (   4)
................................................................................
.............................. CYCLE   33 ......................................
................................................................................
   1    -50.7553259 -0.507553E+02  0.120E-01    9.45       0.0  T
   2    -50.7553316 -0.568844E-05  0.902E-02    9.45       1.0  T
   3    -50.7553361 -0.444604E-05  0.136E-02    9.45       1.4  T
   4    -50.7553368 -0.722105E-06  0.354E-03    9.45       5.5  T
   5    -50.7553368 -0.167142E-07  0.176E-03    9.45      11.1  T
speedup  1.11
cpu  time for SCC    0.01 s
wall time for SCC    0.00 s
speedup  0.99
cpu  time for grad    0.01 s
wall time for grad    0.01 s
 E :    -50.46145222  G :  0.005362    pred/act E change: -0.303D-03 -0.220D-03
Maxdispl :   0.1770   ||displ|| :   0.2319   Lambda : -0.299D-03
Largest |displ|/coords:  0.1770 (   3)  0.0561 (   1)  0.0558 (   7)
................................................................................
.............................. CYCLE   34 ......................................
................................................................................
   1    -50.7533557 -0.507534E+02  0.152E-01    9.45       0.0  T
   2    -50.7533584 -0.264715E-05  0.114E-01    9.45       1.0  T
   3    -50.7533607 -0.231726E-05  0.103E-02    9.44       1.9  T
   4    -50.7533610 -0.326534E-06  0.366E-03    9.45       5.4  T
   5    -50.7533610 -0.201546E-07  0.138E-03    9.45      14.2  T
   6    -50.7533610 -0.132992E-08  0.689E-04    9.45      28.4  T
speedup  0.91
cpu  time for SCC    0.00 s
wall time for SCC    0.01 s
speedup  0.99
cpu  time for grad    0.01 s
wall time for grad    0.01 s
 E :    -50.46153551  G :  0.009026    pred/act E change: -0.286D-03 -0.833D-04
Maxdispl :   0.1353   ||displ|| :   0.2121   Lambda : -0.332D-03
Largest |displ|/coords:  0.1353 (   3)  0.0783 (   9)  0.0575 (  11)
................................................................................
.............................. CYCLE   35 ......................................
................................................................................
   1    -50.7552057 -0.507552E+02  0.143E-01    9.44       0.0  T
   2    -50.7552116 -0.590041E-05  0.108E-01    9.44       1.0  T
   3    -50.7552155 -0.390017E-05  0.143E-02    9.44       1.4  T
   4    -50.7552163 -0.854972E-06  0.449E-03    9.44       4.4  T
   5    -50.7552164 -0.496955E-07  0.146E-03    9.44      13.4  T
   6    -50.7552164 -0.125314E-08  0.884E-04    9.44      22.2  T
speedup  1.11
cpu  time for SCC    0.01 s
wall time for SCC    0.01 s
speedup  1.08
cpu  time for grad    0.01 s
wall time for grad    0.01 s
 E :    -50.46166341  G :  0.012851    pred/act E change: -0.157D-03 -0.128D-03
Maxdispl :   0.1911   ||displ|| :   0.3862   Lambda : -0.527D-03
Largest |displ|/coords:  0.1911 (   3)  0.1465 (   6)  0.1278 (   2)
................................................................................
.............................. CYCLE   36 ......................................
................................................................................
   1    -50.7523145 -0.507523E+02  0.246E-01    9.42       0.0  T
   2    -50.7523285 -0.140090E-04  0.186E-01    9.42       1.0  T
   3    -50.7523415 -0.129675E-04  0.206E-02    9.42       1.0  T
   4    -50.7523431 -0.164026E-05  0.698E-03    9.42       2.8  T
   5    -50.7523432 -0.648539E-07  0.293E-03    9.42       6.7  T
   6    -50.7523432 -0.739985E-08  0.151E-03    9.42      13.0  T
speedup  0.94
cpu  time for SCC    0.00 s
wall time for SCC    0.01 s
speedup  1.00
cpu  time for grad    0.01 s
wall time for grad    0.01 s
 E :    -50.46165503  G :  0.021901    pred/act E change: -0.174D-03  0.838D-05
Maxdispl :   0.0490   ||displ|| :   0.1007   Lambda : -0.592D-03
Largest |displ|/coords:  0.0490 (   1)  0.0439 (   8)  0.0304 (   4)
................................................................................
.............................. CYCLE   37 ......................................
................................................................................
   1    -50.7541165 -0.507541E+02  0.109E-01    9.43       0.0  T
   2    -50.7541226 -0.617127E-05  0.824E-02    9.43       1.0  T
   3    -50.7541271 -0.443295E-05  0.139E-02    9.43       1.4  T
   4    -50.7541279 -0.819280E-06  0.378E-03    9.43       5.2  T
   5    -50.7541279 -0.290514E-07  0.155E-03    9.43      12.7  T
speedup  0.87
cpu  time for SCC    0.00 s
wall time for SCC    0.00 s
speedup  0.98
cpu  time for grad    0.01 s
wall time for grad    0.01 s
 E :    -50.46194986  G :  0.005736    pred/act E change: -0.303D-03 -0.295D-03
Maxdispl :   0.1786   ||displ|| :   0.2533   Lambda : -0.185D-03
Largest |displ|/coords:  0.1786 (   3)  0.0870 (   2)  0.0599 (  11)
................................................................................
.............................. CYCLE   38 ......................................
................................................................................
   1    -50.7543736 -0.507544E+02  0.129E-01    9.44       0.0  T
   2    -50.7543748 -0.125829E-05  0.971E-02    9.44       1.0  T
   3    -50.7543763 -0.148904E-05  0.653E-03    9.44       3.0  T
   4    -50.7543764 -0.851725E-07  0.190E-03    9.44      10.3  T
   5    -50.7543764 -0.351505E-08  0.105E-03    9.44      18.6  T
speedup  1.06
cpu  time for SCC    0.00 s
wall time for SCC    0.00 s
speedup  1.05
cpu  time for grad    0.01 s
wall time for grad    0.01 s
 E :    -50.46207102  G :  0.006460    pred/act E change: -0.299D-03 -0.121D-03
Maxdispl :   0.2714   ||displ|| :   0.4276   Lambda : -0.270D-03
Largest |displ|/coords:  0.2714 (   3)  0.1783 (   2)  0.1175 (   6)
................................................................................
.............................. CYCLE   39 ......................................
................................................................................
   1    -50.7537586 -0.507538E+02  0.210E-01    9.45       0.0  T
   2    -50.7537625 -0.386276E-05  0.158E-01    9.45       1.0  T
   3    -50.7537673 -0.478684E-05  0.124E-02    9.45       1.6  T
   4    -50.7537675 -0.226846E-06  0.466E-03    9.45       4.2  T
   5    -50.7537676 -0.245367E-07  0.178E-03    9.45      11.0  T
   6    -50.7537676 -0.369070E-08  0.941E-04    9.45      20.8  T
speedup  1.11
cpu  time for SCC    0.01 s
wall time for SCC    0.01 s
speedup  1.07
cpu  time for grad    0.01 s
wall time for grad    0.01 s
 E :    -50.46227720  G :  0.008553    pred/act E change: -0.986D-04 -0.206D-03
Maxdispl :   0.2776   ||displ|| :   0.5402   Lambda : -0.490D-03
Largest |displ|/coords:  0.2776 (   3)  0.2762 (   2)  0.1688 (   5)
................................................................................
.............................. CYCLE   40 ......................................
................................................................................
   1    -50.7581164 -0.507581E+02  0.248E-01    9.49       0.0  T
   2    -50.7581273 -0.108833E-04  0.186E-01    9.49       1.0  T
   3    -50.7581380 -0.106961E-04  0.214E-02    9.49       1.0  T
   4    -50.7581391 -0.107288E-05  0.746E-03    9.49       2.6  T
   5    -50.7581392 -0.745356E-07  0.272E-03    9.49       7.2  T
   6    -50.7581392 -0.653858E-08  0.152E-03    9.49      12.9  T
speedup  0.93
cpu  time for SCC    0.01 s
wall time for SCC    0.01 s
speedup  0.90
cpu  time for grad    0.01 s
wall time for grad    0.01 s
 E :    -50.46241447  G :  0.018463    pred/act E change: -0.160D-03 -0.137D-03
Maxdispl :   0.3079   ||displ|| :   0.4871   Lambda : -0.709D-03
Largest |displ|/coords:  0.3079 (   3)  0.2367 (   2)  0.1453 (   6)
................................................................................
.............................. CYCLE   41 ......................................
................................................................................
   1    -50.7478268 -0.507478E+02  0.296E-01    9.48       0.0  T
   2    -50.7478512 -0.243536E-04  0.222E-01    9.48       1.0  T
   3    -50.7478700 -0.188632E-04  0.281E-02    9.48       1.0  T
   4    -50.7478734 -0.337142E-05  0.782E-03    9.48       2.5  T
   5    -50.7478735 -0.786737E-07  0.382E-03    9.48       5.1  T
   6    -50.7478735 -0.176977E-07  0.177E-03    9.48      11.1  T
   7    -50.7478735 -0.784812E-08  0.404E-04    9.48      48.6  T
speedup  0.81
cpu  time for SCC    0.00 s
wall time for SCC    0.01 s
speedup  0.94
cpu  time for grad    0.01 s
wall time for grad    0.01 s
 E :    -50.46232380  G :  0.027226    pred/act E change: -0.317D-03  0.907D-04
Maxdispl :   0.1453   ||displ|| :   0.2952   Lambda : -0.146D-02
Largest |displ|/coords:  0.1453 (   3)  0.1397 (   1)  0.1065 (   6)
................................................................................
.............................. CYCLE   42 ......................................
................................................................................
   1    -50.7613551 -0.507614E+02  0.224E-01    9.50       0.0  T
   2    -50.7613911 -0.359890E-04  0.167E-01    9.50       1.0  T
   3    -50.7614157 -0.246226E-04  0.348E-02    9.51       1.0  T
   4    -50.7614199 -0.412439E-05  0.840E-03    9.50       2.3  T
   5    -50.7614200 -0.106711E-06  0.378E-03    9.50       5.2  T
   6    -50.7614200 -0.597885E-08  0.181E-03    9.51      10.8  T
speedup  0.93
cpu  time for SCC    0.00 s
wall time for SCC    0.01 s
speedup  0.98
cpu  time for grad    0.01 s
wall time for grad    0.01 s
 E :    -50.46169259  G :  0.041735    pred/act E change: -0.439D-03  0.631D-03
Maxdispl :   0.1669   ||displ|| :   0.2875   Lambda : -0.324D-02
Largest |displ|/coords:  0.1669 (   5)  0.0949 (   8)  0.0743 (  23)
................................................................................
.............................. CYCLE   43 ......................................
................................................................................
   1    -50.7590402 -0.507590E+02  0.263E-01    9.47       0.0  T
   2    -50.7590909 -0.507399E-04  0.196E-01    9.47       1.0  T
   3    -50.7591270 -0.360784E-04  0.413E-02    9.46       1.0  T
   4    -50.7591328 -0.576263E-05  0.113E-02    9.46       1.7  T
   5    -50.7591330 -0.232221E-06  0.480E-03    9.46       4.1  T
   6    -50.7591330 -0.124652E-07  0.231E-03    9.46       8.5  T
speedup  0.93
cpu  time for SCC    0.01 s
wall time for SCC    0.01 s
speedup  0.99
cpu  time for grad    0.01 s
wall time for grad    0.01 s
 E :    -50.46153404  G :  0.045273    pred/act E change: -0.796D-03  0.159D-03
Maxdispl :   0.1243   ||displ|| :   0.2410   Lambda : -0.379D-02
Largest |displ|/coords:  0.1243 (   4)  0.1012 (  23)  0.0876 (  15)
................................................................................
.............................. CYCLE   44 ......................................
................................................................................
   1    -50.7538168 -0.507538E+02  0.247E-01    9.46       0.0  T
   2    -50.7538589 -0.421467E-04  0.186E-01    9.45       1.0  T
   3    -50.7538952 -0.362450E-04  0.360E-02    9.45       1.0  T
   4    -50.7538994 -0.428441E-05  0.971E-03    9.45       2.0  T
   5    -50.7538996 -0.117350E-06  0.412E-03    9.45       4.8  T
   6    -50.7538996 -0.226726E-07  0.194E-03    9.45      10.1  T
speedup  1.11
cpu  time for SCC    0.01 s
wall time for SCC    0.01 s
speedup  0.99
cpu  time for grad    0.01 s
wall time for grad    0.01 s
 E :    -50.46171505  G :  0.043922    pred/act E change: -0.175D-02 -0.181D-03
Maxdispl :   0.0762   ||displ|| :   0.1820   Lambda : -0.295D-02
Largest |displ|/coords:  0.0762 (  19)  0.0556 (  22)  0.0551 (   1)
................................................................................
.............................. CYCLE   45 ......................................
................................................................................
   1    -50.7539662 -0.507540E+02  0.236E-01    9.47       0.0  T
   2    -50.7540067 -0.404638E-04  0.176E-01    9.47       1.0  T
   3    -50.7540350 -0.283382E-04  0.369E-02    9.48       1.0  T
   4    -50.7540394 -0.443686E-05  0.939E-03    9.47       2.1  T
   5    -50.7540396 -0.193799E-06  0.364E-03    9.48       5.4  T
   6    -50.7540397 -0.145129E-07  0.204E-03    9.48       9.6  T
speedup  0.94
cpu  time for SCC    0.00 s
wall time for SCC    0.01 s
speedup  1.00
cpu  time for grad    0.01 s
wall time for grad    0.01 s
 E :    -50.46271127  G :  0.019831    pred/act E change: -0.200D-02 -0.996D-03
Maxdispl :   0.1109   ||displ|| :   0.2340   Lambda : -0.765D-03
Largest |displ|/coords:  0.1109 (   2)  0.1073 (   3)  0.0859 (   5)
................................................................................
.............................. CYCLE   46 ......................................
................................................................................
   1    -50.7564200 -0.507564E+02  0.114E-01    9.47       0.0  T
   2    -50.7564274 -0.740059E-05  0.848E-02    9.47       1.0  T
   3    -50.7564318 -0.439395E-05  0.158E-02    9.47       1.2  T
   4    -50.7564327 -0.854635E-06  0.493E-03    9.47       4.0  T
   5    -50.7564327 -0.532536E-07  0.159E-03    9.47      12.3  T
   6    -50.7564327 -0.182835E-08  0.890E-04    9.47      22.0  T
speedup  1.13
cpu  time for SCC    0.01 s
wall time for SCC    0.01 s
speedup  0.99
cpu  time for grad    0.01 s
wall time for grad    0.01 s
 E :    -50.46299602  G :  0.013786    pred/act E change: -0.152D-02 -0.285D-03
Maxdispl :   0.2022   ||displ|| :   0.3298   Lambda : -0.433D-03
Largest |displ|/coords:  0.2022 (   3)  0.1582 (   2)  0.0802 (   5)
................................................................................
.............................. CYCLE   47 ......................................
................................................................................
   1    -50.7558551 -0.507559E+02  0.158E-01    9.47       0.0  T
   2    -50.7558610 -0.591390E-05  0.119E-01    9.47       1.0  T
   3    -50.7558664 -0.533188E-05  0.140E-02    9.46       1.4  T
   4    -50.7558671 -0.673908E-06  0.474E-03    9.46       4.1  T
   5    -50.7558671 -0.303000E-07  0.191E-03    9.46      10.3  T
   6    -50.7558671 -0.440107E-08  0.974E-04    9.46      20.1  T
speedup  0.94
cpu  time for SCC    0.00 s
wall time for SCC    0.01 s
speedup  0.98
cpu  time for grad    0.01 s
wall time for grad    0.01 s
 E :    -50.46309154  G :  0.015420    pred/act E change: -0.403D-03 -0.955D-04
Maxdispl :   0.1835   ||displ|| :   0.2829   Lambda : -0.603D-03
Largest |displ|/coords:  0.1835 (   2)  0.1028 (   3)  0.1016 (   5)
................................................................................
.............................. CYCLE   48 ......................................
................................................................................
   1    -50.7546316 -0.507546E+02  0.153E-01    9.48       0.0  T
   2    -50.7546383 -0.668050E-05  0.115E-01    9.48       1.0  T
   3    -50.7546440 -0.567330E-05  0.152E-02    9.48       1.3  T
   4    -50.7546449 -0.872670E-06  0.429E-03    9.48       4.6  T
   5    -50.7546449 -0.264477E-07  0.187E-03    9.48      10.5  T
   6    -50.7546449 -0.337528E-08  0.925E-04    9.48      21.2  T
speedup  0.94
cpu  time for SCC    0.01 s
wall time for SCC    0.01 s
speedup  0.99
cpu  time for grad    0.01 s
wall time for grad    0.01 s
 E :    -50.46328393  G :  0.016462    pred/act E change: -0.240D-03 -0.192D-03
Maxdispl :   0.1164   ||displ|| :   0.2334   Lambda : -0.442D-03
Largest |displ|/coords:  0.1164 (   2)  0.1081 (   3)  0.0745 (   4)
................................................................................
.............................. CYCLE   49 ......................................
................................................................................
   1    -50.7533850 -0.507534E+02  0.115E-01    9.46       0.0  T
   2    -50.7533888 -0.378834E-05  0.862E-02    9.46       1.0  T
   3    -50.7533923 -0.354657E-05  0.110E-02    9.46       1.8  T
   4    -50.7533927 -0.423223E-06  0.329E-03    9.46       6.0  T
   5    -50.7533927 -0.120475E-07  0.145E-03    9.46      13.5  T
   6    -50.7533927 -0.312812E-08  0.658E-04    9.46      29.8  T
speedup  1.13
cpu  time for SCC    0.01 s
wall time for SCC    0.01 s
speedup  1.07
cpu  time for grad    0.01 s
wall time for grad    0.01 s
 E :    -50.46349889  G :  0.014686    pred/act E change: -0.326D-03 -0.215D-03
Maxdispl :   0.0773   ||displ|| :   0.1666   Lambda : -0.527D-03
Largest |displ|/coords:  0.0773 (   1)  0.0690 (   6)  0.0589 (   3)
................................................................................
.............................. CYCLE   50 ......................................
................................................................................
   1    -50.7617021 -0.507617E+02  0.106E-01    9.47       0.0  T
   2    -50.7617122 -0.100842E-04  0.783E-02    9.47       1.0  T
   3    -50.7617187 -0.647840E-05  0.180E-02    9.47       1.1  T
   4    -50.7617196 -0.971685E-06  0.389E-03    9.47       5.0  T
   5    -50.7617197 -0.229218E-07  0.183E-03    9.47      10.7  T
   6    -50.7617197 -0.243769E-08  0.895E-04    9.47      21.9  T
speedup  0.94
cpu  time for SCC    0.00 s
wall time for SCC    0.01 s
speedup  0.98
cpu  time for grad    0.01 s
wall time for grad    0.01 s
 E :    -50.46342993  G :  0.020410    pred/act E change: -0.233D-03  0.690D-04
Maxdispl :   0.1965   ||displ|| :   0.3671   Lambda : -0.801D-03
Largest |displ|/coords:  0.1965 (   3)  0.1964 (   2)  0.1442 (   5)
................................................................................
.............................. CYCLE   51 ......................................
................................................................................
   1    -50.7577948 -0.507578E+02  0.182E-01    9.46       0.0  T
   2    -50.7578039 -0.906057E-05  0.137E-01    9.46       1.0  T
   3    -50.7578134 -0.955113E-05  0.171E-02    9.46       1.1  T
   4    -50.7578143 -0.923402E-06  0.626E-03    9.46       3.1  T
   5    -50.7578144 -0.466167E-07  0.246E-03    9.46       8.0  T
   6    -50.7578144 -0.745112E-08  0.125E-03    9.46      15.7  T
speedup  0.93
cpu  time for SCC    0.00 s
wall time for SCC    0.01 s
speedup  0.98
cpu  time for grad    0.01 s
wall time for grad    0.01 s
 E :    -50.46389806  G :  0.011468    pred/act E change: -0.271D-03 -0.468D-03
Maxdispl :   0.1996   ||displ|| :   0.3905   Lambda : -0.402D-03
Largest |displ|/coords:  0.1996 (   2)  0.1893 (   3)  0.1321 (   5)
................................................................................
.............................. CYCLE   52 ......................................
................................................................................
   1    -50.7509103 -0.507509E+02  0.204E-01    9.45       0.0  T
   2    -50.7509211 -0.107737E-04  0.154E-01    9.45       1.0  T
   3    -50.7509319 -0.107592E-04  0.186E-02    9.45       1.1  T
   4    -50.7509330 -0.119449E-05  0.541E-03    9.45       3.6  T
   5    -50.7509331 -0.326387E-07  0.276E-03    9.45       7.1  T
   6    -50.7509331 -0.130653E-07  0.112E-03    9.45      17.5  T
speedup  1.11
cpu  time for SCC    0.01 s
wall time for SCC    0.01 s
speedup  1.06
cpu  time for grad    0.01 s
wall time for grad    0.01 s
 E :    -50.46396271  G :  0.018716    pred/act E change: -0.454D-03 -0.646D-04
Maxdispl :   0.0774   ||displ|| :   0.1343   Lambda : -0.439D-03
Largest |displ|/coords:  0.0774 (   3)  0.0477 (  11)  0.0355 (   1)

generating ANC from model Hessian ...
 Shifting diagonal of input Hessian by   5.135854945745316E-003
 Lowest  eigenvalues of input Hessian
    0.005000   -0.000000   -0.000000   -0.000000   -0.000000    0.000000
    0.000000    0.005289    0.005403    0.005651    0.005909    0.006394
    0.006715    0.007222    0.007365    0.008110    0.008849    0.010293
 Highest eigenvalues
    1.394362    1.398122    1.443863    2.774702    3.352250    3.558250
 
cpu  time for ANC gen    0.02 s
wall time for ANC gen    0.02 s
................................................................................
.............................. CYCLE   53 ......................................
................................................................................
   1    -50.7566933 -0.507567E+02  0.802E-02    9.51       0.0  T
   2    -50.7566968 -0.347233E-05  0.599E-02    9.51       1.0  T
   3    -50.7566994 -0.253617E-05  0.109E-02    9.51       1.8  T
   4    -50.7566998 -0.429270E-06  0.371E-03    9.51       5.3  T
   5    -50.7566998 -0.235921E-07  0.125E-03    9.51      15.7  T
   6    -50.7566998 -0.167677E-08  0.670E-04    9.51      29.3  T
   7    -50.7566998 -0.851188E-09  0.156E-04    9.51     125.6  T
speedup  0.94
cpu  time for SCC    0.01 s
wall time for SCC    0.01 s
speedup  0.94
cpu  time for grad    0.01 s
wall time for grad    0.01 s
 E :    -50.46419100  G :  0.012062    pred/act E change:  0.000D+00 -0.228D-03
Maxdispl :   0.1758   ||displ|| :   0.3041   Lambda : -0.893D-03
Largest |displ|/coords:  0.1758 (   7)  0.1220 (   5)  0.0932 (   6)
................................................................................
.............................. CYCLE   54 ......................................
................................................................................
   1    -50.7559411 -0.507559E+02  0.256E-01    9.51       0.0  T
   2    -50.7559487 -0.764146E-05  0.194E-01    9.51       1.0  T
   3    -50.7559597 -0.109801E-04  0.129E-02    9.51       1.5  T
   4    -50.7559600 -0.285231E-06  0.544E-03    9.51       3.6  T
   5    -50.7559600 -0.417424E-07  0.194E-03    9.51      10.1  T
   6    -50.7559601 -0.954621E-08  0.892E-04    9.51      22.0  T
speedup  0.94
cpu  time for SCC    0.00 s
wall time for SCC    0.01 s
speedup  0.99
cpu  time for grad    0.01 s
wall time for grad    0.01 s
 E :    -50.46480910  G :  0.012586    pred/act E change:  0.000D+00 -0.618D-03
Maxdispl :   0.1234   ||displ|| :   0.3254   Lambda : -0.692D-03
Largest |displ|/coords:  0.1234 (   6)  0.1206 (   1)  0.1154 (   7)
................................................................................
.............................. CYCLE   55 ......................................
................................................................................
   1    -50.7537301 -0.507537E+02  0.251E-01    9.50       0.0  T
   2    -50.7537373 -0.724650E-05  0.189E-01    9.50       1.0  T
   3    -50.7537461 -0.880553E-05  0.148E-02    9.50       1.3  T
   4    -50.7537467 -0.513722E-06  0.679E-03    9.50       2.9  T
   5    -50.7537467 -0.599492E-07  0.223E-03    9.50       8.8  T
   6    -50.7537467 -0.562049E-08  0.926E-04    9.50      21.2  T
speedup  1.13
cpu  time for SCC    0.01 s
wall time for SCC    0.01 s
speedup  1.06
cpu  time for grad    0.01 s
wall time for grad    0.01 s
 E :    -50.46513633  G :  0.021958    pred/act E change: -0.488D-03 -0.327D-03
Maxdispl :   0.0777   ||displ|| :   0.1570   Lambda : -0.730D-03
Largest |displ|/coords:  0.0777 (   1)  0.0683 (   4)  0.0505 (  17)
................................................................................
.............................. CYCLE   56 ......................................
................................................................................
   1    -50.7574695 -0.507575E+02  0.120E-01    9.51       0.0  T
   2    -50.7574766 -0.713175E-05  0.898E-02    9.51       1.0  T
   3    -50.7574807 -0.413079E-05  0.156E-02    9.51       1.3  T
   4    -50.7574818 -0.102655E-05  0.418E-03    9.51       4.7  T
   5    -50.7574818 -0.380152E-07  0.159E-03    9.51      12.3  T
speedup  1.11
cpu  time for SCC    0.00 s
wall time for SCC    0.00 s
speedup  1.05
cpu  time for grad    0.01 s
wall time for grad    0.01 s
 E :    -50.46552760  G :  0.008806    pred/act E change: -0.382D-03 -0.391D-03
Maxdispl :   0.1532   ||displ|| :   0.2944   Lambda : -0.573D-03
Largest |displ|/coords:  0.1532 (   1)  0.1088 (   7)  0.0943 (   4)
................................................................................
.............................. CYCLE   57 ......................................
................................................................................
   1    -50.7574103 -0.507574E+02  0.217E-01    9.51       0.0  T
   2    -50.7574173 -0.700847E-05  0.164E-01    9.51       1.0  T
   3    -50.7574261 -0.874450E-05  0.141E-02    9.51       1.4  T
   4    -50.7574266 -0.567144E-06  0.678E-03    9.51       2.9  T
   5    -50.7574267 -0.530694E-07  0.213E-03    9.51       9.2  T
   6    -50.7574267 -0.689031E-08  0.953E-04    9.51      20.6  T
speedup  0.93
cpu  time for SCC    0.00 s
wall time for SCC    0.01 s
speedup  0.90
cpu  time for grad    0.01 s
wall time for grad    0.01 s
 E :    -50.46588119  G :  0.009158    pred/act E change: -0.374D-03 -0.354D-03
Maxdispl :   0.1387   ||displ|| :   0.2649   Lambda : -0.419D-03
Largest |displ|/coords:  0.1387 (   1)  0.1023 (   4)  0.0971 (  13)
................................................................................
.............................. CYCLE   58 ......................................
................................................................................
   1    -50.7578679 -0.507579E+02  0.189E-01    9.51       0.0  T
   2    -50.7578747 -0.674796E-05  0.142E-01    9.51       1.0  T
   3    -50.7578796 -0.491451E-05  0.157E-02    9.51       1.2  T
   4    -50.7578806 -0.101066E-05  0.548E-03    9.51       3.6  T
   5    -50.7578807 -0.403309E-07  0.177E-03    9.51      11.0  T
   6    -50.7578807 -0.354559E-08  0.920E-04    9.51      21.3  T
speedup  0.94
cpu  time for SCC    0.00 s
wall time for SCC    0.01 s
speedup  0.98
cpu  time for grad    0.01 s
wall time for grad    0.01 s
 E :    -50.46603564  G :  0.014729    pred/act E change: -0.311D-03 -0.154D-03
Maxdispl :   0.0760   ||displ|| :   0.1880   Lambda : -0.453D-03
Largest |displ|/coords:  0.0760 (   1)  0.0689 (   5)  0.0648 (  13)
................................................................................
.............................. CYCLE   59 ......................................
................................................................................
   1    -50.7598134 -0.507598E+02  0.124E-01    9.52       0.0  T
   2    -50.7598177 -0.433400E-05  0.938E-02    9.52       1.0  T
   3    -50.7598225 -0.476700E-05  0.113E-02    9.52       1.7  T
   4    -50.7598229 -0.420735E-06  0.557E-03    9.52       3.5  T
   5    -50.7598229 -0.399622E-07  0.147E-03    9.52      13.4  T
   6    -50.7598229 -0.330124E-08  0.804E-04    9.52      24.4  T
speedup  0.93
cpu  time for SCC    0.00 s
wall time for SCC    0.01 s
speedup  0.98
cpu  time for grad    0.01 s
wall time for grad    0.01 s
 E :    -50.46625079  G :  0.007249    pred/act E change: -0.224D-03 -0.215D-03
Maxdispl :   0.0809   ||displ|| :   0.1674   Lambda : -0.255D-03
Largest |displ|/coords:  0.0809 (   1)  0.0708 (  13)  0.0580 (   7)
................................................................................
.............................. CYCLE   60 ......................................
................................................................................
   1    -50.7605031 -0.507605E+02  0.130E-01    9.54       0.0  T
   2    -50.7605063 -0.321010E-05  0.983E-02    9.54       1.0  T
   3    -50.7605095 -0.313945E-05  0.965E-03    9.54       2.0  T
   4    -50.7605098 -0.344893E-06  0.348E-03    9.54       5.6  T
   5    -50.7605098 -0.154027E-07  0.130E-03    9.54      15.1  T
   6    -50.7605099 -0.214520E-08  0.676E-04    9.54      29.0  T
speedup  0.93
cpu  time for SCC    0.00 s
wall time for SCC    0.01 s
speedup  0.98
cpu  time for grad    0.01 s
wall time for grad    0.01 s
 E :    -50.46633925  G :  0.009097    pred/act E change: -0.235D-03 -0.885D-04
Maxdispl :   0.0975   ||displ|| :   0.2179   Lambda : -0.231D-03
Largest |displ|/coords:  0.0975 (   1)  0.0969 (  13)  0.0807 (   4)
................................................................................
.............................. CYCLE   61 ......................................
................................................................................
   1    -50.7576627 -0.507577E+02  0.162E-01    9.52       0.0  T
   2    -50.7576660 -0.325945E-05  0.122E-01    9.52       1.0  T
   3    -50.7576695 -0.357053E-05  0.962E-03    9.52       2.0  T
   4    -50.7576698 -0.284402E-06  0.404E-03    9.52       4.9  T
   5    -50.7576699 -0.209858E-07  0.153E-03    9.52      12.8  T
   6    -50.7576699 -0.338483E-08  0.757E-04    9.52      25.9  T
speedup  0.94
cpu  time for SCC    0.01 s
wall time for SCC    0.01 s
speedup  0.98
cpu  time for grad    0.01 s
wall time for grad    0.01 s
 E :    -50.46641037  G :  0.010396    pred/act E change: -0.131D-03 -0.711D-04
Maxdispl :   0.0661   ||displ|| :   0.1285   Lambda : -0.240D-03
Largest |displ|/coords:  0.0661 (   6)  0.0532 (   5)  0.0480 (   2)
................................................................................
.............................. CYCLE   62 ......................................
................................................................................
   1    -50.7623714 -0.507624E+02  0.927E-02    9.54       0.0  T
   2    -50.7623742 -0.276548E-05  0.699E-02    9.54       1.0  T
   3    -50.7623763 -0.215385E-05  0.916E-03    9.54       2.1  T
   4    -50.7623767 -0.350079E-06  0.264E-03    9.54       7.4  T
   5    -50.7623767 -0.903942E-08  0.111E-03    9.54      17.7  T
speedup  1.09
cpu  time for SCC    0.00 s
wall time for SCC    0.00 s
speedup  1.04
cpu  time for grad    0.01 s
wall time for grad    0.01 s
 E :    -50.46639520  G :  0.014601    pred/act E change: -0.121D-03  0.152D-04
Maxdispl :   0.0835   ||displ|| :   0.1182   Lambda : -0.288D-03
Largest |displ|/coords:  0.0835 (   1)  0.0298 (  12)  0.0286 (   8)
................................................................................
.............................. CYCLE   63 ......................................
................................................................................
   1    -50.7603773 -0.507604E+02  0.103E-01    9.54       0.0  T
   2    -50.7603800 -0.276109E-05  0.785E-02    9.54       1.0  T
   3    -50.7603827 -0.266024E-05  0.868E-03    9.54       2.3  T
   4    -50.7603830 -0.297876E-06  0.266E-03    9.54       7.4  T
   5    -50.7603830 -0.807869E-08  0.114E-03    9.54      17.3  T
speedup  0.87
cpu  time for SCC    0.00 s
wall time for SCC    0.00 s
speedup  0.95
cpu  time for grad    0.01 s
wall time for grad    0.01 s
 E :    -50.46651666  G :  0.005782    pred/act E change: -0.122D-03 -0.121D-03
Maxdispl :   0.0738   ||displ|| :   0.1292   Lambda : -0.114D-03
Largest |displ|/coords:  0.0738 (  13)  0.0565 (   1)  0.0341 (  15)
................................................................................
.............................. CYCLE   64 ......................................
................................................................................
   1    -50.7596126 -0.507596E+02  0.891E-02    9.55       0.0  T
   2    -50.7596139 -0.125700E-05  0.671E-02    9.55       1.0  T
   3    -50.7596151 -0.122079E-05  0.565E-03    9.54       3.5  T
   4    -50.7596153 -0.143393E-06  0.197E-03    9.55       9.9  T
   5    -50.7596153 -0.448162E-08  0.925E-04    9.55      21.2  T
speedup  1.09
cpu  time for SCC    0.01 s
wall time for SCC    0.00 s
speedup  1.04
cpu  time for grad    0.01 s
wall time for grad    0.01 s
 E :    -50.46657438  G :  0.005471    pred/act E change: -0.146D-03 -0.577D-04
Maxdispl :   0.0651   ||displ|| :   0.1287   Lambda : -0.594D-04
Largest |displ|/coords:  0.0651 (   1)  0.0600 (   2)  0.0443 (  13)
................................................................................
.............................. CYCLE   65 ......................................
................................................................................
   1    -50.7596092 -0.507596E+02  0.658E-02    9.55       0.0  T
   2    -50.7596097 -0.440397E-06  0.496E-02    9.55       1.0  T
   3    -50.7596102 -0.501692E-06  0.373E-03    9.55       5.3  T
   4    -50.7596102 -0.348993E-07  0.138E-03    9.55      14.3  T
   5    -50.7596102 -0.262465E-08  0.551E-04    9.55      35.6  T
speedup  1.11
cpu  time for SCC    0.00 s
wall time for SCC    0.00 s
speedup  1.04
cpu  time for grad    0.01 s
wall time for grad    0.01 s
 E :    -50.46662141  G :  0.004762    pred/act E change: -0.581D-04 -0.470D-04
Maxdispl :   0.1775   ||displ|| :   0.3262   Lambda : -0.132D-03
Largest |displ|/coords:  0.1775 (   1)  0.1520 (   2)  0.1045 (   6)
................................................................................
.............................. CYCLE   66 ......................................
................................................................................
   1    -50.7607249 -0.507607E+02  0.143E-01    9.55       0.0  T
   2    -50.7607275 -0.262303E-05  0.108E-01    9.55       1.0  T
   3    -50.7607304 -0.294350E-05  0.848E-03    9.55       2.3  T
   4    -50.7607307 -0.242099E-06  0.338E-03    9.55       5.8  T
[...]
Maxdispl :   0.0127   ||displ|| :   0.0242   Lambda : -0.228D-05
Largest |displ|/coords:  0.0127 (   3)  0.0095 (   6)  0.0082 (  12)
................................................................................
.............................. CYCLE  163 ......................................
................................................................................
   1    -50.7655166 -0.507655E+02  0.969E-03    9.45       0.0  T
   2    -50.7655166 -0.348918E-07  0.721E-03    9.45       2.7  T
   3    -50.7655167 -0.218520E-07  0.146E-03    9.45      13.4  T
   4    -50.7655167 -0.497278E-08  0.424E-04    9.45      46.2  T
   5    -50.7655167 -0.267669E-09  0.110E-04    9.45     178.8  T
speedup  1.11
cpu  time for SCC    0.00 s
wall time for SCC    0.00 s
speedup  1.06
cpu  time for grad    0.01 s
wall time for grad    0.01 s
 E :    -50.47097303  G :  0.000811    pred/act E change: -0.174D-05 -0.167D-05
Maxdispl :   0.0168   ||displ|| :   0.0331   Lambda : -0.277D-05
Largest |displ|/coords:  0.0168 (   3)  0.0152 (   2)  0.0151 (   1)
................................................................................
.............................. CYCLE  164 ......................................
................................................................................
   1    -50.7653791 -0.507654E+02  0.172E-02    9.45       0.0  T
   2    -50.7653792 -0.768135E-07  0.129E-02    9.45       1.5  T
   3    -50.7653792 -0.419753E-07  0.209E-03    9.45       9.4  T
   4    -50.7653792 -0.137160E-07  0.662E-04    9.45      29.6  T
   5    -50.7653792 -0.453390E-09  0.173E-04    9.45     113.3  T
speedup  1.14
cpu  time for SCC    0.00 s
wall time for SCC    0.00 s
speedup  1.00
cpu  time for grad    0.01 s
wall time for grad    0.01 s
 E :    -50.47097475  G :  0.000615    pred/act E change: -0.114D-05 -0.172D-05
Maxdispl :   0.0163   ||displ|| :   0.0245   Lambda : -0.122D-05
Largest |displ|/coords:  0.0163 (   3)  0.0078 (   1)  0.0075 (   2)
................................................................................
.............................. CYCLE  165 ......................................
................................................................................
   1    -50.7653091 -0.507653E+02  0.125E-02    9.45       0.0  T
   2    -50.7653091 -0.235639E-07  0.943E-03    9.45       2.1  T
   3    -50.7653091 -0.258668E-07  0.106E-03    9.45      18.5  T
   4    -50.7653091 -0.211167E-08  0.332E-04    9.45      59.0  T
   5    -50.7653091 -0.141178E-09  0.100E-04    9.45     196.1  T
speedup  1.11
cpu  time for SCC    0.00 s
wall time for SCC    0.00 s
speedup  1.00
cpu  time for grad    0.01 s
wall time for grad    0.01 s
 E :    -50.47097566  G :  0.000597    pred/act E change: -0.138D-05 -0.913D-06
Maxdispl :   0.0208   ||displ|| :   0.0319   Lambda : -0.140D-05
Largest |displ|/coords:  0.0208 (   3)  0.0139 (   2)  0.0110 (   1)
................................................................................
.............................. CYCLE  166 ......................................
................................................................................
   1    -50.7653648 -0.507654E+02  0.182E-02    9.45       0.0  T
   2    -50.7653648 -0.360762E-07  0.137E-02    9.45       1.4  T
   3    -50.7653649 -0.450249E-07  0.116E-03    9.45      17.0  T
   4    -50.7653649 -0.202144E-08  0.374E-04    9.45      52.5  T
   5    -50.7653649 -0.177259E-09  0.127E-04    9.45     154.5  T
speedup  1.11
cpu  time for SCC    0.00 s
wall time for SCC    0.00 s
speedup  0.99
cpu  time for grad    0.01 s
wall time for grad    0.01 s
 E :    -50.47097661  G :  0.000475    pred/act E change: -0.611D-06 -0.947D-06
Maxdispl :   0.0125   ||displ|| :   0.0199   Lambda : -0.723D-06
Largest |displ|/coords:  0.0125 (   3)  0.0094 (   2)  0.0058 (   1)
................................................................................
.............................. CYCLE  167 ......................................
................................................................................
   1    -50.7654127 -0.507654E+02  0.128E-02    9.45       0.0  T
   2    -50.7654127 -0.165208E-07  0.966E-03    9.45       2.0  T
   3    -50.7654127 -0.186084E-07  0.712E-04    9.45      27.5  T
   4    -50.7654127 -0.127876E-08  0.271E-04    9.45      72.3  T
speedup  1.08
cpu  time for SCC    0.00 s
wall time for SCC    0.00 s
speedup  0.98
cpu  time for grad    0.01 s
wall time for grad    0.01 s
 E :    -50.47097714  G :  0.000333    pred/act E change: -0.703D-06 -0.536D-06
Maxdispl :   0.0099   ||displ|| :   0.0151   Lambda : -0.555D-06
Largest |displ|/coords:  0.0099 (   2)  0.0064 (   3)  0.0057 (   5)
................................................................................
.............................. CYCLE  168 ......................................
................................................................................
   1    -50.7654693 -0.507655E+02  0.122E-02    9.46       0.0  T
   2    -50.7654694 -0.109234E-07  0.917E-03    9.46       2.1  T
   3    -50.7654694 -0.113259E-07  0.560E-04    9.46      35.0  T
   4    -50.7654694 -0.101119E-08  0.253E-04    9.46      77.4  T
speedup  0.81
cpu  time for SCC    0.00 s
wall time for SCC    0.00 s
speedup  0.98
cpu  time for grad    0.01 s
wall time for grad    0.01 s
 E :    -50.47097754  G :  0.000258    pred/act E change: -0.362D-06 -0.401D-06
Maxdispl :   0.0082   ||displ|| :   0.0138   Lambda : -0.377D-06
Largest |displ|/coords:  0.0082 (   2)  0.0063 (   5)  0.0058 (   3)
................................................................................
.............................. CYCLE  169 ......................................
................................................................................
   1    -50.7654513 -0.507655E+02  0.111E-02    9.46       0.0  T
   2    -50.7654513 -0.865949E-08  0.836E-03    9.46       2.3  T
   3    -50.7654513 -0.988786E-08  0.505E-04    9.46      38.8  T
   4    -50.7654513 -0.598185E-09  0.234E-04    9.46      83.7  T
speedup  1.11
cpu  time for SCC    0.00 s
wall time for SCC    0.00 s
speedup  0.98
cpu  time for grad    0.01 s
wall time for grad    0.01 s
 E :    -50.47097781  G :  0.000263    pred/act E change: -0.278D-06 -0.265D-06
Maxdispl :   0.0081   ||displ|| :   0.0116   Lambda : -0.259D-06
Largest |displ|/coords:  0.0081 (   2)  0.0054 (   5)  0.0044 (   6)
................................................................................
.............................. CYCLE  170 ......................................
................................................................................
   1    -50.7654562 -0.507655E+02  0.968E-03    9.46       0.0  T
   2    -50.7654562 -0.553246E-08  0.730E-03    9.46       2.7  T
   3    -50.7654562 -0.678767E-08  0.422E-04    9.46      46.5  T
   4    -50.7654562 -0.275300E-09  0.155E-04    9.46     126.6  T
speedup  1.08
cpu  time for SCC    0.00 s
wall time for SCC    0.00 s
speedup  1.06
cpu  time for grad    0.01 s
wall time for grad    0.01 s
 E :    -50.47097799  G :  0.000221    pred/act E change: -0.188D-06 -0.180D-06
Maxdispl :   0.0058   ||displ|| :   0.0091   Lambda : -0.185D-06
Largest |displ|/coords:  0.0058 (   2)  0.0045 (   5)  0.0029 (   3)
................................................................................
.............................. CYCLE  171 ......................................
................................................................................
   1    -50.7654220 -0.507654E+02  0.725E-03    9.46       0.0  T
   2    -50.7654220 -0.322713E-08  0.546E-03    9.46       3.6  T
   3    -50.7654220 -0.415391E-08  0.388E-04    9.46      50.6  T
   4    -50.7654220 -0.112749E-09  0.867E-05    9.46     226.3  T
speedup  0.79
cpu  time for SCC    0.00 s
wall time for SCC    0.00 s
speedup  0.98
cpu  time for grad    0.01 s
wall time for grad    0.01 s
 E :    -50.47097812  G :  0.000157    pred/act E change: -0.130D-06 -0.127D-06
Maxdispl :   0.0058   ||displ|| :   0.0073   Lambda : -0.111D-06
Largest |displ|/coords:  0.0058 (   2)  0.0026 (   5)  0.0020 (   6)
................................................................................
.............................. CYCLE  172 ......................................
................................................................................
   1    -50.7654257 -0.507654E+02  0.546E-03    9.45       0.0  T
   2    -50.7654257 -0.154329E-08  0.411E-03    9.45       4.8  T
   3    -50.7654257 -0.198592E-08  0.254E-04    9.45      77.2  T
   4    -50.7654257 -0.522462E-10  0.803E-05    9.45     244.3  T
speedup  0.83
cpu  time for SCC    0.00 s
wall time for SCC    0.00 s
speedup  0.99
cpu  time for grad    0.01 s
wall time for grad    0.01 s
 E :    -50.47097819  G :  0.000110    pred/act E change: -0.927D-07 -0.730D-07
Maxdispl :   0.0026   ||displ|| :   0.0036   Lambda : -0.546D-07
Largest |displ|/coords:  0.0026 (   2)  0.0015 (   3)  0.0009 (   9)

   *** GEOMETRY OPTIMIZATION CONVERGED AFTER 172 ITERATIONS ***

------------------------------------------------------------------------
 total energy gain (kcal):     -0.5306
------------------------------------------------------------------------
================
 final structure:
================
$coord
        1.84233048082057       -2.52282108220267        0.04444204180558      S 
        1.39545834061168       -1.53576232465533       -2.48703758321080      O 
        1.57195479347375       -0.48446053666214        1.92372413511896      O 
        0.27145331782949       -4.65932857161825        0.63711782935363      O 
        4.67373021414777       -3.39005936306571        0.17647242889983      O 
        5.63648323423993       -1.84075602450060       -0.00554075030629      H 
       -3.72292749451575       -3.39204953180727        3.54117483630610      O 
       -3.96615246975684       -4.69279400836417        4.77661144032746      H 
       -2.23244568297621       -3.90245997087453        2.57937527413405      H 
        2.11314281736474        3.45097807679162       -2.80944583000382      O 
        1.78663825804745        1.63547392216961       -2.93905985631502      H 
        3.67324485370196        3.56672539666554       -1.87749272562721      H 
       -2.14317452866181        5.47373893948007       -1.13072427427605      O 
       -0.46203360865631        4.88722367450250       -1.71033515475776      H 
       -3.03251176883243        5.95170544394077       -2.63483167639959      H 
        5.82077117277333        1.62830462352379        0.72204953128399      O 
        6.83882390210626        2.12824134149451        2.13594436747558      H 
        4.16028439123939        1.14031521694734        1.40468620392229      H 
       -3.51622231438814       -2.36897905973880       -2.63833800892005      O 
       -1.71849559125632       -2.14445052626936       -3.02267162435259      H 
       -3.61542968390286       -3.98501868709734       -1.81266740728071      H 
       -3.12028225318327        1.04965659032487        1.04495548451606      N 
       -3.59831389690091       -0.21430241792015       -0.42508105420317      H 
       -1.28643775365210        0.54254996363670        1.61382135698772      H 
       -3.05972897681606        2.91601504419889        0.36656514444510      H 
       -4.31015980957550        0.76231385216590        2.52628583326779      H 
$end
 
 Bond Distances (Angstroems)
 ---------------------------
S1-O2=1.4571         S1-O3=1.4741         S1-O4=1.4379         S1-O5=1.5686         O2-S1=1.4571         O3-S1=1.4741         
O4-S1=1.4379         O5-S1=1.5686         O5-H6=0.9701         H6-O5=0.9701         O7-H8=0.9580         O7-H9=0.9768         
H8-O7=0.9580         H9-O7=0.9768         O10-H11=0.9785       O10-H12=0.9636       H11-O10=0.9785       H12-O10=0.9636       
O13-H14=0.9909       O13-H15=0.9586       H14-O13=0.9909       H15-O13=0.9586       O16-H17=0.9592       O16-H18=0.9845       
H17-O16=0.9592       H18-O16=0.9845       O19-H20=0.9800       O19-H21=0.9618       H20-O19=0.9800       H21-O19=0.9618       
N22-H23=1.0566       N22-H24=1.0509       N22-H25=1.0513       N22-H26=1.0169       H23-N22=1.0566       H24-N22=1.0509       
H25-N22=1.0513       H26-N22=1.0169       
 N  H  Rav=1.0439 sigma=0.0158  Rmin=1.0169  Rmax=1.0566     4
 O  H  Rav=0.9711 sigma=0.0111  Rmin=0.9580  Rmax=0.9909    11
 S  O  Rav=1.4844 sigma=0.0502  Rmin=1.4379  Rmax=1.5686     4
 
 selected bond angles (degree)
 --------------------
O3-S1-O2=110.01                O4-S1-O2=112.86                O4-S1-O3=111.84                O5-S1-O2=107.51                
O5-S1-O3=106.07                O5-S1-O4=108.21                H6-O5-S1=104.48                H9-O7-H8=105.39                
H12-O10-H11=104.45             
 
 selected dihedral angles (degree)
 ---------------------------------
H6-O5-S1-O2= 65.41            H6-O5-S1-O3=307.75            H6-O5-S1-O4=187.60            
 
 CMA Distance (Angstroems)
 ---------------------------
R(CMA):  2.3139

========================================================================
 FINAL SINGLEPOINT CALCULATION ON OPTIMIZED GEOMETRY
========================================================================

 Ncao       : 65
 Nao        : 64
 Nshell     : 38
 Nel        : 80
 T(el)      :   300.0
 intcut     :    25.0
 scfconv/Eh :  0.100E-05
   qconv/e  :  0.100E-03
 intneglect :  0.100E-07
 broydamp   :      0.250
 iter      E             dE          RMSdq      gap      omega  full diag
   1    -50.7654257 -0.507654E+02  0.272E-05    9.45       0.0  T
   2    -50.7654257 -0.405009E-12  0.178E-05    9.45    1104.0  T
   3    -50.7654257 -0.177636E-12  0.359E-06    9.45    5463.3  T
speedup  1.07
cpu  time for SCC    0.00 s
wall time for SCC    0.00 s

   *** convergence criteria satisfied after 3 iterations ***

          eigenvalues
 #    :          28         29         30         31         32         33         34         35
 occ. :        2.000      2.000      2.000      2.000      2.000      2.000      2.000      2.000
 eps  :       -13.516    -13.243    -12.592    -12.514    -12.402    -12.357    -12.275    -12.172
 #    :          36         37         38         39         40         41         42         43
 occ. :        2.000      2.000      2.000      2.000      2.000      0.000      0.000      0.000
 eps  :       -12.088    -12.049    -11.825    -11.811    -11.766     -2.311     -0.660     -0.153
 #    :          44         45         46         47         48         49         50         51
 occ. :        0.000      0.000      0.000      0.000      0.000      0.000      0.000      0.000
 eps  :         0.884      1.209      1.299      2.121      2.875      3.696      4.148      5.186


   #   Z            q   n(s)   n(p)   n(d)      C6AA      α(0)
   1  16 S      1.711  1.585  1.765  0.939    88.524    15.836
   2   8 O     -0.763  1.778  4.985  0.000    30.477     7.402
   3   8 O     -0.772  1.778  4.994  0.000    30.746     7.434
   4   8 O     -0.720  1.760  4.960  0.000    29.257     7.252
   5   8 O     -0.603  1.756  4.847  0.000    25.233     6.781
   6   1 H      0.369  0.631  0.000  0.000     0.539     1.149
   7   8 O     -0.623  1.740  4.883  0.000    25.739     6.847
   8   1 H      0.277  0.723  0.000  0.000     0.793     1.398
   9   1 H      0.311  0.689  0.000  0.000     0.688     1.303
  10   8 O     -0.621  1.746  4.876  0.000    25.705     6.843
  11   1 H      0.321  0.679  0.000  0.000     0.662     1.278
  12   1 H      0.306  0.694  0.000  0.000     0.704     1.318
  13   8 O     -0.609  1.747  4.862  0.000    25.395     6.801
  14   1 H      0.340  0.660  0.000  0.000     0.612     1.229
  15   1 H      0.287  0.713  0.000  0.000     0.761     1.371
  16   8 O     -0.632  1.751  4.881  0.000    25.957     6.876
  17   1 H      0.290  0.710  0.000  0.000     0.751     1.361
  18   1 H      0.325  0.675  0.000  0.000     0.650     1.266
  19   8 O     -0.598  1.739  4.859  0.000    25.137     6.767
  20   1 H      0.324  0.676  0.000  0.000     0.653     1.270
  21   1 H      0.307  0.693  0.000  0.000     0.701     1.315
  22   7 N     -0.348  1.273  4.075  0.000    28.937     7.989
  23   1 H      0.289  0.711  0.000  0.000     0.748     1.355
  24   1 H      0.283  0.717  0.000  0.000     0.765     1.370
  25   1 H      0.292  0.708  0.000  0.000     0.738     1.346
  26   1 H      0.255  0.745  0.000  0.000     0.865     1.457

 Mol. C6AA /au·bohr⁶  :       5452.998577
 Mol. C8AA /au·bohr⁸  :     117922.193506
 Mol. α(0) /au        :        106.615277

 
 Wiberg/Mayer (AO) data. WBOs > 0.1 written file <wbo>
 largest (>0.05) Wiberg bond orders for each atom
           total WBO             WBO to atom ...
     1  S   4.817    O    4 1.377    O    2 1.268    O    3 1.207    O    5 0.928
     2  O   1.713    S    1 1.268    O    4 0.109    O    3 0.105    O    5 0.077    H   20 0.055    H   11 0.053
     3  O   1.721    S    1 1.207    O    2 0.105    O    4 0.105    H   24 0.089    O    5 0.074    H   18 0.069
     4  O   1.744    S    1 1.377    O    2 0.109    O    3 0.105    O    5 0.066
     5  O   1.973    S    1 0.928    H    6 0.804    O    2 0.077    O    3 0.074    O    4 0.066
     6  H   0.863    O    5 0.804
     7  O   1.808    H    8 0.920    H    9 0.849
     8  H   0.923    O    7 0.920
     9  H   0.903    O    7 0.849
    10  O   1.873    H   12 0.886    H   11 0.840    H   14 0.075
    11  H   0.897    O   10 0.840    O    2 0.053
    12  H   0.907    O   10 0.886
    13  O   1.902    H   15 0.914    H   14 0.807    H   25 0.096
    14  H   0.884    O   13 0.807    O   10 0.075
    15  H   0.918    O   13 0.914
    16  O   1.846    H   17 0.911    H   18 0.818
    17  H   0.916    O   16 0.911
    18  H   0.894    O   16 0.818    O    3 0.069
    19  O   1.924    H   21 0.899    H   20 0.836    H   23 0.103    N   22 0.053
    20  H   0.895    O   19 0.836    O    2 0.055
    21  H   0.906    O   19 0.899
    22  N   3.530    H   26 0.926    H   24 0.822    H   25 0.815    H   23 0.808    O   19 0.053
    23  H   0.917    N   22 0.808    O   19 0.103
    24  H   0.920    N   22 0.822    O    3 0.089
    25  H   0.915    N   22 0.815    O   13 0.096
    26  H   0.935    N   22 0.926
 MOs/occ written to file <molden.input>
 
molecular dipole:
                 x           y           z       tot (Debye)
 q only:       -1.087       1.285       0.808
   full:       -0.299       0.697       1.050       3.293
molecular quadrupole (traceless):
                xx          xy          yy          xz          yz          zz
 q only:        8.421       0.992      -6.671       2.226      -0.792      -1.750
  q+dip:        7.304       1.485      -5.990       3.701      -2.121      -1.314
   full:        8.049       1.627      -6.238       3.681      -2.324      -1.810

SCC energy    :     -50.7654257
rep           :       0.2941603
ES            :       0.2630319
AES           :      -0.0769156
AXC           :      -0.0091369
disp          :      -0.0198790
XB            :       0.0000000
fix           :       0.0000000
total E       :     -50.4709782
atomizationE  :       5.0012824     3138.35
(atE without considering molecular charge,
 total energy contains solvation terms)
H-L gap (eV)  :          9.4548
optimized geometry written to: xtbopt.xyz


------------------------------------------------------------------------
 * finished run on 2019/09/16 at 11:35:07.467     
------------------------------------------------------------------------
 total:
 * wall-time:     0 d,  0 h,  0 min,  4.058 sec
 *  cpu-time:     0 d,  0 h,  0 min,  3.630 sec
 * ratio c/w:     0.895 speedup
 SCF:
 * wall-time:     0 d,  0 h,  0 min,  0.529 sec
 *  cpu-time:     0 d,  0 h,  0 min,  0.153 sec
 * ratio c/w:     0.289 speedup
 ANC optimizer:
 * wall-time:     0 d,  0 h,  0 min,  3.499 sec
 *  cpu-time:     0 d,  0 h,  0 min,  3.450 sec
 * ratio c/w:     0.986 speedup

