      -----------------------------------------------------------      
     |                   =====================                   |     
     |                           x T B                           |     
     |                   =====================                   |     
     |                         S. Grimme                         |     
     |          Mulliken Center for Theoretical Chemistry        |     
     |                    University of Bonn                     |     
     |                 Version 6.0.1 (SAW181210)                 |     
      -----------------------------------------------------------      

   This program is distributed in the hope that it will be useful,
   but WITHOUT ANY WARRANTY; without even the implied warranty of
   MERCHANTABILITY or FITNESS FOR A PARTICULAR PURPOSE.
   
   FOR NON-COMMERCIAL, ACADEMIA USE ONLY.
   
   Cite this work as:
   S. Grimme, C. Bannwarth, P. Shushkov, J. Comput. Theory Chem., 2017,
   13, 1989-2009.
   C. Bannwarth, S. Ehlert and S. Grimme., ChemRxiv, 2018, preprint.
   http://doi.org/10.26434/chemrxiv.7246238.v1
   
   for sTDA-xTB:
   S. Grimme and C. Bannwarth, J. Chem. Phys., 2016, 145, 054103.
   
   in the mass-spec context:
   V. Asgeirsson, C. Bauer and S. Grimme, Chem. Sci., 2017, 8, 4879.
   
   if GBSA is used:
   P. Shushkov, F. März and S. Grimme, unpublished.
   
   for ANC optimizer:
   S. Grimme, unpublished.
   Rational Function algorithm used in ANCopt:
   F. Eckert, P. Pulay, H.-J. Werner, J. Comput. Chem., 1997, 18, 1473.
   
   with help from (in alphabetical order)
   C. Bannwarth, F. Bohle, G. Brandenburg, E. Caldeweyher, M. Checinski,
   S. Dohm, S. Ehlert, S. Ehrlich, F. März, H. Neugebauer, J. Pisarek,
   P. Pracht, P. Shushkov, and S. Spicher.
   
 * started run on 2019/09/16 at 12:07:29.250     
========================================================================
 # omp threads = 1
========================================================================
number of atoms            : 26
number of electrons        : 80
charge                     : 0
spin                       : .0
first test random number   : .9522

########################################################################
# WARNING! Please study the warnings concerning your input carefully
#  - XTBPATH is not set, using XTBHOME instead
#  - the use of '-opt' is discouraged, please use '--opt' next time
#  - the use of '-chrg' is discouraged, please use '--chrg' next time
#  - the use of '-uhf' is discouraged, please use '--uhf' next time
########################################################################

           ------------------------------------------------- 
          |                 G F N 2 - x T B                 |
          | Geometry, Frequencies, Noncovalent interactions |
          |            JCTC 2018 parametrisation            |
           ------------------------------------------------- 
      method parameters     
 k(s)        :  1.8500
 k(p)        :  2.2300
 k(d)        :  2.2300
 k(f)        :  2.0000
 kEN (H0ij)  : -2.0000
 D4 a1       :  0.5200
 D4 a2       :  5.0000
 D4 s6       :  1.0000
 D4 s8       :  2.7000
 D4 s9       :  5.0000
 alphaj      :  2.0000


            Z     q(EN)     CN     RAES       Cart. coordinates
     1  S   6.0    0.67    4.17    3.99     0.78428     0.08600    -0.56982
     2  O   6.0   -0.33    1.27    1.80     0.32321     1.04033     2.03878
     3  O   6.0   -0.31    1.17    1.80     0.10535     2.08410    -2.43388
     4  O   6.0   -0.31    1.21    1.80     3.50456    -0.58116    -0.85801
     5  O   6.0   -0.33    1.27    1.80    -0.79602    -2.19929    -1.02615
     6  O   6.0   -0.29    2.04    1.83     2.00394    -2.70884     5.11795
     7  H   1.0    0.17    1.05    1.44     1.43671    -1.20715     4.25899
     8  H   1.0    0.15    0.97    1.43     2.65406    -2.13193     6.71768
     9  O   6.0   -0.29    2.04    1.83    -5.60327    -0.36220    -0.99180
    10  H   1.0    0.17    1.05    1.44    -4.01116    -1.22624    -1.17413
    11  H   1.0    0.15    0.97    1.43    -6.77251    -1.28048    -2.04263
    12  O   6.0   -0.29    2.05    1.83     6.29878    -4.67850    -1.05135
    13  H   1.0    0.18    1.05    1.44     5.59028    -3.00343    -1.13363
    14  H   1.0    0.15    0.97    1.43     7.87704    -4.57854    -1.95342
    15  O   6.0   -0.22    2.91    2.57     2.02155    -5.63602     1.16205
    16  H   1.0    0.14    1.05    1.44     2.08528    -4.90791     2.88125
    17  H   1.0    0.15    1.06    1.44     0.72664    -4.80953     0.09898
    18  H   1.0    0.14    1.05    1.44     3.70043    -5.64018     0.34177
    19  O   6.0   -0.22    2.92    2.59    -3.75610     3.70109     1.08478
    20  H   1.0    0.14    1.05    1.44    -4.82981     2.34075     0.38732
    21  H   1.0    0.15    1.07    1.44    -2.21692     3.02870     1.90261
    22  H   1.0    0.12    1.07    1.44    -3.35570     5.00177    -0.19561
    23  N   5.0   -0.22    3.05    1.93    -2.29557     6.86147    -2.70424
    24  H   1.0    0.13    1.03    1.43    -1.22131     5.29139    -3.00738
    25  H   1.0    0.11    0.99    1.43    -1.04904     8.31331    -2.48208
    26  H   1.0    0.11    0.99    1.43    -3.20471     7.20251    -4.36804

  Z AO/shell   Hii/eV     exponent
  1     Wed Apr 25 08:07:45 CEST 2018   EN: 2.200 GM2: 0.406  GM3: 0.0800  RAES: 1.40
     1s    -10.707211    1.230000
  7     Wed Apr 25 08:07:45 CEST 2018   EN: 3.040 GM2: 0.461  GM3:-0.0640  RAES: 1.90
     2s    -16.686243    2.339881
     2p    -12.523956    2.014332
  8     Wed Apr 25 08:07:45 CEST 2018   EN: 3.440 GM2: 0.452  GM3:-0.0517  RAES: 1.80
     2s    -20.229985    2.439742
     2p    -15.503117    2.137023
 16     Tue Apr 24 11:44:34 CEST 2018   EN: 2.580 GM2: 0.340  GM3:-0.0502  RAES: 3.10
     3s    -20.029654    1.981333
     3p    -11.377694    2.025643
     3d     -0.420282    1.702555
 no old-style atom pair restraining (fixing) potential

molecular fragmentation (1/2 indicates fragments):
11111222222222222222222222
# atoms in fragment 1/2:     5    21
 fragment masses (1/2) :       96.06      109.12
CMA distance (Bohr)    :   1.516
constraining FC (au)   :  0.0500
           ------------------------------------------------- 
          |        Self-Consistent Charge Iterations        |
           ------------------------------------------------- 

 Ncao       : 65
 Nao        : 64
 Nshell     : 38
 Nel        : 80
 T(el)      :   300.0
 intcut     :    25.0
 scfconv/Eh :  0.100E-05
   qconv/e  :  0.100E-03
 intneglect :  0.100E-07
 broydamp   :      0.250
 iter      E             dE          RMSdq      gap      omega  full diag
   1    -50.6068213 -0.506068E+02  0.697E+00   10.15       0.0  T
   2    -50.6454622 -0.386410E-01  0.501E+00    9.86       1.0  T
   3    -50.6761808 -0.307185E-01  0.110E+00    8.11       1.0  T
   4    -50.6808497 -0.466889E-02  0.477E-01    8.08       1.0  T
   5    -50.6814025 -0.552890E-03  0.255E-01    7.96       1.0  T
   6    -50.6817000 -0.297468E-03  0.125E-01    7.97       1.0  T
   7    -50.6817894 -0.893686E-04  0.486E-02    8.04       1.0  T
   8    -50.6818009 -0.114854E-04  0.274E-02    8.03       1.0  T
   9    -50.6818055 -0.467708E-05  0.115E-02    8.03       1.7  T
  10    -50.6818063 -0.703159E-06  0.215E-03    8.02       9.1  T
  11    -50.6818063 -0.212905E-07  0.848E-04    8.02      23.1  T
  12    -50.6818063 -0.349753E-08  0.318E-04    8.02      61.7  T
speedup  1.02
cpu  time for SCC    0.01 s
wall time for SCC    0.01 s

   *** convergence criteria satisfied after 12 iterations ***

          eigenvalues
 #    :          28         29         30         31         32         33         34         35
 occ. :        2.000      2.000      2.000      2.000      2.000      2.000      2.000      2.000
 eps  :       -12.117    -12.100    -12.078    -11.805    -11.058    -10.916    -10.616    -10.103
 #    :          36         37         38         39         40         41         42         43
 occ. :        2.000      2.000      2.000      2.000      2.000      0.000      0.000      0.000
 eps  :       -10.013     -9.765     -9.536     -9.450     -9.246     -1.222     -0.679      0.514
 #    :          44         45         46         47         48         49         50         51
 occ. :        0.000      0.000      0.000      0.000      0.000      0.000      0.000      0.000
 eps  :         1.711      2.083      2.445      2.900      2.988      3.814      4.484      5.358


   #   Z            q   n(s)   n(p)   n(d)      C6AA      α(0)
   1  16 S      1.502  1.609  1.894  0.995    93.408    16.266
   2   8 O     -0.809  1.783  5.026  0.000    31.851     7.567
   3   8 O     -0.787  1.779  5.009  0.000    31.197     7.489
   4   8 O     -0.788  1.778  5.011  0.000    31.237     7.493
   5   8 O     -0.808  1.782  5.026  0.000    31.839     7.565
   6   8 O     -0.618  1.727  4.891  0.000    25.610     6.830
   7   1 H      0.336  0.664  0.000  0.000     0.621     1.238
   8   1 H      0.289  0.711  0.000  0.000     0.756     1.366
   9   8 O     -0.617  1.727  4.890  0.000    25.596     6.828
  10   1 H      0.336  0.664  0.000  0.000     0.621     1.238
  11   1 H      0.289  0.711  0.000  0.000     0.756     1.366
  12   8 O     -0.629  1.728  4.901  0.000    25.880     6.866
  13   1 H      0.344  0.656  0.000  0.000     0.603     1.219
  14   1 H      0.288  0.712  0.000  0.000     0.757     1.367
  15   8 O     -0.418  1.638  4.780  0.000    21.140     6.210
  16   1 H      0.413  0.587  0.000  0.000     0.461     1.067
  17   1 H      0.409  0.591  0.000  0.000     0.469     1.076
  18   1 H      0.420  0.580  0.000  0.000     0.450     1.054
  19   8 O     -0.417  1.634  4.782  0.000    21.118     6.207
  20   1 H      0.412  0.588  0.000  0.000     0.463     1.069
  21   1 H      0.407  0.593  0.000  0.000     0.472     1.079
  22   1 H      0.399  0.601  0.000  0.000     0.487     1.097
  23   7 N     -0.467  1.382  4.085  0.000    32.330     8.445
  24   1 H      0.217  0.783  0.000  0.000     1.024     1.585
  25   1 H      0.148  0.852  0.000  0.000     1.411     1.861
  26   1 H      0.148  0.852  0.000  0.000     1.415     1.863

 Mol. C6AA /au·bohr⁶  :       5523.180353
 Mol. C8AA /au·bohr⁸  :     119979.955244
 Mol. α(0) /au        :        107.309723

 
 Wiberg/Mayer (AO) data. WBOs > 0.1 written file <wbo>
 largest (>0.05) Wiberg bond orders for each atom
           total WBO             WBO to atom ...
     1  S   4.991    O    3 1.296    O    4 1.281    O    5 1.190    O    2 1.190
     2  O   1.675    S    1 1.190    O    3 0.097    H   21 0.092    O    5 0.091    O    4 0.089    H    7 0.055
     3  O   1.643    S    1 1.296    O    2 0.097    O    4 0.095    O    5 0.091
     4  O   1.653    S    1 1.281    O    5 0.096    O    3 0.095    O    2 0.089    H   13 0.059
     5  O   1.675    S    1 1.190    O    4 0.096    H   17 0.094    O    2 0.091    O    3 0.091    H   10 0.054
     6  O   1.858    H    8 0.905    H    7 0.828    H   16 0.073
     7  H   0.887    O    6 0.828    O    2 0.055
     8  H   0.917    O    6 0.905
     9  O   1.858    H   11 0.904    H   10 0.829    H   20 0.073
    10  H   0.887    O    9 0.829    O    5 0.054
    11  H   0.917    O    9 0.904
    12  O   1.841    H   14 0.900    H   13 0.817    H   18 0.069
    13  H   0.882    O   12 0.817    O    4 0.059
    14  H   0.917    O   12 0.900
    15  O   2.330    H   16 0.750    H   18 0.745    H   17 0.732
    16  H   0.829    O   15 0.750    O    6 0.073
    17  H   0.833    O   15 0.732    O    5 0.094
    18  H   0.824    O   15 0.745    O   12 0.069
    19  O   2.330    H   20 0.750    H   22 0.736    H   21 0.734
    20  H   0.830    O   19 0.750    O    9 0.073
    21  H   0.834    O   19 0.734    O    2 0.092
    22  H   0.841    O   19 0.736    N   23 0.096
    23  N   3.019    H   25 0.974    H   26 0.973    H   24 0.911    H   22 0.096
    24  H   0.953    N   23 0.911
    25  H   0.978    N   23 0.974
    26  H   0.978    N   23 0.973
 MOs/occ written to file <molden.input>
 
molecular dipole:
                 x           y           z       tot (Debye)
 q only:       -1.506      -0.554       1.354
   full:       -0.977      -0.215       0.777       3.221
molecular quadrupole (traceless):
                xx          xy          yy          xz          yz          zz
 q only:        0.180     -15.698      10.938       4.747      -2.398     -11.118
  q+dip:        0.865      -9.423       5.131       6.602      -3.781      -5.995
   full:        0.963      -9.543       5.221       6.933      -3.619      -6.184

SCC energy    :     -50.6818063
rep           :       0.2898836
ES            :       0.3405143
AES           :      -0.0854270
AXC           :      -0.0086700
disp          :      -0.0182494
XB            :       0.0000000
fix           :       0.0000000
total E       :     -50.3918209
atomizationE  :       4.9221251     3088.68
(atE without considering molecular charge,
 total energy contains solvation terms)
H-L gap (eV)  :          8.0240
           ------------------------------------------------- 
          |                 ===============                 |
          |                   A N C O P T                   |
          |                 ===============                 |
          |          Approximate Normal Coordinate          |
          |           Rational Function Optimizer           |
           ------------------------------------------------- 
dumping coords to <xtbopt.coord> and <xtbopt.log>
 optlevel               2
 Maxcycle             520
 Maxmicro              25
 Econv         1.000000000000000E-007
 Gconv         2.000000000000000E-004
 Maxdispl       1.00000000000000     
 Hlow          5.000000000000000E-003
 S6             20.0000000000000     
 Nvar               72

generating ANC from model Hessian ...
 Shifting diagonal of input Hessian by   4.953792110205133E-003
 Lowest  eigenvalues of input Hessian
   -0.000000   -0.000000    0.000000    0.000000    0.000000    0.000000
    0.005000    0.005054    0.005131    0.005331    0.005554    0.006276
    0.006419    0.006736    0.006811    0.007046    0.007839    0.008004
 Highest eigenvalues
    1.556185    1.557271    1.559792    3.078474    3.079355    3.094089
 
cpu  time for ANC gen    0.01 s
wall time for ANC gen    0.01 s
................................................................................
.............................. CYCLE    1 ......................................
................................................................................
   1    -50.6818063 -0.506818E+02  0.796E-05    8.02       0.0  T
   2    -50.6818063 -0.137561E-10  0.618E-05    8.02     317.5  T
   3    -50.6818063 -0.103668E-10  0.321E-05    8.02     611.2  T
speedup  1.03
cpu  time for SCC    0.00 s
wall time for SCC    0.00 s
speedup  1.08
cpu  time for grad    0.01 s
wall time for grad    0.01 s
 E :    -50.39182091  G :  0.126295    pred/act E change:  0.000D+00  0.139D-07
Maxdispl :   0.2782   ||displ|| :   0.5535   Lambda : -0.309D-01
Largest |displ|/coords:  0.2782 (  26)  0.2300 (  25)  0.1561 (  29)
................................................................................
.............................. CYCLE    2 ......................................
................................................................................
   1    -50.6875483 -0.506875E+02  0.400E-01    8.34       0.0  T
   2    -50.6876961 -0.147772E-03  0.300E-01    8.40       1.0  T
   3    -50.6877799 -0.837968E-04  0.657E-02    8.54       1.0  T
   4    -50.6877981 -0.182604E-04  0.172E-02    8.55       1.1  T
   5    -50.6877988 -0.699751E-06  0.804E-03    8.54       2.4  T
   6    -50.6877990 -0.145584E-06  0.423E-03    8.54       4.6  T
   7    -50.6877991 -0.654243E-07  0.175E-03    8.53      11.2  T
speedup  1.11
cpu  time for SCC    0.01 s
wall time for SCC    0.01 s
speedup  1.00
cpu  time for grad    0.01 s
wall time for grad    0.01 s
 E :    -50.41787601  G :  0.078537    pred/act E change:  0.000D+00 -0.261D-01
Maxdispl :   0.2759   ||displ|| :   0.5700   Lambda : -0.201D-01
Largest |displ|/coords:  0.2759 (  26)  0.2392 (  25)  0.1882 (  29)
................................................................................
.............................. CYCLE    3 ......................................
................................................................................
   1    -50.6930393 -0.506930E+02  0.352E-01    8.75       0.0  T
   2    -50.6933511 -0.311792E-03  0.257E-01    8.79       1.0  T
   3    -50.6935030 -0.151880E-03  0.862E-02    8.89       1.0  T
   4    -50.6935229 -0.199301E-04  0.226E-02    8.91       1.0  T
   5    -50.6935239 -0.964779E-06  0.973E-03    8.90       2.0  T
   6    -50.6935241 -0.226411E-06  0.495E-03    8.90       4.0  T
   7    -50.6935242 -0.945807E-07  0.221E-03    8.90       8.9  T
speedup  0.95
cpu  time for SCC    0.01 s
wall time for SCC    0.01 s
speedup  0.99
cpu  time for grad    0.01 s
wall time for grad    0.01 s
 E :    -50.43363174  G :  0.051732    pred/act E change: -0.202D-01 -0.158D-01
Maxdispl :   0.2129   ||displ|| :   0.5158   Lambda : -0.900D-02
Largest |displ|/coords:  0.2129 (  11)  0.1664 (  25)  0.1620 (  16)
................................................................................
.............................. CYCLE    4 ......................................
................................................................................
   1    -50.6949716 -0.506950E+02  0.306E-01    9.03       0.0  T
   2    -50.6952549 -0.283321E-03  0.221E-01    9.06       1.0  T
   3    -50.6953859 -0.131015E-03  0.745E-02    9.12       1.0  T
   4    -50.6954019 -0.159897E-04  0.164E-02    9.13       1.2  T
   5    -50.6954024 -0.501960E-06  0.771E-03    9.12       2.5  T
   6    -50.6954025 -0.130726E-06  0.401E-03    9.12       4.9  T
   7    -50.6954026 -0.635641E-07  0.167E-03    9.12      11.8  T
speedup  1.11
cpu  time for SCC    0.01 s
wall time for SCC    0.01 s
speedup  1.00
cpu  time for grad    0.01 s
wall time for grad    0.01 s
 E :    -50.43986673  G :  0.045213    pred/act E change: -0.133D-01 -0.623D-02
Maxdispl :   0.2283   ||displ|| :   0.4895   Lambda : -0.500D-02
Largest |displ|/coords:  0.2283 (  11)  0.1619 (   9)  0.1406 (  17)
................................................................................
.............................. CYCLE    5 ......................................
................................................................................
   1    -50.6967161 -0.506967E+02  0.371E-01    9.24       0.0  T
   2    -50.6968330 -0.116823E-03  0.278E-01    9.27       1.0  T
   3    -50.6968883 -0.552969E-04  0.514E-02    9.34       1.0  T
   4    -50.6969061 -0.178571E-04  0.127E-02    9.33       1.5  T
   5    -50.6969065 -0.333036E-06  0.521E-03    9.33       3.8  T
   6    -50.6969065 -0.430296E-07  0.229E-03    9.32       8.6  T
speedup  0.88
cpu  time for SCC    0.00 s
wall time for SCC    0.01 s
speedup  0.96
cpu  time for grad    0.01 s
wall time for grad    0.01 s
 E :    -50.44345291  G :  0.036330    pred/act E change: -0.570D-02 -0.359D-02
Maxdispl :   0.2337   ||displ|| :   0.5643   Lambda : -0.474D-02
Largest |displ|/coords:  0.2337 (  12)  0.2318 (  11)  0.2167 (  13)
................................................................................
.............................. CYCLE    6 ......................................
................................................................................
   1    -50.7124786 -0.507125E+02  0.408E-01    9.39       0.0  T
   2    -50.7127010 -0.222373E-03  0.303E-01    9.43       1.0  T
   3    -50.7128130 -0.112068E-03  0.828E-02    9.49       1.0  T
   4    -50.7128346 -0.215746E-04  0.203E-02    9.48       1.0  T
   5    -50.7128360 -0.133547E-05  0.662E-03    9.48       3.0  T
   6    -50.7128360 -0.527451E-07  0.341E-03    9.48       5.8  T
   7    -50.7128360 -0.206082E-07  0.103E-03    9.48      19.1  T
speedup  0.95
cpu  time for SCC    0.01 s
wall time for SCC    0.01 s
speedup  0.99
cpu  time for grad    0.01 s
wall time for grad    0.01 s
 E :    -50.44441202  G :  0.039059    pred/act E change: -0.310D-02 -0.959D-03
Maxdispl :   0.1711   ||displ|| :   0.3996   Lambda : -0.420D-02
Largest |displ|/coords:  0.1711 (  10)  0.1406 (  17)  0.1339 (   5)
................................................................................
.............................. CYCLE    7 ......................................
................................................................................
   1    -50.7112659 -0.507113E+02  0.509E-01    9.46       0.0  T
   2    -50.7113354 -0.694236E-04  0.386E-01    9.47       1.0  T
   3    -50.7113917 -0.563714E-04  0.471E-02    9.49       1.0  T
   4    -50.7114008 -0.909080E-05  0.111E-02    9.49       1.8  T
   5    -50.7114009 -0.105944E-06  0.485E-03    9.49       4.0  T
   6    -50.7114010 -0.347200E-07  0.199E-03    9.49       9.8  T
speedup  1.09
cpu  time for SCC    0.01 s
wall time for SCC    0.01 s
speedup  0.92
cpu  time for grad    0.01 s
wall time for grad    0.01 s
 E :    -50.44664637  G :  0.024417    pred/act E change: -0.312D-02 -0.223D-02
Maxdispl :   0.1542   ||displ|| :   0.4069   Lambda : -0.246D-02
Largest |displ|/coords:  0.1542 (  15)  0.1412 (  17)  0.1260 (   5)
................................................................................
.............................. CYCLE    8 ......................................
................................................................................
   1    -50.6985084 -0.506985E+02  0.484E-01    9.41       0.0  T
   2    -50.6986376 -0.129120E-03  0.361E-01    9.40       1.0  T
   3    -50.6987034 -0.658442E-04  0.714E-02    9.39       1.0  T
   4    -50.6987209 -0.174837E-04  0.203E-02    9.40       1.0  T
   5    -50.6987220 -0.105737E-05  0.506E-03    9.40       3.9  T
   6    -50.6987220 -0.238143E-07  0.315E-03    9.40       6.2  T
speedup  0.73
cpu  time for SCC    0.00 s
wall time for SCC    0.01 s
speedup  0.92
cpu  time for grad    0.01 s
wall time for grad    0.01 s
 E :    -50.44570075  G :  0.059009    pred/act E change: -0.244D-02  0.946D-03
Maxdispl :   0.1643   ||displ|| :   0.4640   Lambda : -0.114D-01
Largest |displ|/coords:  0.1643 (  17)  0.1622 (  16)  0.1593 (  15)
................................................................................
.............................. CYCLE    9 ......................................
................................................................................
   1    -50.7181216 -0.507181E+02  0.771E-01    9.37       0.0  T
   2    -50.7184678 -0.346275E-03  0.581E-01    9.38       1.0  T
   3    -50.7187013 -0.233453E-03  0.106E-01    9.41       1.0  T
   4    -50.7187485 -0.472043E-04  0.214E-02    9.40       1.0  T
   5    -50.7187492 -0.664647E-06  0.104E-02    9.40       1.9  T
   6    -50.7187492 -0.638529E-07  0.462E-03    9.40       4.2  T
   7    -50.7187493 -0.417367E-07  0.841E-04    9.40      23.3  T
speedup  0.95
cpu  time for SCC    0.01 s
wall time for SCC    0.01 s
speedup  0.97
cpu  time for grad    0.01 s
wall time for grad    0.01 s
 E :    -50.44458781  G :  0.079563    pred/act E change: -0.144D-02  0.111D-02
Maxdispl :   0.1863   ||displ|| :   0.4309   Lambda : -0.107D-01
Largest |displ|/coords:  0.1863 (  12)  0.1799 (   3)  0.1463 (  10)
................................................................................
.............................. CYCLE   10 ......................................
................................................................................
   1    -50.7177924 -0.507178E+02  0.678E-01    9.41       0.0  T
   2    -50.7180356 -0.243112E-03  0.512E-01    9.41       1.0  T
   3    -50.7182027 -0.167121E-03  0.884E-02    9.39       1.0  T
   4    -50.7182364 -0.337198E-04  0.228E-02    9.40       1.0  T
   5    -50.7182373 -0.935579E-06  0.946E-03    9.40       2.1  T
   6    -50.7182374 -0.526820E-07  0.476E-03    9.40       4.1  T
   7    -50.7182374 -0.468784E-07  0.861E-04    9.40      22.8  T
speedup  0.95
cpu  time for SCC    0.01 s
wall time for SCC    0.01 s
speedup  0.99
cpu  time for grad    0.01 s
wall time for grad    0.01 s
 E :    -50.44658523  G :  0.057286    pred/act E change: -0.690D-02 -0.200D-02
Maxdispl :   0.1547   ||displ|| :   0.3271   Lambda : -0.455D-02
Largest |displ|/coords:  0.1547 (   3)  0.1292 (  10)  0.0870 (  21)
................................................................................
.............................. CYCLE   11 ......................................
................................................................................
   1    -50.7132798 -0.507133E+02  0.400E-01    9.33       0.0  T
   2    -50.7133468 -0.669994E-04  0.300E-01    9.33       1.0  T
   3    -50.7133924 -0.455400E-04  0.477E-02    9.33       1.0  T
   4    -50.7134012 -0.884502E-05  0.132E-02    9.33       1.5  T
   5    -50.7134015 -0.280792E-06  0.496E-03    9.33       4.0  T
   6    -50.7134015 -0.243331E-07  0.269E-03    9.33       7.3  T
speedup  1.13
cpu  time for SCC    0.01 s
wall time for SCC    0.01 s
speedup  1.05
cpu  time for grad    0.01 s
wall time for grad    0.01 s
 E :    -50.44838925  G :  0.027867    pred/act E change: -0.633D-02 -0.180D-02
Maxdispl :   0.0943   ||displ|| :   0.2522   Lambda : -0.174D-02
Largest |displ|/coords:  0.0943 (   3)  0.0814 (   5)  0.0747 (   9)
................................................................................
.............................. CYCLE   12 ......................................
................................................................................
   1    -50.7156080 -0.507156E+02  0.281E-01    9.35       0.0  T
   2    -50.7156869 -0.789530E-04  0.210E-01    9.35       1.0  T
   3    -50.7157257 -0.387411E-04  0.487E-02    9.36       1.0  T
   4    -50.7157369 -0.112661E-04  0.127E-02    9.36       1.5  T
   5    -50.7157373 -0.385003E-06  0.502E-03    9.36       3.9  T
   6    -50.7157373 -0.221757E-07  0.281E-03    9.36       7.0  T
speedup  0.89
cpu  time for SCC    0.00 s
wall time for SCC    0.01 s
speedup  0.97
cpu  time for grad    0.01 s
wall time for grad    0.01 s
 E :    -50.44905810  G :  0.034291    pred/act E change: -0.252D-02 -0.669D-03
Maxdispl :   0.1478   ||displ|| :   0.3283   Lambda : -0.208D-02
Largest |displ|/coords:  0.1478 (   3)  0.1346 (   1)  0.1132 (   4)
................................................................................
.............................. CYCLE   13 ......................................
................................................................................
   1    -50.7254353 -0.507254E+02  0.299E-01    9.40       0.0  T
   2    -50.7255557 -0.120410E-03  0.222E-01    9.40       1.0  T
   3    -50.7256221 -0.663989E-04  0.608E-02    9.40       1.0  T
   4    -50.7256356 -0.134848E-04  0.141E-02    9.41       1.4  T
   5    -50.7256361 -0.481458E-06  0.700E-03    9.41       2.8  T
   6    -50.7256361 -0.485951E-07  0.364E-03    9.41       5.4  T
   7    -50.7256362 -0.240095E-07  0.782E-04    9.41      25.1  T
speedup  0.97
cpu  time for SCC    0.01 s
wall time for SCC    0.01 s
speedup  1.00
cpu  time for grad    0.01 s
wall time for grad    0.01 s
 E :    -50.44922182  G :  0.030540    pred/act E change: -0.926D-03 -0.164D-03
Maxdispl :   0.0635   ||displ|| :   0.1575   Lambda : -0.183D-02
Largest |displ|/coords:  0.0635 (   4)  0.0486 (  29)  0.0481 (  21)
................................................................................
.............................. CYCLE   14 ......................................
................................................................................
   1    -50.7238575 -0.507239E+02  0.134E-01    9.37       0.0  T
   2    -50.7238805 -0.230192E-04  0.976E-02    9.37       1.0  T
   3    -50.7238925 -0.119738E-04  0.282E-02    9.36       1.0  T
   4    -50.7238944 -0.193663E-05  0.682E-03    9.36       2.9  T
   5    -50.7238945 -0.106693E-06  0.304E-03    9.36       6.4  T
   6    -50.7238945 -0.148048E-07  0.150E-03    9.36      13.1  T
speedup  1.07
cpu  time for SCC    0.01 s
wall time for SCC    0.01 s
speedup  1.03
cpu  time for grad    0.01 s
wall time for grad    0.01 s
 E :    -50.45011989  G :  0.020638    pred/act E change: -0.115D-02 -0.898D-03
Maxdispl :   0.1207   ||displ|| :   0.2722   Lambda : -0.139D-02
Largest |displ|/coords:  0.1207 (  10)  0.0957 (  11)  0.0957 (   3)
................................................................................
.............................. CYCLE   15 ......................................
................................................................................
   1    -50.7201495 -0.507201E+02  0.262E-01    9.27       0.0  T
   2    -50.7201952 -0.456868E-04  0.195E-01    9.27       1.0  T
   3    -50.7202203 -0.250583E-04  0.386E-02    9.26       1.0  T
   4    -50.7202268 -0.651691E-05  0.121E-02    9.26       1.6  T
   5    -50.7202271 -0.287949E-06  0.464E-03    9.26       4.2  T
   6    -50.7202271 -0.268363E-07  0.267E-03    9.26       7.3  T
speedup  0.91
cpu  time for SCC    0.00 s
wall time for SCC    0.01 s
speedup  0.98
cpu  time for grad    0.01 s
wall time for grad    0.01 s
 E :    -50.45024762  G :  0.032294    pred/act E change: -0.936D-03 -0.128D-03
Maxdispl :   0.0967   ||displ|| :   0.1583   Lambda : -0.127D-02
Largest |displ|/coords:  0.0967 (   3)  0.0654 (  10)  0.0572 (   1)
................................................................................
.............................. CYCLE   16 ......................................
................................................................................
   1    -50.7260449 -0.507260E+02  0.162E-01    9.28       0.0  T
   2    -50.7260628 -0.179693E-04  0.121E-01    9.28       1.0  T
   3    -50.7260740 -0.111656E-04  0.242E-02    9.28       1.0  T
   4    -50.7260764 -0.243274E-05  0.694E-03    9.28       2.8  T
   5    -50.7260765 -0.894853E-07  0.281E-03    9.28       7.0  T
   6    -50.7260765 -0.768331E-08  0.161E-03    9.28      12.2  T
speedup  0.93
cpu  time for SCC    0.01 s
wall time for SCC    0.01 s
speedup  0.98
cpu  time for grad    0.01 s
wall time for grad    0.01 s
 E :    -50.45094892  G :  0.012987    pred/act E change: -0.749D-03 -0.701D-03
Maxdispl :   0.0946   ||displ|| :   0.1836   Lambda : -0.504D-03
Largest |displ|/coords:  0.0946 (   2)  0.0702 (   1)  0.0644 (   6)
................................................................................
.............................. CYCLE   17 ......................................
................................................................................
   1    -50.7282327 -0.507282E+02  0.143E-01    9.28       0.0  T
   2    -50.7282475 -0.148788E-04  0.107E-01    9.28       1.0  T
   3    -50.7282560 -0.848318E-05  0.216E-02    9.28       1.0  T
   4    -50.7282581 -0.211244E-05  0.560E-03    9.29       3.5  T
   5    -50.7282582 -0.613999E-07  0.264E-03    9.29       7.4  T
   6    -50.7282582 -0.852013E-08  0.152E-03    9.29      12.9  T
speedup  0.93
cpu  time for SCC    0.00 s
wall time for SCC    0.01 s
speedup  0.98
cpu  time for grad    0.01 s
wall time for grad    0.01 s
 E :    -50.45111266  G :  0.017657    pred/act E change: -0.651D-03 -0.164D-03
Maxdispl :   0.0622   ||displ|| :   0.1543   Lambda : -0.580D-03
Largest |displ|/coords:  0.0622 (   2)  0.0601 (   5)  0.0548 (   1)
................................................................................
.............................. CYCLE   18 ......................................
................................................................................
   1    -50.7308774 -0.507309E+02  0.905E-02    9.24       0.0  T
   2    -50.7308875 -0.100571E-04  0.660E-02    9.24       1.0  T
   3    -50.7308932 -0.568613E-05  0.175E-02    9.25       1.1  T
   4    -50.7308941 -0.914205E-06  0.497E-03    9.25       3.9  T
   5    -50.7308941 -0.575513E-07  0.194E-03    9.25      10.1  T
   6    -50.7308941 -0.622830E-08  0.106E-03    9.25      18.5  T
speedup  1.07
cpu  time for SCC    0.01 s
wall time for SCC    0.01 s
speedup  1.04
cpu  time for grad    0.01 s
wall time for grad    0.01 s
 E :    -50.45134407  G :  0.013453    pred/act E change: -0.261D-03 -0.231D-03
Maxdispl :   0.0971   ||displ|| :   0.1747   Lambda : -0.558D-03
Largest |displ|/coords:  0.0971 (   2)  0.0646 (   4)  0.0458 (   8)
................................................................................
.............................. CYCLE   19 ......................................
................................................................................
   1    -50.7295489 -0.507295E+02  0.152E-01    9.20       0.0  T
   2    -50.7295607 -0.118745E-04  0.113E-01    9.20       1.0  T
   3    -50.7295682 -0.740804E-05  0.206E-02    9.20       1.0  T
   4    -50.7295699 -0.175267E-05  0.729E-03    9.20       2.7  T
   5    -50.7295700 -0.682760E-07  0.257E-03    9.20       7.6  T
   6    -50.7295700 -0.950666E-08  0.156E-03    9.20      12.6  T
speedup  0.91
cpu  time for SCC    0.00 s
wall time for SCC    0.01 s
speedup  0.98
cpu  time for grad    0.01 s
wall time for grad    0.01 s
 E :    -50.45154887  G :  0.013268    pred/act E change: -0.297D-03 -0.205D-03
Maxdispl :   0.0618   ||displ|| :   0.1551   Lambda : -0.435D-03
Largest |displ|/coords:  0.0618 (   4)  0.0611 (   3)  0.0471 (   2)
................................................................................
.............................. CYCLE   20 ......................................
................................................................................
   1    -50.7279416 -0.507279E+02  0.109E-01    9.20       0.0  T
   2    -50.7279473 -0.573083E-05  0.808E-02    9.20       1.0  T
   3    -50.7279509 -0.353403E-05  0.137E-02    9.20       1.4  T
   4    -50.7279516 -0.784382E-06  0.362E-03    9.20       5.4  T
   5    -50.7279517 -0.215723E-07  0.152E-03    9.20      12.9  T
   6    -50.7279517 -0.300813E-08  0.860E-04    9.20      22.8  T
speedup  0.91
cpu  time for SCC    0.00 s
wall time for SCC    0.01 s
speedup  0.98
cpu  time for grad    0.01 s
wall time for grad    0.01 s
 E :    -50.45182607  G :  0.009631    pred/act E change: -0.288D-03 -0.277D-03
Maxdispl :   0.1469   ||displ|| :   0.2822   Lambda : -0.634D-03
Largest |displ|/coords:  0.1469 (   2)  0.1005 (   7)  0.0811 (  12)
................................................................................
.............................. CYCLE   21 ......................................
................................................................................
   1    -50.7245344 -0.507245E+02  0.208E-01    9.18       0.0  T
   2    -50.7245556 -0.211871E-04  0.154E-01    9.19       1.0  T
   3    -50.7245673 -0.116837E-04  0.274E-02    9.20       1.0  T
   4    -50.7245700 -0.278194E-05  0.831E-03    9.19       2.4  T
   5    -50.7245702 -0.102717E-06  0.293E-03    9.19       6.7  T
   6    -50.7245702 -0.879131E-08  0.176E-03    9.19      11.1  T
speedup  1.11
cpu  time for SCC    0.01 s
wall time for SCC    0.01 s
speedup  1.06
cpu  time for grad    0.01 s
wall time for grad    0.01 s
 E :    -50.45208216  G :  0.018186    pred/act E change: -0.223D-03 -0.256D-03
Maxdispl :   0.0831   ||displ|| :   0.1910   Lambda : -0.520D-03
Largest |displ|/coords:  0.0831 (   2)  0.0716 (  12)  0.0642 (   5)
................................................................................
.............................. CYCLE   22 ......................................
................................................................................
   1    -50.7288848 -0.507289E+02  0.124E-01    9.21       0.0  T
   2    -50.7288963 -0.114874E-04  0.933E-02    9.21       1.0  T
   3    -50.7289035 -0.724338E-05  0.217E-02    9.21       1.0  T
   4    -50.7289050 -0.148891E-05  0.852E-03    9.21       2.3  T
   5    -50.7289051 -0.810398E-07  0.215E-03    9.21       9.1  T
   6    -50.7289051 -0.582880E-08  0.133E-03    9.21      14.7  T
speedup  0.93
cpu  time for SCC    0.01 s
wall time for SCC    0.01 s
speedup  0.98
cpu  time for grad    0.01 s
wall time for grad    0.01 s
 E :    -50.45230222  G :  0.015273    pred/act E change: -0.342D-03 -0.220D-03
Maxdispl :   0.1015   ||displ|| :   0.1751   Lambda : -0.478D-03
Largest |displ|/coords:  0.1015 (   2)  0.0502 (   4)  0.0499 (  17)
................................................................................
.............................. CYCLE   23 ......................................
................................................................................
   1    -50.7270509 -0.507271E+02  0.149E-01    9.20       0.0  T
   2    -50.7270651 -0.141400E-04  0.111E-01    9.20       1.0  T
   3    -50.7270719 -0.685375E-05  0.216E-02    9.20       1.0  T
   4    -50.7270740 -0.206352E-05  0.759E-03    9.20       2.6  T
   5    -50.7270741 -0.804419E-07  0.227E-03    9.20       8.6  T
   6    -50.7270741 -0.675976E-08  0.127E-03    9.20      15.4  T
speedup  0.93
cpu  time for SCC    0.00 s
wall time for SCC    0.01 s
speedup  0.96
cpu  time for grad    0.01 s
wall time for grad    0.01 s
 E :    -50.45243798  G :  0.015219    pred/act E change: -0.269D-03 -0.136D-03
Maxdispl :   0.0441   ||displ|| :   0.0952   Lambda : -0.360D-03
Largest |displ|/coords:  0.0441 (   7)  0.0336 (   4)  0.0286 (   6)
................................................................................
.............................. CYCLE   24 ......................................
................................................................................
   1    -50.7286900 -0.507287E+02  0.856E-02    9.23       0.0  T
   2    -50.7286927 -0.266419E-05  0.638E-02    9.23       1.0  T
   3    -50.7286943 -0.163553E-05  0.101E-02    9.22       1.9  T
   4    -50.7286947 -0.338686E-06  0.242E-03    9.23       8.1  T
   5    -50.7286947 -0.155671E-07  0.909E-04    9.23      21.6  T
speedup  0.89
cpu  time for SCC    0.00 s
wall time for SCC    0.00 s
speedup  0.96
cpu  time for grad    0.01 s
wall time for grad    0.01 s
 E :    -50.45262040  G :  0.009609    pred/act E change: -0.246D-03 -0.182D-03
Maxdispl :   0.0552   ||displ|| :   0.1402   Lambda : -0.271D-03
Largest |displ|/coords:  0.0552 (   7)  0.0500 (   2)  0.0496 (   5)
................................................................................
.............................. CYCLE   25 ......................................
................................................................................
   1    -50.7278363 -0.507278E+02  0.112E-01    9.24       0.0  T
   2    -50.7278424 -0.610325E-05  0.839E-02    9.24       1.0  T
   3    -50.7278454 -0.300143E-05  0.135E-02    9.25       1.5  T
   4    -50.7278464 -0.940745E-06  0.408E-03    9.25       4.8  T
   5    -50.7278464 -0.205698E-07  0.127E-03    9.25      15.5  T
   6    -50.7278464 -0.117409E-08  0.623E-04    9.25      31.5  T
speedup  0.93
cpu  time for SCC    0.00 s
wall time for SCC    0.01 s
speedup  0.98
cpu  time for grad    0.01 s
wall time for grad    0.01 s
 E :    -50.45275943  G :  0.010459    pred/act E change: -0.182D-03 -0.139D-03
Maxdispl :   0.0881   ||displ|| :   0.1853   Lambda : -0.251D-03
Largest |displ|/coords:  0.0881 (   2)  0.0712 (   4)  0.0538 (  19)

generating ANC from model Hessian ...
 Shifting diagonal of input Hessian by   4.736187681777743E-003
 Lowest  eigenvalues of input Hessian
   -0.000000   -0.000000   -0.000000   -0.000000    0.000000    0.000000
    0.005000    0.005067    0.005106    0.005339    0.005531    0.006422
    0.007429    0.007487    0.007695    0.008364    0.010010    0.012779
 Highest eigenvalues
    1.395867    1.405934    1.417753    2.663579    3.328558    3.741888
 
cpu  time for ANC gen    0.01 s
wall time for ANC gen    0.01 s
................................................................................
.............................. CYCLE   26 ......................................
................................................................................
   1    -50.7276779 -0.507277E+02  0.123E-01    9.25       0.0  T
   2    -50.7276861 -0.817149E-05  0.929E-02    9.25       1.0  T
   3    -50.7276893 -0.326020E-05  0.168E-02    9.25       1.2  T
   4    -50.7276909 -0.154917E-05  0.504E-03    9.25       3.9  T
   5    -50.7276909 -0.270156E-07  0.142E-03    9.25      13.8  T
   6    -50.7276909 -0.184591E-08  0.770E-04    9.25      25.5  T
   7    -50.7276909 -0.912735E-09  0.192E-04    9.25     102.2  T
speedup  0.98
cpu  time for SCC    0.01 s
wall time for SCC    0.01 s
speedup  1.03
cpu  time for grad    0.01 s
wall time for grad    0.01 s
 E :    -50.45290147  G :  0.012898    pred/act E change:  0.000D+00 -0.142D-03
Maxdispl :   0.1150   ||displ|| :   0.1859   Lambda : -0.508D-03
Largest |displ|/coords:  0.1150 (   1)  0.0747 (   6)  0.0505 (  17)
................................................................................
.............................. CYCLE   27 ......................................
................................................................................
   1    -50.7282138 -0.507282E+02  0.207E-01    9.25       0.0  T
   2    -50.7282186 -0.482139E-05  0.157E-01    9.26       1.0  T
   3    -50.7282241 -0.541756E-05  0.107E-02    9.26       1.8  T
   4    -50.7282244 -0.335597E-06  0.392E-03    9.26       5.0  T
   5    -50.7282244 -0.123133E-07  0.158E-03    9.26      12.5  T
   6    -50.7282244 -0.129788E-08  0.657E-04    9.26      29.8  T
speedup  1.11
cpu  time for SCC    0.01 s
wall time for SCC    0.01 s
speedup  1.04
cpu  time for grad    0.01 s
wall time for grad    0.01 s
 E :    -50.45328316  G :  0.006901    pred/act E change:  0.000D+00 -0.382D-03
Maxdispl :   0.2674   ||displ|| :   0.3675   Lambda : -0.589D-03
Largest |displ|/coords:  0.2674 (   1)  0.1345 (   7)  0.0953 (  17)
................................................................................
.............................. CYCLE   28 ......................................
................................................................................
   1    -50.7247226 -0.507247E+02  0.369E-01    9.26       0.0  T
   2    -50.7247386 -0.160880E-04  0.279E-01    9.26       1.0  T
   3    -50.7247565 -0.178790E-04  0.207E-02    9.26       1.0  T
   4    -50.7247579 -0.133123E-05  0.663E-03    9.26       3.0  T
   5    -50.7247579 -0.240168E-07  0.363E-03    9.26       5.4  T
   6    -50.7247579 -0.213923E-07  0.113E-03    9.26      17.4  T
   7    -50.7247579 -0.439709E-08  0.290E-04    9.26      67.6  T
speedup  0.97
cpu  time for SCC    0.01 s
wall time for SCC    0.01 s
speedup  0.99
cpu  time for grad    0.01 s
wall time for grad    0.01 s
 E :    -50.45343211  G :  0.024138    pred/act E change: -0.263D-03 -0.149D-03
Maxdispl :   0.0748   ||displ|| :   0.1385   Lambda : -0.704D-03
Largest |displ|/coords:  0.0748 (   5)  0.0593 (   2)  0.0470 (  14)
................................................................................
.............................. CYCLE   29 ......................................
................................................................................
   1    -50.7272344 -0.507272E+02  0.139E-01    9.26       0.0  T
   2    -50.7272428 -0.845903E-05  0.104E-01    9.26       1.0  T
   3    -50.7272492 -0.638627E-05  0.167E-02    9.26       1.2  T
   4    -50.7272504 -0.113440E-05  0.439E-03    9.26       4.5  T
   5    -50.7272504 -0.249418E-07  0.204E-03    9.26       9.6  T
speedup  0.91
cpu  time for SCC    0.01 s
wall time for SCC    0.01 s
speedup  0.90
cpu  time for grad    0.01 s
wall time for grad    0.01 s
 E :    -50.45380027  G :  0.007949    pred/act E change: -0.334D-03 -0.368D-03
Maxdispl :   0.1422   ||displ|| :   0.2081   Lambda : -0.293D-03
Largest |displ|/coords:  0.1422 (   1)  0.0522 (   2)  0.0507 (  14)
................................................................................
.............................. CYCLE   30 ......................................
................................................................................
   1    -50.7274495 -0.507274E+02  0.142E-01    9.26       0.0  T
   2    -50.7274516 -0.215239E-05  0.107E-01    9.27       1.0  T
   3    -50.7274542 -0.253803E-05  0.865E-03    9.27       2.3  T
   4    -50.7274543 -0.147875E-06  0.322E-03    9.27       6.1  T
   5    -50.7274543 -0.118610E-07  0.125E-03    9.27      15.7  T
   6    -50.7274543 -0.202510E-08  0.606E-04    9.27      32.4  T
speedup  0.98
cpu  time for SCC    0.01 s
wall time for SCC    0.01 s
speedup  0.99
cpu  time for grad    0.01 s
wall time for grad    0.01 s
 E :    -50.45403845  G :  0.006315    pred/act E change: -0.359D-03 -0.238D-03
Maxdispl :   0.4091   ||displ|| :   0.5342   Lambda : -0.592D-03
Largest |displ|/coords:  0.4091 (   1)  0.1725 (   5)  0.1273 (  17)
................................................................................
.............................. CYCLE   31 ......................................
................................................................................
   1    -50.7235364 -0.507235E+02  0.350E-01    9.28       0.0  T
   2    -50.7235520 -0.155419E-04  0.264E-01    9.28       1.0  T
   3    -50.7235710 -0.190314E-04  0.221E-02    9.28       1.0  T
   4    -50.7235720 -0.100220E-05  0.759E-03    9.27       2.6  T
   5    -50.7235721 -0.585161E-07  0.377E-03    9.27       5.2  T
   6    -50.7235721 -0.231929E-07  0.151E-03    9.27      13.0  T
   7    -50.7235721 -0.568913E-08  0.430E-04    9.27      45.6  T
speedup  0.97
cpu  time for SCC    0.01 s
wall time for SCC    0.01 s
speedup  1.00
cpu  time for grad    0.01 s
wall time for grad    0.01 s
 E :    -50.45437349  G :  0.016876    pred/act E change: -0.153D-03 -0.335D-03
Maxdispl :   0.2411   ||displ|| :   0.3582   Lambda : -0.765D-03
Largest |displ|/coords:  0.2411 (   1)  0.1344 (   3)  0.1035 (  17)
................................................................................
.............................. CYCLE   32 ......................................
................................................................................
   1    -50.7276975 -0.507277E+02  0.195E-01    9.29       0.0  T
   2    -50.7277194 -0.219075E-04  0.146E-01    9.30       1.0  T
   3    -50.7277376 -0.182502E-04  0.277E-02    9.30       1.0  T
   4    -50.7277401 -0.250003E-05  0.744E-03    9.29       2.6  T
   5    -50.7277402 -0.930692E-07  0.354E-03    9.29       5.5  T
   6    -50.7277402 -0.117218E-07  0.167E-03    9.29      11.7  T
   7    -50.7277403 -0.651063E-08  0.373E-04    9.29      52.6  T
speedup  0.97
cpu  time for SCC    0.01 s
wall time for SCC    0.01 s
speedup  1.00
cpu  time for grad    0.01 s
wall time for grad    0.01 s
 E :    -50.45404122  G :  0.033049    pred/act E change: -0.380D-03  0.332D-03
Maxdispl :   0.0871   ||displ|| :   0.1607   Lambda : -0.146D-02
Largest |displ|/coords:  0.0871 (   2)  0.0671 (   5)  0.0488 (  17)
................................................................................
.............................. CYCLE   33 ......................................
................................................................................
   1    -50.7240948 -0.507241E+02  0.173E-01    9.29       0.0  T
   2    -50.7241171 -0.223099E-04  0.129E-01    9.29       1.0  T
   3    -50.7241323 -0.152135E-04  0.269E-02    9.29       1.0  T
   4    -50.7241349 -0.264330E-05  0.661E-03    9.29       3.0  T
   5    -50.7241350 -0.799599E-07  0.288E-03    9.29       6.8  T
   6    -50.7241350 -0.699715E-08  0.153E-03    9.29      12.8  T
speedup  0.93
cpu  time for SCC    0.01 s
wall time for SCC    0.01 s
speedup  0.98
cpu  time for grad    0.01 s
wall time for grad    0.01 s
 E :    -50.45464105  G :  0.015218    pred/act E change: -0.432D-03 -0.600D-03
Maxdispl :   0.1305   ||displ|| :   0.2637   Lambda : -0.118D-02
Largest |displ|/coords:  0.1305 (  14)  0.1216 (   5)  0.0827 (   1)
................................................................................
.............................. CYCLE   34 ......................................
................................................................................
   1    -50.7270776 -0.507271E+02  0.280E-01    9.31       0.0  T
   2    -50.7271435 -0.659310E-04  0.208E-01    9.31       1.0  T
   3    -50.7271884 -0.449335E-04  0.456E-02    9.30       1.0  T
   4    -50.7271963 -0.781063E-05  0.916E-03    9.30       2.1  T
   5    -50.7271963 -0.861665E-07  0.505E-03    9.30       3.9  T
   6    -50.7271964 -0.220598E-07  0.167E-03    9.30      11.8  T
   7    -50.7271964 -0.593131E-08  0.406E-04    9.30      48.3  T
speedup  1.11
cpu  time for SCC    0.01 s
wall time for SCC    0.01 s
speedup  1.06
cpu  time for grad    0.01 s
wall time for grad    0.01 s
 E :    -50.45332153  G :  0.053708    pred/act E change: -0.750D-03  0.132D-02
Maxdispl :   0.1460   ||displ|| :   0.3498   Lambda : -0.673D-02
Largest |displ|/coords:  0.1460 (  14)  0.1271 (   5)  0.1058 (  17)
................................................................................
.............................. CYCLE   35 ......................................
................................................................................
   1    -50.7190215 -0.507190E+02  0.443E-01    9.28       0.0  T
   2    -50.7192076 -0.186093E-03  0.328E-01    9.29       1.0  T
   3    -50.7193276 -0.120041E-03  0.767E-02    9.30       1.0  T
   4    -50.7193480 -0.203546E-04  0.144E-02    9.29       1.4  T
   5    -50.7193482 -0.203572E-06  0.792E-03    9.29       2.5  T
   6    -50.7193482 -0.647231E-07  0.269E-03    9.29       7.3  T
   7    -50.7193483 -0.144999E-07  0.737E-04    9.29      26.6  T
speedup  0.95
cpu  time for SCC    0.01 s
wall time for SCC    0.01 s
speedup  0.92
cpu  time for grad    0.01 s
wall time for grad    0.01 s
 E :    -50.45247191  G :  0.062789    pred/act E change: -0.630D-03  0.850D-03
Maxdispl :   0.1501   ||displ|| :   0.3607   Lambda : -0.889D-02
Largest |displ|/coords:  0.1501 (  14)  0.1404 (  16)  0.1337 (  17)
................................................................................
.............................. CYCLE   36 ......................................
................................................................................
   1    -50.7329767 -0.507330E+02  0.483E-01    9.33       0.0  T
   2    -50.7331570 -0.180265E-03  0.359E-01    9.33       1.0  T
   3    -50.7332776 -0.120654E-03  0.761E-02    9.32       1.0  T
   4    -50.7332983 -0.206426E-04  0.138E-02    9.33       1.4  T
   5    -50.7332985 -0.238054E-06  0.810E-03    9.33       2.4  T
   6    -50.7332986 -0.529991E-07  0.303E-03    9.33       6.5  T
   7    -50.7332986 -0.188871E-07  0.762E-04    9.33      25.7  T
speedup  0.94
cpu  time for SCC    0.01 s
wall time for SCC    0.01 s
speedup  0.99
cpu  time for grad    0.01 s
wall time for grad    0.01 s
 E :    -50.45351069  G :  0.050301    pred/act E change: -0.378D-02 -0.104D-02
Maxdispl :   0.0914   ||displ|| :   0.2023   Lambda : -0.348D-02
Largest |displ|/coords:  0.0914 (   6)  0.0648 (   1)  0.0612 (   8)
................................................................................
.............................. CYCLE   37 ......................................
................................................................................
   1    -50.7227707 -0.507228E+02  0.250E-01    9.31       0.0  T
   2    -50.7228207 -0.500517E-04  0.186E-01    9.31       1.0  T
   3    -50.7228535 -0.327710E-04  0.400E-02    9.31       1.0  T
   4    -50.7228591 -0.566705E-05  0.784E-03    9.31       2.5  T
   5    -50.7228592 -0.626843E-07  0.406E-03    9.31       4.8  T
   6    -50.7228592 -0.208895E-07  0.159E-03    9.31      12.3  T
speedup  0.91
cpu  time for SCC    0.01 s
wall time for SCC    0.01 s
speedup  0.98
cpu  time for grad    0.01 s
wall time for grad    0.01 s
 E :    -50.45462145  G :  0.021285    pred/act E change: -0.502D-02 -0.111D-02
Maxdispl :   0.0678   ||displ|| :   0.1093   Lambda : -0.615D-03
Largest |displ|/coords:  0.0678 (   6)  0.0408 (   8)  0.0314 (   2)
................................................................................
.............................. CYCLE   38 ......................................
................................................................................
   1    -50.7280204 -0.507280E+02  0.832E-02    9.32       0.0  T
   2    -50.7280267 -0.621927E-05  0.616E-02    9.32       1.0  T
   3    -50.7280310 -0.435314E-05  0.138E-02    9.32       1.4  T
   4    -50.7280317 -0.698744E-06  0.331E-03    9.32       5.9  T
   5    -50.7280317 -0.123054E-07  0.157E-03    9.32      12.5  T
speedup  1.09
cpu  time for SCC    0.00 s
wall time for SCC    0.00 s
speedup  0.97
cpu  time for grad    0.01 s
wall time for grad    0.01 s
 E :    -50.45487257  G :  0.004435    pred/act E change: -0.181D-02 -0.251D-03
Maxdispl :   0.1575   ||displ|| :   0.1851   Lambda : -0.226D-03
Largest |displ|/coords:  0.1575 (   1)  0.0570 (   2)  0.0389 (   5)
................................................................................
.............................. CYCLE   39 ......................................
................................................................................
   1    -50.7263565 -0.507264E+02  0.106E-01    9.33       0.0  T
   2    -50.7263599 -0.344382E-05  0.800E-02    9.33       1.0  T
   3    -50.7263630 -0.308069E-05  0.102E-02    9.33       1.9  T
   4    -50.7263634 -0.429566E-06  0.290E-03    9.33       6.8  T
   5    -50.7263634 -0.715080E-08  0.144E-03    9.33      13.6  T
speedup  0.89
cpu  time for SCC    0.00 s
wall time for SCC    0.00 s
speedup  0.98
cpu  time for grad    0.01 s
wall time for grad    0.01 s
 E :    -50.45499044  G :  0.009980    pred/act E change: -0.311D-03 -0.118D-03
Maxdispl :   0.1475   ||displ|| :   0.1873   Lambda : -0.153D-03
Largest |displ|/coords:  0.1475 (   1)  0.0589 (   2)  0.0468 (   3)
................................................................................
.............................. CYCLE   40 ......................................
................................................................................
   1    -50.7250381 -0.507250E+02  0.975E-02    9.33       0.0  T
   2    -50.7250396 -0.152325E-05  0.736E-02    9.33       1.0  T
   3    -50.7250414 -0.175831E-05  0.689E-03    9.33       2.8  T
   4    -50.7250415 -0.114560E-06  0.219E-03    9.33       9.0  T
   5    -50.7250415 -0.455803E-08  0.102E-03    9.33      19.2  T
speedup  0.89
cpu  time for SCC    0.00 s
wall time for SCC    0.00 s
speedup  0.96
cpu  time for grad    0.01 s
wall time for grad    0.01 s
 E :    -50.45511952  G :  0.010533    pred/act E change: -0.117D-03 -0.129D-03
Maxdispl :   0.3403   ||displ|| :   0.4468   Lambda : -0.355D-03
Largest |displ|/coords:  0.3403 (   1)  0.1411 (   3)  0.1351 (   2)
................................................................................
.............................. CYCLE   41 ......................................
................................................................................
   1    -50.7229898 -0.507230E+02  0.214E-01    9.35       0.0  T
   2    -50.7229968 -0.700095E-05  0.161E-01    9.35       1.0  T
   3    -50.7230053 -0.850958E-05  0.148E-02    9.35       1.3  T
   4    -50.7230057 -0.440542E-06  0.444E-03    9.35       4.4  T
   5    -50.7230057 -0.220872E-07  0.235E-03    9.35       8.4  T
   6    -50.7230057 -0.100451E-07  0.773E-04    9.35      25.4  T
speedup  0.93
cpu  time for SCC    0.00 s
wall time for SCC    0.01 s
speedup  0.98
cpu  time for grad    0.01 s
wall time for grad    0.01 s
 E :    -50.45534682  G :  0.012938    pred/act E change: -0.794D-04 -0.227D-03
Maxdispl :   0.1641   ||displ|| :   0.2370   Lambda : -0.227D-03
Largest |displ|/coords:  0.1641 (   1)  0.0889 (   3)  0.0798 (   2)
................................................................................
.............................. CYCLE   42 ......................................
................................................................................
   1    -50.7245279 -0.507245E+02  0.100E-01    9.37       0.0  T
   2    -50.7245294 -0.150108E-05  0.756E-02    9.37       1.0  T
   3    -50.7245314 -0.194788E-05  0.672E-03    9.37       2.9  T
   4    -50.7245314 -0.592868E-07  0.206E-03    9.37       9.5  T
   5    -50.7245314 -0.491057E-08  0.976E-04    9.37      20.1  T
speedup  0.89
cpu  time for SCC    0.00 s
wall time for SCC    0.00 s
speedup  0.96
cpu  time for grad    0.01 s
wall time for grad    0.01 s
 E :    -50.45552425  G :  0.009440    pred/act E change: -0.213D-03 -0.177D-03
Maxdispl :   0.3046   ||displ|| :   0.4244   Lambda : -0.389D-03
Largest |displ|/coords:  0.3046 (   1)  0.1823 (   3)  0.1481 (   2)
................................................................................
.............................. CYCLE   43 ......................................
................................................................................
   1    -50.7261342 -0.507261E+02  0.191E-01    9.41       0.0  T
   2    -50.7261399 -0.570170E-05  0.144E-01    9.41       1.0  T
   3    -50.7261466 -0.669285E-05  0.126E-02    9.41       1.6  T
   4    -50.7261470 -0.376798E-06  0.542E-03    9.41       3.6  T
   5    -50.7261470 -0.302495E-07  0.185E-03    9.41      10.6  T
   6    -50.7261470 -0.518509E-08  0.102E-03    9.41      19.2  T
speedup  0.91
cpu  time for SCC    0.00 s
wall time for SCC    0.01 s
speedup  0.96
cpu  time for grad    0.01 s
wall time for grad    0.01 s
 E :    -50.45577598  G :  0.007641    pred/act E change: -0.120D-03 -0.252D-03
Maxdispl :   0.1907   ||displ|| :   0.3118   Lambda : -0.264D-03
Largest |displ|/coords:  0.1907 (   1)  0.1511 (   3)  0.1178 (   2)
................................................................................
.............................. CYCLE   44 ......................................
................................................................................
   1    -50.7288678 -0.507289E+02  0.147E-01    9.45       0.0  T
   2    -50.7288724 -0.460113E-05  0.111E-01    9.45       1.0  T
   3    -50.7288772 -0.479999E-05  0.109E-02    9.45       1.8  T
   4    -50.7288776 -0.433518E-06  0.432E-03    9.45       4.5  T
   5    -50.7288776 -0.166325E-07  0.157E-03    9.45      12.5  T
   6    -50.7288776 -0.375469E-08  0.761E-04    9.45      25.8  T
speedup  1.11
cpu  time for SCC    0.01 s
wall time for SCC    0.01 s
speedup  1.04
cpu  time for grad    0.01 s
wall time for grad    0.01 s
 E :    -50.45596492  G :  0.007910    pred/act E change: -0.229D-03 -0.189D-03
Maxdispl :   0.2848   ||displ|| :   0.4675   Lambda : -0.339D-03
Largest |displ|/coords:  0.2848 (   1)  0.2302 (   3)  0.1889 (   2)
................................................................................
.............................. CYCLE   45 ......................................
................................................................................
   1    -50.7289014 -0.507289E+02  0.219E-01    9.47       0.0  T
   2    -50.7289092 -0.777501E-05  0.165E-01    9.47       1.0  T
   3    -50.7289177 -0.849839E-05  0.148E-02    9.47       1.3  T
   4    -50.7289183 -0.610924E-06  0.606E-03    9.47       3.2  T
   5    -50.7289183 -0.349541E-07  0.218E-03    9.47       9.0  T
   6    -50.7289183 -0.795337E-08  0.109E-03    9.47      18.1  T
speedup  1.09
cpu  time for SCC    0.01 s
wall time for SCC    0.01 s
speedup  0.96
cpu  time for grad    0.01 s
wall time for grad    0.01 s
 E :    -50.45616381  G :  0.009534    pred/act E change: -0.145D-03 -0.199D-03
Maxdispl :   0.2450   ||displ|| :   0.4305   Lambda : -0.382D-03
Largest |displ|/coords:  0.2450 (   1)  0.2352 (   3)  0.1322 (   2)
................................................................................
.............................. CYCLE   46 ......................................
................................................................................
   1    -50.7286383 -0.507286E+02  0.218E-01    9.45       0.0  T
   2    -50.7286473 -0.898120E-05  0.164E-01    9.45       1.0  T
   3    -50.7286574 -0.101086E-04  0.161E-02    9.44       1.2  T
   4    -50.7286581 -0.660167E-06  0.617E-03    9.44       3.2  T
   5    -50.7286581 -0.364643E-07  0.233E-03    9.44       8.4  T
   6    -50.7286581 -0.976929E-08  0.993E-04    9.45      19.7  T
speedup  0.97
cpu  time for SCC    0.01 s
wall time for SCC    0.01 s
speedup  0.99
cpu  time for grad    0.01 s
wall time for grad    0.01 s
 E :    -50.45634227  G :  0.009569    pred/act E change: -0.206D-03 -0.178D-03
Maxdispl :   0.0776   ||displ|| :   0.1954   Lambda : -0.326D-03
Largest |displ|/coords:  0.0776 (   1)  0.0722 (   2)  0.0601 (   9)
................................................................................
.............................. CYCLE   47 ......................................
................................................................................
   1    -50.7340255 -0.507340E+02  0.112E-01    9.43       0.0  T
   2    -50.7340323 -0.675424E-05  0.825E-02    9.42       1.0  T
   3    -50.7340360 -0.372983E-05  0.155E-02    9.41       1.3  T
   4    -50.7340369 -0.877281E-06  0.418E-03    9.41       4.7  T
   5    -50.7340369 -0.371091E-07  0.166E-03    9.41      11.8  T
   6    -50.7340369 -0.307784E-08  0.823E-04    9.41      23.8  T
speedup  1.09
cpu  time for SCC    0.01 s
wall time for SCC    0.01 s
speedup  1.04
cpu  time for grad    0.01 s
wall time for grad    0.01 s
 E :    -50.45641841  G :  0.012376    pred/act E change: -0.226D-03 -0.761D-04
Maxdispl :   0.3975   ||displ|| :   0.5185   Lambda : -0.593D-03
Largest |displ|/coords:  0.3975 (   1)  0.2143 (   2)  0.1432 (   3)
................................................................................
.............................. CYCLE   48 ......................................
................................................................................
   1    -50.7213680 -0.507214E+02  0.270E-01    9.33       0.0  T
   2    -50.7214051 -0.371099E-04  0.202E-01    9.34       1.0  T
   3    -50.7214347 -0.295388E-04  0.341E-02    9.37       1.0  T
   4    -50.7214394 -0.474258E-05  0.118E-02    9.36       1.7  T
   5    -50.7214396 -0.190989E-06  0.457E-03    9.36       4.3  T
   6    -50.7214396 -0.266675E-07  0.222E-03    9.36       8.8  T
   7    -50.7214397 -0.122635E-07  0.466E-04    9.36      42.0  T
speedup  0.97
cpu  time for SCC    0.01 s
wall time for SCC    0.01 s
speedup  0.99
cpu  time for grad    0.01 s
wall time for grad    0.01 s
 E :    -50.45541244  G :  0.042507    pred/act E change: -0.169D-03  0.101D-02
Maxdispl :   0.1078   ||displ|| :   0.1796   Lambda : -0.272D-02
Largest |displ|/coords:  0.1078 (   1)  0.0696 (   5)  0.0527 (   2)
................................................................................
.............................. CYCLE   49 ......................................
................................................................................
   1    -50.7288476 -0.507288E+02  0.157E-01    9.37       0.0  T
   2    -50.7288824 -0.347297E-04  0.116E-01    9.37       1.0  T
   3    -50.7289065 -0.240974E-04  0.329E-02    9.36       1.0  T
   4    -50.7289098 -0.336285E-05  0.963E-03    9.36       2.0  T
   5    -50.7289100 -0.182118E-06  0.387E-03    9.36       5.1  T
   6    -50.7289100 -0.925427E-08  0.176E-03    9.36      11.2  T
speedup  1.09
cpu  time for SCC    0.01 s
wall time for SCC    0.01 s
speedup  1.04
cpu  time for grad    0.01 s
wall time for grad    0.01 s
 E :    -50.45649369  G :  0.018708    pred/act E change: -0.376D-03 -0.108D-02
Maxdispl :   0.1636   ||displ|| :   0.2233   Lambda : -0.109D-02
Largest |displ|/coords:  0.1636 (   7)  0.0766 (   8)  0.0506 (  23)
................................................................................
.............................. CYCLE   50 ......................................
................................................................................
   1    -50.7323590 -0.507324E+02  0.152E-01    9.40       0.0  T
   2    -50.7323801 -0.211125E-04  0.113E-01    9.39       1.0  T
   3    -50.7323925 -0.123444E-04  0.264E-02    9.38       1.0  T
   4    -50.7323947 -0.217615E-05  0.733E-03    9.38       2.7  T
   5    -50.7323948 -0.144019E-06  0.254E-03    9.38       7.7  T
   6    -50.7323948 -0.619109E-08  0.137E-03    9.38      14.3  T
speedup  1.07
cpu  time for SCC    0.01 s
wall time for SCC    0.01 s
speedup  1.03
cpu  time for grad    0.01 s
wall time for grad    0.01 s
 E :    -50.45623633  G :  0.023053    pred/act E change: -0.140D-02  0.257D-03
Maxdispl :   0.1215   ||displ|| :   0.1601   Lambda : -0.115D-02
Largest |displ|/coords:  0.1215 (   7)  0.0602 (   8)  0.0466 (   6)
................................................................................
.............................. CYCLE   51 ......................................
................................................................................
   1    -50.7303846 -0.507304E+02  0.993E-02    9.36       0.0  T
   2    -50.7303905 -0.589623E-05  0.745E-02    9.36       1.0  T
   3    -50.7303943 -0.384345E-05  0.133E-02    9.37       1.5  T
   4    -50.7303950 -0.694012E-06  0.491E-03    9.37       4.0  T
   5    -50.7303951 -0.464163E-07  0.143E-03    9.37      13.7  T
speedup  0.85
cpu  time for SCC    0.00 s
wall time for SCC    0.00 s
speedup  0.96
cpu  time for grad    0.01 s
wall time for grad    0.01 s
 E :    -50.45682351  G :  0.005357    pred/act E change: -0.572D-03 -0.587D-03
Maxdispl :   0.1473   ||displ|| :   0.2028   Lambda : -0.177D-03
Largest |displ|/coords:  0.1473 (   1)  0.0800 (   2)  0.0413 (   3)
................................................................................
.............................. CYCLE   52 ......................................
................................................................................
   1    -50.7299910 -0.507300E+02  0.102E-01    9.33       0.0  T
   2    -50.7299940 -0.301898E-05  0.768E-02    9.34       1.0  T
   3    -50.7299965 -0.251662E-05  0.959E-03    9.35       2.0  T
   4    -50.7299969 -0.397812E-06  0.344E-03    9.35       5.7  T
   5    -50.7299969 -0.158344E-07  0.131E-03    9.34      15.0  T
   6    -50.7299969 -0.221286E-08  0.674E-04    9.34      29.1  T
speedup  0.91
cpu  time for SCC    0.00 s
wall time for SCC    0.01 s
speedup  0.97
cpu  time for grad    0.01 s
wall time for grad    0.01 s
 E :    -50.45687809  G :  0.011421    pred/act E change: -0.591D-03 -0.546D-04
Maxdispl :   0.1610   ||displ|| :   0.2750   Lambda : -0.233D-03
Largest |displ|/coords:  0.1610 (   1)  0.1310 (   2)  0.0978 (   3)

generating ANC from model Hessian ...
 Shifting diagonal of input Hessian by   4.641121402044554E-003
 Lowest  eigenvalues of input Hessian
   -0.000000   -0.000000   -0.000000    0.000000    0.000000    0.000000
    0.005000    0.005047    0.005073    0.005685    0.006552    0.006589
    0.007040    0.007590    0.008193    0.008206    0.009290    0.012093
 Highest eigenvalues
    1.384431    1.391604    1.402736    2.692363    3.325978    3.686623
 
cpu  time for ANC gen    0.01 s
wall time for ANC gen    0.01 s
................................................................................
.............................. CYCLE   53 ......................................
................................................................................
   1    -50.7275874 -0.507276E+02  0.138E-01    9.31       0.0  T
   2    -50.7275908 -0.345021E-05  0.103E-01    9.31       1.0  T
   3    -50.7275946 -0.380205E-05  0.101E-02    9.31       1.9  T
   4    -50.7275949 -0.248768E-06  0.415E-03    9.31       4.7  T
   5    -50.7275949 -0.189261E-07  0.134E-03    9.31      14.7  T
   6    -50.7275949 -0.331132E-08  0.691E-04    9.31      28.4  T
   7    -50.7275949 -0.132563E-08  0.197E-04    9.31      99.5  T
speedup  1.13
cpu  time for SCC    0.01 s
wall time for SCC    0.01 s
speedup  1.02
cpu  time for grad    0.01 s
wall time for grad    0.01 s
 E :    -50.45702689  G :  0.009250    pred/act E change:  0.000D+00 -0.149D-03
Maxdispl :   0.1181   ||displ|| :   0.1583   Lambda : -0.301D-03
Largest |displ|/coords:  0.1181 (   4)  0.0577 (   5)  0.0373 (   3)
................................................................................
.............................. CYCLE   54 ......................................
................................................................................
   1    -50.7299112 -0.507299E+02  0.972E-02    9.32       0.0  T
   2    -50.7299131 -0.199439E-05  0.735E-02    9.32       1.0  T
   3    -50.7299156 -0.245821E-05  0.695E-03    9.31       2.8  T
   4    -50.7299158 -0.152233E-06  0.293E-03    9.32       6.7  T
   5    -50.7299158 -0.106860E-07  0.107E-03    9.32      18.4  T
speedup  0.89
cpu  time for SCC    0.00 s
wall time for SCC    0.00 s
speedup  0.96
cpu  time for grad    0.01 s
wall time for grad    0.01 s
 E :    -50.45724344  G :  0.004406    pred/act E change:  0.000D+00 -0.217D-03
Maxdispl :   0.2206   ||displ|| :   0.3008   Lambda : -0.347D-03
Largest |displ|/coords:  0.2206 (   4)  0.1049 (   3)  0.1017 (   2)
................................................................................
.............................. CYCLE   55 ......................................
................................................................................
   1    -50.7314471 -0.507314E+02  0.179E-01    9.32       0.0  T
   2    -50.7314520 -0.482167E-05  0.136E-01    9.32       1.0  T
   3    -50.7314584 -0.643903E-05  0.109E-02    9.33       1.8  T
   4    -50.7314587 -0.279322E-06  0.545E-03    9.33       3.6  T
   5    -50.7314587 -0.336988E-07  0.153E-03    9.33      12.8  T
   6    -50.7314587 -0.439277E-08  0.761E-04    9.33      25.8  T
speedup  0.93
cpu  time for SCC    0.00 s
wall time for SCC    0.01 s
speedup  0.97
cpu  time for grad    0.01 s
wall time for grad    0.01 s
 E :    -50.45748078  G :  0.005655    pred/act E change: -0.154D-03 -0.237D-03
Maxdispl :   0.2715   ||displ|| :   0.3834   Lambda : -0.314D-03
Largest |displ|/coords:  0.2715 (   4)  0.1482 (   2)  0.1050 (   3)
................................................................................
.............................. CYCLE   56 ......................................
................................................................................
   1    -50.7294405 -0.507294E+02  0.217E-01    9.31       0.0  T
   2    -50.7294480 -0.749473E-05  0.164E-01    9.32       1.0  T
   3    -50.7294567 -0.862040E-05  0.138E-02    9.34       1.4  T
   4    -50.7294573 -0.692620E-06  0.687E-03    9.33       2.9  T
   5    -50.7294574 -0.541229E-07  0.212E-03    9.33       9.2  T
   6    -50.7294574 -0.745360E-08  0.110E-03    9.33      17.9  T
speedup  0.93
cpu  time for SCC    0.01 s
wall time for SCC    0.01 s
speedup  0.90
cpu  time for grad    0.01 s
wall time for grad    0.01 s
 E :    -50.45764281  G :  0.011585    pred/act E change: -0.189D-03 -0.162D-03
Maxdispl :   0.0728   ||displ|| :   0.1362   Lambda : -0.201D-03
Largest |displ|/coords:  0.0728 (   2)  0.0618 (   4)  0.0344 (   3)
................................................................................
.............................. CYCLE   57 ......................................
................................................................................
   1    -50.7306339 -0.507306E+02  0.661E-02    9.34       0.0  T
   2    -50.7306357 -0.174492E-05  0.493E-02    9.34       1.0  T
   3    -50.7306366 -0.960358E-06  0.757E-03    9.34       2.6  T
   4    -50.7306369 -0.263083E-06  0.214E-03    9.35       9.2  T
   5    -50.7306369 -0.759368E-08  0.737E-04    9.35      26.6  T
speedup  1.09
cpu  time for SCC    0.00 s
wall time for SCC    0.00 s
speedup  1.04
cpu  time for grad    0.01 s
wall time for grad    0.01 s
 E :    -50.45775661  G :  0.005721    pred/act E change: -0.180D-03 -0.114D-03
Maxdispl :   0.1062   ||displ|| :   0.1897   Lambda : -0.143D-03
Largest |displ|/coords:  0.1062 (   4)  0.0946 (   2)  0.0647 (   3)
................................................................................
.............................. CYCLE   58 ......................................
................................................................................
   1    -50.7291734 -0.507292E+02  0.111E-01    9.32       0.0  T
   2    -50.7291762 -0.285448E-05  0.835E-02    9.32       1.0  T
   3    -50.7291784 -0.220275E-05  0.948E-03    9.34       2.1  T
   4    -50.7291789 -0.422570E-06  0.308E-03    9.33       6.4  T
   5    -50.7291789 -0.151567E-07  0.129E-03    9.33      15.2  T
   6    -50.7291789 -0.168068E-08  0.682E-04    9.33      28.8  T
speedup  1.11
cpu  time for SCC    0.01 s
wall time for SCC    0.01 s
speedup  1.04
cpu  time for grad    0.01 s
wall time for grad    0.01 s
 E :    -50.45781603  G :  0.004734    pred/act E change: -0.102D-03 -0.594D-04
Maxdispl :   0.0642   ||displ|| :   0.0938   Lambda : -0.872D-04
Largest |displ|/coords:  0.0642 (   2)  0.0327 (  10)  0.0253 (   1)
................................................................................
.............................. CYCLE   59 ......................................
................................................................................
   1    -50.7298686 -0.507299E+02  0.541E-02    9.35       0.0  T
   2    -50.7298694 -0.773387E-06  0.411E-02    9.35       1.0  T
   3    -50.7298702 -0.808539E-06  0.474E-03    9.35       4.1  T
   4    -50.7298703 -0.820084E-07  0.190E-03    9.35      10.3  T
   5    -50.7298703 -0.498286E-08  0.643E-04    9.35      30.5  T
speedup  1.09
cpu  time for SCC    0.00 s
wall time for SCC    0.00 s
speedup  1.04
cpu  time for grad    0.01 s
wall time for grad    0.01 s
 E :    -50.45786022  G :  0.004912    pred/act E change: -0.741D-04 -0.442D-04
Maxdispl :   0.0516   ||displ|| :   0.0761   Lambda : -0.574D-04
Largest |displ|/coords:  0.0516 (   2)  0.0235 (  14)  0.0232 (  10)
................................................................................
.............................. CYCLE   60 ......................................
................................................................................
   1    -50.7305351 -0.507305E+02  0.356E-02    9.35       0.0  T
   2    -50.7305355 -0.384659E-06  0.267E-02    9.35       1.0  T
   3    -50.7305358 -0.260690E-06  0.360E-03    9.35       5.4  T
   4    -50.7305358 -0.569302E-07  0.115E-03    9.35      17.0  T
   5    -50.7305358 -0.196851E-08  0.411E-04    9.35      47.7  T
speedup  1.09
cpu  time for SCC    0.00 s
wall time for SCC    0.00 s
speedup  1.02
cpu  time for grad    0.01 s
wall time for grad    0.01 s
 E :    -50.45789378  G :  0.002256    pred/act E change: -0.440D-04 -0.336D-04
Maxdispl :   0.1370   ||displ|| :   0.2278   Lambda : -0.751D-04
Largest |displ|/coords:  0.1370 (   2)  0.0986 (   4)  0.0803 (  10)
................................................................................
.............................. CYCLE   61 ......................................
................................................................................
   1    -50.7289458 -0.507289E+02  0.134E-01    9.32       0.0  T
   2    -50.7289486 -0.281040E-05  0.101E-01    9.33       1.0  T
   3    -50.7289520 -0.341674E-05  0.895E-03    9.33       2.2  T
   4    -50.7289522 -0.234599E-06  0.442E-03    9.33       4.4  T
   5    -50.7289522 -0.221004E-07  0.110E-03    9.33      17.8  T
   6    -50.7289522 -0.198025E-08  0.516E-04    9.33      38.0  T
   7    -50.7289522 -0.827008E-09  0.166E-04    9.33     118.0  T
speedup  0.95
cpu  time for SCC    0.01 s
wall time for SCC    0.01 s
speedup  1.01
cpu  time for grad    0.01 s
wall time for grad    0.01 s
 E :    -50.45791713  G :  0.006585    pred/act E change: -0.289D-04 -0.233D-04
Maxdispl :   0.0430   ||displ|| :   0.0623   Lambda : -0.629D-04
Largest |displ|/coords:  0.0430 (   1)  0.0236 (   4)  0.0192 (   2)
................................................................................
.............................. CYCLE   62 ......................................
................................................................................
   1    -50.7305800 -0.507306E+02  0.292E-02    9.34       0.0  T
   2    -50.7305803 -0.361159E-06  0.217E-02    9.34       1.0  T
   3    -50.7305805 -0.203947E-06  0.403E-03    9.33       4.9  T
   4    -50.7305806 -0.479384E-07  0.104E-03    9.34      18.9  T
   5    -50.7305806 -0.235317E-08  0.359E-04    9.34      54.7  T
speedup  1.09
cpu  time for SCC    0.00 s
wall time for SCC    0.00 s
speedup  1.02
cpu  time for grad    0.01 s
wall time for grad    0.01 s
 E :    -50.45795808  G :  0.003306    pred/act E change: -0.395D-04 -0.409D-04
Maxdispl :   0.1067   ||displ|| :   0.1684   Lambda : -0.607D-04
Largest |displ|/coords:  0.1067 (   2)  0.0817 (   1)  0.0551 (  10)
................................................................................
.............................. CYCLE   63 ......................................
................................................................................
   1    -50.7304410 -0.507304E+02  0.866E-02    9.33       0.0  T
   2    -50.7304422 -0.115823E-05  0.655E-02    9.33       1.0  T
   3    -50.7304435 -0.131340E-05  0.619E-03    9.33       3.2  T
   4    -50.7304436 -0.117554E-06  0.272E-03    9.33       7.2  T
   5    -50.7304436 -0.910649E-08  0.742E-04    9.33      26.4  T
   6    -50.7304436 -0.845894E-09  0.326E-04    9.33      60.2  T
speedup  0.94
cpu  time for SCC    0.00 s
wall time for SCC    0.01 s
speedup  1.01
cpu  time for grad    0.01 s
wall time for grad    0.01 s
 E :    -50.45800269  G :  0.002860    pred/act E change: -0.316D-04 -0.446D-04
Maxdispl :   0.2112   ||displ|| :   0.3571   Lambda : -0.104D-03
Largest |displ|/coords:  0.2112 (   2)  0.1698 (   1)  0.1272 (  10)
................................................................................
.............................. CYCLE   64 ......................................
................................................................................
   1    -50.7297768 -0.507298E+02  0.190E-01    9.31       0.0  T
   2    -50.7297831 -0.624836E-05  0.143E-01    9.31       1.0  T
   3    -50.7297901 -0.699532E-05  0.140E-02    9.30       1.4  T
   4    -50.7297907 -0.652679E-06  0.651E-03    9.31       3.0  T
   5    -50.7297908 -0.510080E-07  0.189E-03    9.31      10.4  T
   6    -50.7297908 -0.491125E-08  0.808E-04    9.31      24.3  T
   7    -50.7297908 -0.235143E-08  0.249E-04    9.31      78.7  T
speedup  0.98
cpu  time for SCC    0.01 s
wall time for SCC    0.01 s
speedup  0.96
cpu  time for grad    0.01 s
wall time for grad    0.01 s
 E :    -50.45806377  G :  0.008632    pred/act E change: -0.312D-04 -0.611D-04
Maxdispl :   0.1271   ||displ|| :   0.1895   Lambda : -0.139D-03
Largest |displ|/coords:  0.1271 (   1)  0.0768 (   2)  0.0505 (  10)
................................................................................
.............................. CYCLE   65 ......................................
................................................................................
   1    -50.7308847 -0.507309E+02  0.109E-01    9.31       0.0  T
   2    -50.7308866 -0.190319E-05  0.821E-02    9.30       1.0  T
   3    -50.7308886 -0.203923E-05  0.765E-03    9.29       2.6  T
   4    -50.7308888 -0.182991E-06  0.341E-03    9.29       5.8  T
   5    -50.7308888 -0.140440E-07  0.112E-03    9.30      17.5  T
   6    -50.7308888 -0.162971E-08  0.596E-04    9.30      32.9  T
speedup  0.94
cpu  time for SCC    0.00 s
[...]
.............................. CYCLE   87 ......................................
................................................................................
   1    -50.7337346 -0.507337E+02  0.328E-02    9.36       0.0  T
   2    -50.7337348 -0.180458E-06  0.247E-02    9.36       1.0  T
   3    -50.7337349 -0.152192E-06  0.251E-03    9.35       7.8  T
   4    -50.7337349 -0.242142E-07  0.913E-04    9.35      21.5  T
   5    -50.7337349 -0.110087E-08  0.305E-04    9.35      64.2  T
speedup  0.89
cpu  time for SCC    0.00 s
wall time for SCC    0.00 s
speedup  1.00
cpu  time for grad    0.01 s
wall time for grad    0.01 s
 E :    -50.46060482  G :  0.000913    pred/act E change: -0.492D-05 -0.578D-05
Maxdispl :   0.0584   ||displ|| :   0.0683   Lambda : -0.520D-05
Largest |displ|/coords:  0.0584 (   3)  0.0272 (   2)  0.0138 (   8)
................................................................................
.............................. CYCLE   88 ......................................
................................................................................
   1    -50.7338343 -0.507338E+02  0.311E-02    9.35       0.0  T
   2    -50.7338344 -0.110763E-06  0.234E-02    9.35       1.0  T
   3    -50.7338345 -0.113883E-06  0.202E-03    9.35       9.7  T
   4    -50.7338345 -0.107627E-07  0.737E-04    9.35      26.6  T
   5    -50.7338345 -0.490175E-09  0.256E-04    9.35      76.5  T
speedup  1.06
cpu  time for SCC    0.00 s
wall time for SCC    0.00 s
speedup  0.98
cpu  time for grad    0.01 s
wall time for grad    0.01 s
 E :    -50.46060785  G :  0.000879    pred/act E change: -0.455D-05 -0.303D-05
Maxdispl :   0.0446   ||displ|| :   0.0535   Lambda : -0.345D-05
Largest |displ|/coords:  0.0446 (   3)  0.0197 (   2)  0.0169 (   8)
................................................................................
.............................. CYCLE   89 ......................................
................................................................................
   1    -50.7338398 -0.507338E+02  0.247E-02    9.35       0.0  T
   2    -50.7338398 -0.605293E-07  0.186E-02    9.35       1.1  T
   3    -50.7338399 -0.696672E-07  0.154E-03    9.35      12.7  T
   4    -50.7338399 -0.418542E-08  0.530E-04    9.35      37.0  T
   5    -50.7338399 -0.263732E-09  0.195E-04    9.35     100.6  T
speedup  0.89
cpu  time for SCC    0.00 s
wall time for SCC    0.00 s
speedup  1.00
cpu  time for grad    0.01 s
wall time for grad    0.01 s
 E :    -50.46061022  G :  0.000774    pred/act E change: -0.261D-05 -0.237D-05
Maxdispl :   0.0352   ||displ|| :   0.0403   Lambda : -0.274D-05
Largest |displ|/coords:  0.0352 (   3)  0.0116 (   8)  0.0094 (   2)
................................................................................
.............................. CYCLE   90 ......................................
................................................................................
   1    -50.7338567 -0.507339E+02  0.170E-02    9.35       0.0  T
   2    -50.7338568 -0.390707E-07  0.127E-02    9.35       1.5  T
   3    -50.7338568 -0.409505E-07  0.140E-03    9.35      14.0  T
   4    -50.7338568 -0.315104E-08  0.414E-04    9.35      47.4  T
   5    -50.7338568 -0.239154E-09  0.144E-04    9.35     136.2  T
speedup  0.87
cpu  time for SCC    0.00 s
wall time for SCC    0.00 s
speedup  0.99
cpu  time for grad    0.01 s
wall time for grad    0.01 s
 E :    -50.46061199  G :  0.000748    pred/act E change: -0.173D-05 -0.177D-05
Maxdispl :   0.0529   ||displ|| :   0.0589   Lambda : -0.222D-05
Largest |displ|/coords:  0.0529 (   3)  0.0160 (   2)  0.0118 (   8)
................................................................................
.............................. CYCLE   91 ......................................
................................................................................
   1    -50.7336717 -0.507337E+02  0.285E-02    9.35       0.0  T
   2    -50.7336718 -0.793061E-07  0.214E-02    9.35       1.0  T
   3    -50.7336719 -0.922467E-07  0.165E-03    9.35      11.9  T
   4    -50.7336719 -0.422968E-08  0.545E-04    9.35      36.0  T
   5    -50.7336719 -0.280707E-09  0.219E-04    9.35      89.5  T
speedup  0.87
cpu  time for SCC    0.00 s
wall time for SCC    0.00 s
speedup  0.99
cpu  time for grad    0.01 s
wall time for grad    0.01 s
 E :    -50.46061294  G :  0.001063    pred/act E change: -0.137D-05 -0.951D-06
Maxdispl :   0.0082   ||displ|| :   0.0145   Lambda : -0.188D-05
Largest |displ|/coords:  0.0082 (   2)  0.0064 (  16)  0.0063 (   5)
................................................................................
.............................. CYCLE   92 ......................................
................................................................................
   1    -50.7337376 -0.507337E+02  0.847E-03    9.35       0.0  T
   2    -50.7337377 -0.275733E-07  0.638E-03    9.35       3.1  T
   3    -50.7337377 -0.235923E-07  0.103E-03    9.35      19.0  T
   4    -50.7337377 -0.359711E-08  0.334E-04    9.35      58.8  T
   5    -50.7337377 -0.145846E-09  0.119E-04    9.35     164.8  T
speedup  0.87
cpu  time for SCC    0.00 s
wall time for SCC    0.00 s
speedup  0.99
cpu  time for grad    0.01 s
wall time for grad    0.01 s
 E :    -50.46061402  G :  0.000665    pred/act E change: -0.111D-05 -0.108D-05
Maxdispl :   0.0110   ||displ|| :   0.0133   Lambda : -0.836D-06
Largest |displ|/coords:  0.0110 (   3)  0.0042 (  10)  0.0038 (   5)
................................................................................
.............................. CYCLE   93 ......................................
................................................................................
   1    -50.7337435 -0.507337E+02  0.503E-03    9.35       0.0  T
   2    -50.7337435 -0.857874E-08  0.375E-03    9.35       5.2  T
   3    -50.7337435 -0.553773E-08  0.536E-04    9.35      36.6  T
   4    -50.7337435 -0.121805E-08  0.223E-04    9.35      88.0  T
speedup  0.81
cpu  time for SCC    0.00 s
wall time for SCC    0.00 s
speedup  0.98
cpu  time for grad    0.01 s
wall time for grad    0.01 s
 E :    -50.46061465  G :  0.000411    pred/act E change: -0.938D-06 -0.622D-06
Maxdispl :   0.0200   ||displ|| :   0.0227   Lambda : -0.645D-06
Largest |displ|/coords:  0.0200 (   3)  0.0058 (  10)  0.0049 (   5)
................................................................................
.............................. CYCLE   94 ......................................
................................................................................
   1    -50.7337304 -0.507337E+02  0.891E-03    9.36       0.0  T
   2    -50.7337304 -0.163585E-07  0.668E-03    9.36       2.9  T
   3    -50.7337304 -0.108896E-07  0.766E-04    9.36      25.6  T
   4    -50.7337304 -0.250996E-08  0.365E-04    9.36      53.8  T
speedup  0.81
cpu  time for SCC    0.00 s
wall time for SCC    0.00 s
speedup  0.98
cpu  time for grad    0.01 s
wall time for grad    0.01 s
 E :    -50.46061505  G :  0.000178    pred/act E change: -0.418D-06 -0.405D-06
Maxdispl :   0.0087   ||displ|| :   0.0099   Lambda : -0.145D-06
Largest |displ|/coords:  0.0087 (   3)  0.0026 (  10)  0.0015 (   8)
................................................................................
.............................. CYCLE   95 ......................................
................................................................................
   1    -50.7337306 -0.507337E+02  0.387E-03    9.36       0.0  T
   2    -50.7337306 -0.264133E-08  0.288E-03    9.36       6.8  T
   3    -50.7337306 -0.166670E-08  0.371E-04    9.36      52.9  T
   4    -50.7337306 -0.396113E-09  0.155E-04    9.36     126.6  T
speedup  0.83
cpu  time for SCC    0.00 s
wall time for SCC    0.00 s
speedup  0.99
cpu  time for grad    0.01 s
wall time for grad    0.01 s
 E :    -50.46061516  G :  0.000131    pred/act E change: -0.323D-06 -0.107D-06
Maxdispl :   0.0110   ||displ|| :   0.0125   Lambda : -0.141D-06
Largest |displ|/coords:  0.0110 (   3)  0.0030 (  10)  0.0025 (   8)
................................................................................
.............................. CYCLE   96 ......................................
................................................................................
   1    -50.7337230 -0.507337E+02  0.508E-03    9.36       0.0  T
   2    -50.7337230 -0.401118E-08  0.380E-03    9.36       5.2  T
   3    -50.7337230 -0.286354E-08  0.440E-04    9.36      44.6  T
   4    -50.7337230 -0.566232E-09  0.182E-04    9.36     107.9  T
speedup  0.77
cpu  time for SCC    0.00 s
wall time for SCC    0.00 s
speedup  0.97
cpu  time for grad    0.01 s
wall time for grad    0.01 s
 E :    -50.46061524  G :  0.000082    pred/act E change: -0.727D-07 -0.851D-07
Maxdispl :   0.0018   ||displ|| :   0.0025   Lambda : -0.316D-07
Largest |displ|/coords:  0.0018 (   2)  0.0010 (   3)  0.0007 (   1)

   *** GEOMETRY OPTIMIZATION CONVERGED AFTER 96 ITERATIONS ***

------------------------------------------------------------------------
 total energy gain (kcal):     -0.0329
------------------------------------------------------------------------
================
 final structure:
================
$coord
        0.77770396315806        0.02489107199151       -0.53900772112979      S 
       -0.17902086116944        1.12137160657631        1.85065573374384      O 
       -0.09666442555615        1.53973531269359       -2.66716543565436      O 
        3.47421067006663       -0.33743898057623       -0.46242376919339      O 
       -0.55468821735983       -2.56653615138869       -0.85190496529525      O 
        3.10654567746339       -1.36296807742719        4.78728628904250      O 
        1.84416162503048       -0.27832616501301        4.00067832195438      H 
        4.63900708328415       -1.03716006253626        3.86625760165431      H 
       -4.77363197146915       -0.06533799309505       -2.63580186340563      O 
       -4.63921425734945       -1.83003705739742       -2.22389950462614      H 
       -3.02782823015734        0.45494894452876       -3.03058619054520      H 
        5.64261634439112       -4.86571882335450       -0.74208786579519      O 
        5.06570176794427       -3.10640170867135       -0.71217421004631      H 
        5.75829409348158       -5.33016386341268       -2.48801317786842      H 
        1.57921413784677       -5.44539978089366        2.26574117630910      O 
        2.07509112871239       -4.22158882727839        3.57862917308112      H 
        0.22573727212034       -3.81422655340899        0.43290335980192      H 
        3.13665107027216       -5.78363641641902        1.32826508769855      H 
       -4.41239360117335        2.95796686038095        1.09555697452329      O 
       -4.98976939165336        1.72340056201089       -0.26384278635721      H 
       -2.68145742766338        2.16881535275877        1.66898231109633      H 
       -3.73638656356439        4.57388294564622       -0.00919484596501      H 
       -2.36889538617449        6.18487762705694       -1.72834128531356      N 
       -1.19448964870415        4.80465238611194       -2.42112731044418      H 
       -1.30684131689431        7.55395250238425       -0.92184343495241      H 
       -3.36365353488694        6.93644528874278       -3.17754171899609      H 
$end
 
 Bond Distances (Angstroems)
 ---------------------------
S1-O2=1.4806         S1-O3=1.4577         S1-O4=1.4403         S1-O5=1.5508         O2-S1=1.4806         O3-S1=1.4577         
O4-S1=1.4403         O5-S1=1.5508         O5-H17=1.0338        O6-H7=0.9741         O6-H8=0.9617         H7-O6=0.9741         
H8-O6=0.9617         O9-H10=0.9616        O9-H11=0.9864        H10-O9=0.9616        H11-O9=0.9864        O12-H13=0.9799       
O12-H14=0.9580       H13-O12=0.9799       H14-O12=0.9580       O15-H16=0.9854       O15-H18=0.9785       H16-O15=0.9854       
H17-O5=1.0338        H18-O15=0.9785       O19-H20=1.0186       O19-H21=1.0514       O19-H22=1.0959       H20-O19=1.0186       
H21-O19=1.0514       H22-O19=1.0959       N23-H24=1.0267       N23-H25=1.0114       N23-H26=1.0116       H24-N23=1.0267       
H25-N23=1.0114       H26-N23=1.0116       
 N  H  Rav=1.0166 sigma=0.0072  Rmin=1.0114  Rmax=1.0267     3
 O  H  Rav=0.9988 sigma=0.0408  Rmin=0.9580  Rmax=1.0959    12
 S  O  Rav=1.4824 sigma=0.0420  Rmin=1.4403  Rmax=1.5508     4
 
 selected bond angles (degree)
 --------------------
O3-S1-O2=109.62                O4-S1-O2=111.52                O4-S1-O3=114.17                O5-S1-O2=106.40                
O5-S1-O3=105.04                O5-S1-O4=109.62                H17-O5-S1=108.23               H8-O6-H7=104.84                
H11-O9-H10=104.47              
 
 selected dihedral angles (degree)
 ---------------------------------
H17-O5-S1-O2=286.79           H17-O5-S1-O3=170.59           H17-O5-S1-O4= 47.51           
 
 CMA Distance (Angstroems)
 ---------------------------
R(CMA):  0.7374

========================================================================
 FINAL SINGLEPOINT CALCULATION ON OPTIMIZED GEOMETRY
========================================================================

 Ncao       : 65
 Nao        : 64
 Nshell     : 38
 Nel        : 80
 T(el)      :   300.0
 intcut     :    25.0
 scfconv/Eh :  0.100E-05
   qconv/e  :  0.100E-03
 intneglect :  0.100E-07
 broydamp   :      0.250
 iter      E             dE          RMSdq      gap      omega  full diag
   1    -50.7337230 -0.507337E+02  0.742E-05    9.36       0.0  T
   2    -50.7337230 -0.339639E-11  0.443E-05    9.36     442.7  T
   3    -50.7337230 -0.125056E-11  0.689E-06    9.36    2847.4  T
speedup  1.11
cpu  time for SCC    0.00 s
wall time for SCC    0.00 s

   *** convergence criteria satisfied after 3 iterations ***

          eigenvalues
 #    :          28         29         30         31         32         33         34         35
 occ. :        2.000      2.000      2.000      2.000      2.000      2.000      2.000      2.000
 eps  :       -13.525    -13.249    -12.681    -12.647    -12.523    -12.393    -12.287    -12.135
 #    :          36         37         38         39         40         41         42         43
 occ. :        2.000      2.000      2.000      2.000      2.000      0.000      0.000      0.000
 eps  :       -12.045    -11.972    -11.930    -11.825    -11.725     -2.369     -0.684     -0.112
 #    :          44         45         46         47         48         49         50         51
 occ. :        0.000      0.000      0.000      0.000      0.000      0.000      0.000      0.000
 eps  :         0.562      0.950      1.462      1.706      3.223      3.532      4.422      4.794


   #   Z            q   n(s)   n(p)   n(d)      C6AA      α(0)
   1  16 S      1.710  1.580  1.769  0.941    88.541    15.837
   2   8 O     -0.773  1.784  4.989  0.000    30.717     7.433
   3   8 O     -0.756  1.767  4.989  0.000    30.285     7.378
   4   8 O     -0.737  1.765  4.972  0.000    29.736     7.311
   5   8 O     -0.667  1.769  4.898  0.000    26.815     6.990
   6   8 O     -0.606  1.743  4.863  0.000    25.337     6.794
   7   1 H      0.313  0.687  0.000  0.000     0.684     1.299
   8   1 H      0.300  0.700  0.000  0.000     0.722     1.334
   9   8 O     -0.608  1.743  4.865  0.000    25.377     6.799
  10   1 H      0.308  0.692  0.000  0.000     0.698     1.312
  11   1 H      0.329  0.671  0.000  0.000     0.641     1.258
  12   8 O     -0.611  1.744  4.867  0.000    25.446     6.808
  13   1 H      0.324  0.676  0.000  0.000     0.653     1.269
  14   1 H      0.281  0.719  0.000  0.000     0.779     1.387
  15   8 O     -0.616  1.764  4.852  0.000    25.552     6.823
  16   1 H      0.333  0.667  0.000  0.000     0.630     1.247
  17   1 H      0.384  0.616  0.000  0.000     0.512     1.121
  18   1 H      0.333  0.667  0.000  0.000     0.631     1.248
  19   8 O     -0.512  1.734  4.778  0.000    23.096     6.491
  20   1 H      0.374  0.626  0.000  0.000     0.537     1.152
  21   1 H      0.381  0.619  0.000  0.000     0.516     1.126
  22   1 H      0.355  0.645  0.000  0.000     0.565     1.174
  23   7 N     -0.423  1.336  4.087  0.000    30.997     8.269
  24   1 H      0.223  0.777  0.000  0.000     0.994     1.562
  25   1 H      0.179  0.821  0.000  0.000     1.220     1.730
  26   1 H      0.182  0.818  0.000  0.000     1.202     1.717

 Mol. C6AA /au·bohr⁶  :       5475.584410
 Mol. C8AA /au·bohr⁸  :     118353.376779
 Mol. α(0) /au        :        106.870125

 
 Wiberg/Mayer (AO) data. WBOs > 0.1 written file <wbo>
 largest (>0.05) Wiberg bond orders for each atom
           total WBO             WBO to atom ...
     1  S   4.834    O    4 1.350    O    3 1.290    O    2 1.182    O    5 0.969
     2  O   1.740    S    1 1.182    H   21 0.166    O    3 0.099    O    4 0.094    O    5 0.077    O   19 0.051
     3  O   1.722    S    1 1.290    O    4 0.102    O    2 0.099    O    5 0.066    H   11 0.066
     4  O   1.724    S    1 1.350    O    3 0.102    O    2 0.094    O    5 0.087    H   13 0.053
     5  O   1.924    S    1 0.969    H   17 0.653    O    4 0.087    O    2 0.077    O    3 0.066    O   15 0.059
     6  O   1.880    H    8 0.904    H    7 0.852    H   16 0.065
     7  H   0.902    O    6 0.852
     8  H   0.910    O    6 0.904
     9  O   1.922    H   10 0.896    H   11 0.821    H   20 0.119
    10  H   0.905    O    9 0.896
    11  H   0.892    O    9 0.821    O    3 0.066
    12  O   1.854    H   14 0.917    H   13 0.838
    13  H   0.895    O   12 0.838    O    4 0.053
    14  H   0.921    O   12 0.917
    15  O   1.969    H   18 0.840    H   16 0.822    H   17 0.183    O    5 0.059
    16  H   0.889    O   15 0.822    O    6 0.065
    17  H   0.853    O    5 0.653    O   15 0.183
    18  H   0.889    O   15 0.840
    19  O   2.234    H   20 0.737    H   21 0.678    H   22 0.610    N   23 0.089    O    2 0.051
    20  H   0.860    O   19 0.737    O    9 0.119
    21  H   0.855    O   19 0.678    O    2 0.166
    22  H   0.874    O   19 0.610    N   23 0.259
    23  N   3.214    H   25 0.965    H   26 0.964    H   24 0.909    H   22 0.259    O   19 0.089
    24  H   0.950    N   23 0.909
    25  H   0.968    N   23 0.965
    26  H   0.967    N   23 0.964
 MOs/occ written to file <molden.input>
 
molecular dipole:
                 x           y           z       tot (Debye)
 q only:       -1.484       1.700      -0.650
   full:       -0.786       1.800      -1.284       5.965
molecular quadrupole (traceless):
                xx          xy          yy          xz          yz          zz
 q only:       -2.669      -5.575      12.088      -1.765       1.238      -9.419
  q+dip:       -5.163      -1.738      13.763      -3.065       2.225      -8.600
   full:       -5.229      -1.939      14.031      -2.922       2.208      -8.802

SCC energy    :     -50.7337230
rep           :       0.2729796
ES            :       0.2494167
AES           :      -0.0714488
AXC           :      -0.0087411
disp          :      -0.0197611
XB            :       0.0000000
fix           :       0.0000000
total E       :     -50.4606152
atomizationE  :       4.9909194     3131.85
(atE without considering molecular charge,
 total energy contains solvation terms)
H-L gap (eV)  :          9.3559
optimized geometry written to: xtbopt.xyz


------------------------------------------------------------------------
 * finished run on 2019/09/16 at 12:07:31.422     
------------------------------------------------------------------------
 total:
 * wall-time:     0 d,  0 h,  0 min,  2.170 sec
 *  cpu-time:     0 d,  0 h,  0 min,  2.143 sec
 * ratio c/w:     0.987 speedup
 SCF:
 * wall-time:     0 d,  0 h,  0 min,  0.136 sec
 *  cpu-time:     0 d,  0 h,  0 min,  0.132 sec
 * ratio c/w:     0.970 speedup
 ANC optimizer:
 * wall-time:     0 d,  0 h,  0 min,  2.010 sec
 *  cpu-time:     0 d,  0 h,  0 min,  1.989 sec
 * ratio c/w:     0.989 speedup

