      -----------------------------------------------------------      
     |                   =====================                   |     
     |                           x T B                           |     
     |                   =====================                   |     
     |                         S. Grimme                         |     
     |          Mulliken Center for Theoretical Chemistry        |     
     |                    University of Bonn                     |     
     |                 Version 6.0.1 (SAW181210)                 |     
      -----------------------------------------------------------      

   This program is distributed in the hope that it will be useful,
   but WITHOUT ANY WARRANTY; without even the implied warranty of
   MERCHANTABILITY or FITNESS FOR A PARTICULAR PURPOSE.
   
   FOR NON-COMMERCIAL, ACADEMIA USE ONLY.
   
   Cite this work as:
   S. Grimme, C. Bannwarth, P. Shushkov, J. Comput. Theory Chem., 2017,
   13, 1989-2009.
   C. Bannwarth, S. Ehlert and S. Grimme., ChemRxiv, 2018, preprint.
   http://doi.org/10.26434/chemrxiv.7246238.v1
   
   for sTDA-xTB:
   S. Grimme and C. Bannwarth, J. Chem. Phys., 2016, 145, 054103.
   
   in the mass-spec context:
   V. Asgeirsson, C. Bauer and S. Grimme, Chem. Sci., 2017, 8, 4879.
   
   if GBSA is used:
   P. Shushkov, F. März and S. Grimme, unpublished.
   
   for ANC optimizer:
   S. Grimme, unpublished.
   Rational Function algorithm used in ANCopt:
   F. Eckert, P. Pulay, H.-J. Werner, J. Comput. Chem., 1997, 18, 1473.
   
   with help from (in alphabetical order)
   C. Bannwarth, F. Bohle, G. Brandenburg, E. Caldeweyher, M. Checinski,
   S. Dohm, S. Ehlert, S. Ehrlich, F. März, H. Neugebauer, J. Pisarek,
   P. Pracht, P. Shushkov, and S. Spicher.
   
 * started run on 2019/09/16 at 11:13:51.600     
========================================================================
 # omp threads = 1
========================================================================
number of atoms            : 26
number of electrons        : 80
charge                     : 0
spin                       : .0
first test random number   : .7146

########################################################################
# WARNING! Please study the warnings concerning your input carefully
#  - XTBPATH is not set, using XTBHOME instead
#  - the use of '-opt' is discouraged, please use '--opt' next time
#  - the use of '-chrg' is discouraged, please use '--chrg' next time
#  - the use of '-uhf' is discouraged, please use '--uhf' next time
########################################################################

           ------------------------------------------------- 
          |                 G F N 2 - x T B                 |
          | Geometry, Frequencies, Noncovalent interactions |
          |            JCTC 2018 parametrisation            |
           ------------------------------------------------- 
      method parameters     
 k(s)        :  1.8500
 k(p)        :  2.2300
 k(d)        :  2.2300
 k(f)        :  2.0000
 kEN (H0ij)  : -2.0000
 D4 a1       :  0.5200
 D4 a2       :  5.0000
 D4 s6       :  1.0000
 D4 s8       :  2.7000
 D4 s9       :  5.0000
 alphaj      :  2.0000


            Z     q(EN)     CN     RAES       Cart. coordinates
     1  S   6.0    0.64    4.28    4.20     2.44207    -3.23521     0.67904
     2  O   6.0   -0.32    1.22    1.80     2.18387    -1.17433     2.58016
     3  O   6.0   -0.33    1.24    1.80     0.21238    -3.21085    -1.04027
     4  O   6.0   -0.30    1.24    1.80     4.79006    -2.83752    -0.82326
     5  O   6.0   -0.25    2.08    1.84     2.58005    -5.68413     1.98144
     6  H   1.0    0.14    1.21    1.47     1.06756    -5.94116     2.94965
     7  O   6.0   -0.39    1.69    1.81     1.39359     3.60729    -2.19737
     8  H   1.0    0.17    0.95    1.42     1.20818     5.32943    -2.89279
     9  O   6.0   -0.39    1.57    1.80    -4.39013     2.08563     1.23337
    10  H   1.0    0.17    0.94    1.42    -6.08329     2.50622     1.89673
    11  O   6.0   -0.23    2.94    2.64    -2.23563     0.79402    -2.52458
    12  H   1.0    0.16    1.20    1.46    -3.42910     1.29419    -1.17724
    13  H   1.0    0.16    1.16    1.45    -0.84376     2.02472    -2.71963
    14  H   1.0    0.15    1.05    1.44    -1.60060    -0.94695    -2.28529
    15  O   6.0   -0.22    2.90    2.54     5.39518     1.54679    -2.89641
    16  H   1.0    0.16    1.21    1.47     3.82533     2.49198    -2.53303
    17  H   1.0    0.16    1.09    1.44     5.44477    -0.09632    -2.00886
    18  H   1.0    0.12    0.96    1.42     5.68905     1.35857    -4.73209
    19  O   6.0   -0.23    2.94    2.63    -0.08573     3.14792     2.16021
    20  H   1.0    0.16    1.14    1.45     0.62527     3.66897     0.51314
    21  H   1.0    0.16    1.19    1.46    -1.93609     2.90392     2.07863
    22  H   1.0    0.15    1.05    1.44     0.78674     1.64910     2.85578
    23  N   5.0   -0.20    2.94    1.92    -3.97799    -2.97402     2.68922
    24  H   1.0    0.12    1.03    1.43    -4.19135    -1.06558     2.53633
    25  H   1.0    0.10    0.99    1.43    -5.75794    -3.70703     2.61475
    26  H   1.0    0.12    1.01    1.43    -3.11249    -3.53564     1.06239

  Z AO/shell   Hii/eV     exponent
  1     Wed Apr 25 08:07:45 CEST 2018   EN: 2.200 GM2: 0.406  GM3: 0.0800  RAES: 1.40
     1s    -10.707211    1.230000
  7     Wed Apr 25 08:07:45 CEST 2018   EN: 3.040 GM2: 0.461  GM3:-0.0640  RAES: 1.90
     2s    -16.686243    2.339881
     2p    -12.523956    2.014332
  8     Wed Apr 25 08:07:45 CEST 2018   EN: 3.440 GM2: 0.452  GM3:-0.0517  RAES: 1.80
     2s    -20.229985    2.439742
     2p    -15.503117    2.137023
 16     Tue Apr 24 11:44:34 CEST 2018   EN: 2.580 GM2: 0.340  GM3:-0.0502  RAES: 3.10
     3s    -20.029654    1.981333
     3p    -11.377694    2.025643
     3d     -0.420282    1.702555
 no old-style atom pair restraining (fixing) potential

molecular fragmentation (1/2 indicates fragments):
11111122222222222222222222
# atoms in fragment 1/2:     6    20
 fragment masses (1/2) :       97.07      108.11
CMA distance (Bohr)    :   5.643
constraining FC (au)   :  0.0500
           ------------------------------------------------- 
          |        Self-Consistent Charge Iterations        |
           ------------------------------------------------- 

 Ncao       : 65
 Nao        : 64
 Nshell     : 38
 Nel        : 80
 T(el)      :   300.0
 intcut     :    25.0
 scfconv/Eh :  0.100E-05
   qconv/e  :  0.100E-03
 intneglect :  0.100E-07
 broydamp   :      0.250
 iter      E             dE          RMSdq      gap      omega  full diag
   1    -50.5102697 -0.505103E+02  0.706E+00    9.89       0.0  T
   2    -50.5636039 -0.533342E-01  0.508E+00    8.78       1.0  T
   3    -50.6026982 -0.390943E-01  0.138E+00    6.25       1.0  T
   4    -50.6088248 -0.612666E-02  0.563E-01    6.61       1.0  T
   5    -50.6094135 -0.588645E-03  0.323E-01    6.52       1.0  T
   6    -50.6098830 -0.469542E-03  0.140E-01    6.60       1.0  T
   7    -50.6099899 -0.106857E-03  0.592E-02    6.63       1.0  T
   8    -50.6100079 -0.179724E-04  0.332E-02    6.62       1.0  T
   9    -50.6100141 -0.621327E-05  0.152E-02    6.64       1.3  T
  10    -50.6100156 -0.155480E-05  0.233E-03    6.64       8.4  T
  11    -50.6100156 -0.156877E-07  0.135E-03    6.64      14.5  T
  12    -50.6100156 -0.561207E-08  0.672E-04    6.64      29.2  T
  13    -50.6100156 -0.314608E-08  0.167E-04    6.64     117.1  T
speedup  0.97
cpu  time for SCC    0.01 s
wall time for SCC    0.01 s

   *** convergence criteria satisfied after 13 iterations ***

          eigenvalues
 #    :          28         29         30         31         32         33         34         35
 occ. :        2.000      2.000      2.000      2.000      2.000      2.000      2.000      2.000
 eps  :       -12.201    -12.110    -11.889    -11.833    -11.708    -11.465    -11.296    -11.213
 #    :          36         37         38         39         40         41         42         43
 occ. :        2.000      2.000      2.000      2.000      2.000      0.000      0.000      0.000
 eps  :       -11.194    -10.964     -9.492     -9.390     -8.857     -2.216     -0.994     -0.144
 #    :          44         45         46         47         48         49         50         51
 occ. :        0.000      0.000      0.000      0.000      0.000      0.000      0.000      0.000
 eps  :         0.352      1.010      1.194      2.722      3.349      3.627      4.261      5.255


   #   Z            q   n(s)   n(p)   n(d)      C6AA      α(0)
   1  16 S      1.624  1.584  1.824  0.968    90.512    16.012
   2   8 O     -0.754  1.770  4.984  0.000    30.216     7.370
   3   8 O     -0.761  1.770  4.991  0.000    30.433     7.396
   4   8 O     -0.741  1.766  4.974  0.000    29.846     7.325
   5   8 O     -0.549  1.720  4.828  0.000    23.966     6.609
   6   1 H      0.373  0.627  0.000  0.000     0.529     1.138
   7   8 O     -0.839  1.829  5.010  0.000    32.727     7.672
   8   1 H      0.223  0.777  0.000  0.000     1.009     1.578
   9   8 O     -0.876  1.817  5.059  0.000    33.923     7.811
  10   1 H      0.189  0.811  0.000  0.000     1.180     1.706
  11   8 O     -0.482  1.667  4.815  0.000    22.454     6.400
  12   1 H      0.406  0.594  0.000  0.000     0.468     1.071
  13   1 H      0.388  0.612  0.000  0.000     0.503     1.112
  14   1 H      0.386  0.614  0.000  0.000     0.512     1.124
  15   8 O     -0.423  1.655  4.769  0.000    21.253     6.226
  16   1 H      0.410  0.590  0.000  0.000     0.460     1.062
  17   1 H      0.411  0.589  0.000  0.000     0.465     1.071
  18   1 H      0.366  0.634  0.000  0.000     0.552     1.167
  19   8 O     -0.480  1.666  4.814  0.000    22.410     6.394
  20   1 H      0.387  0.613  0.000  0.000     0.506     1.116
  21   1 H      0.402  0.598  0.000  0.000     0.475     1.079
  22   1 H      0.392  0.608  0.000  0.000     0.501     1.112
  23   7 N     -0.496  1.423  4.073  0.000    33.192     8.556
  24   1 H      0.189  0.811  0.000  0.000     1.163     1.689
  25   1 H      0.116  0.884  0.000  0.000     1.656     2.016
  26   1 H      0.138  0.862  0.000  0.000     1.487     1.910

 Mol. C6AA /au·bohr⁶  :       5572.799530
 Mol. C8AA /au·bohr⁸  :     120578.468368
 Mol. α(0) /au        :        107.723813

 
 Wiberg/Mayer (AO) data. WBOs > 0.1 written file <wbo>
 largest (>0.05) Wiberg bond orders for each atom
           total WBO             WBO to atom ...
     1  S   4.886    O    2 1.289    O    4 1.288    O    3 1.266    O    5 1.001
     2  O   1.681    S    1 1.289    O    3 0.116    O    4 0.112    O    5 0.073    H   22 0.067
     3  O   1.682    S    1 1.266    O    2 0.116    O    4 0.109    O    5 0.072    H   14 0.070
     4  O   1.719    S    1 1.288    O    2 0.112    O    3 0.109    H   17 0.105    O    5 0.053
     5  O   2.044    S    1 1.001    H    6 0.837    O    2 0.073    O    3 0.072    O    4 0.053
     6  H   0.860    O    5 0.837
     7  O   1.656    H    8 0.945    H   16 0.209    H   13 0.157    H   20 0.154    O   15 0.064    O   19 0.054    O   11 0.054
     8  H   0.950    O    7 0.945
     9  O   1.522    H   10 0.941    H   21 0.187    H   12 0.182    O   19 0.058    O   11 0.055    H   24 0.052
    10  H   0.964    O    9 0.941
    11  O   2.261    H   14 0.770    H   13 0.687    H   12 0.645    O    9 0.055    O    7 0.054
    12  H   0.835    O   11 0.645    O    9 0.182
    13  H   0.849    O   11 0.687    O    7 0.157
    14  H   0.851    O   11 0.770    O    3 0.070
    15  O   2.303    H   18 0.859    H   17 0.717    H   16 0.617    O    7 0.064
    16  H   0.832    O   15 0.617    O    7 0.209
    17  H   0.831    O   15 0.717    O    4 0.105
    18  H   0.866    O   15 0.859
    19  O   2.264    H   22 0.770    H   20 0.691    H   21 0.645    O    9 0.058    O    7 0.054
    20  H   0.850    O   19 0.691    O    7 0.154
    21  H   0.838    O   19 0.645    O    9 0.187
    22  H   0.847    O   19 0.770    O    2 0.067
    23  N   2.909    H   25 0.985    H   26 0.965    H   24 0.910
    24  H   0.964    N   23 0.910    O    9 0.052
    25  H   0.987    N   23 0.985
    26  H   0.981    N   23 0.965
 MOs/occ written to file <molden.input>
 
molecular dipole:
                 x           y           z       tot (Debye)
 q only:        1.630       1.355      -1.807
   full:        1.158       0.877      -1.905       6.090
molecular quadrupole (traceless):
                xx          xy          yy          xz          yz          zz
 q only:       -3.621      11.919      -2.980      -8.510      -6.649       6.600
  q+dip:       -2.886       9.418       0.192      -9.411      -8.522       2.694
   full:       -2.702       9.394       0.378      -9.997      -8.847       2.324

SCC energy    :     -50.6100156
rep           :       0.2759126
ES            :       0.3172135
AES           :      -0.0658291
AXC           :      -0.0072131
disp          :      -0.0196380
XB            :       0.0000000
fix           :       0.0000000
total E       :     -50.3337950
atomizationE  :       4.8640991     3052.27
(atE without considering molecular charge,
 total energy contains solvation terms)
H-L gap (eV)  :          6.6409
           ------------------------------------------------- 
          |                 ===============                 |
          |                   A N C O P T                   |
          |                 ===============                 |
          |          Approximate Normal Coordinate          |
          |           Rational Function Optimizer           |
           ------------------------------------------------- 
dumping coords to <xtbopt.coord> and <xtbopt.log>
 optlevel               2
 Maxcycle             520
 Maxmicro              25
 Econv         1.000000000000000E-007
 Gconv         2.000000000000000E-004
 Maxdispl       1.00000000000000     
 Hlow          5.000000000000000E-003
 S6             20.0000000000000     
 Nvar               72

generating ANC from model Hessian ...
 Shifting diagonal of input Hessian by   4.699550698483708E-003
 Lowest  eigenvalues of input Hessian
   -0.000000   -0.000000   -0.000000    0.000000    0.000000    0.000000
    0.005000    0.005398    0.005755    0.006168    0.006768    0.007139
    0.007456    0.008307    0.008674    0.009499    0.010594    0.011315
 Highest eigenvalues
    1.586167    1.590270    1.594784    3.145986    3.215205    3.323687
 
cpu  time for ANC gen    0.02 s
wall time for ANC gen    0.02 s
................................................................................
.............................. CYCLE    1 ......................................
................................................................................
   1    -50.6100156 -0.506100E+02  0.801E-05    6.64       0.0  T
   2    -50.6100156 -0.158451E-10  0.607E-05    6.64     323.1  T
   3    -50.6100156 -0.143032E-10  0.294E-05    6.64     666.9  T
speedup  0.71
cpu  time for SCC    0.00 s
wall time for SCC    0.00 s
speedup  0.97
cpu  time for grad    0.01 s
wall time for grad    0.01 s
 E :    -50.33379490  G :  0.229303    pred/act E change:  0.000D+00  0.561D-07
Maxdispl :   0.1105   ||displ|| :   0.2990   Lambda : -0.436D-01
Largest |displ|/coords:  0.1105 (  54)  0.1070 (  28)  0.1059 (  55)
................................................................................
.............................. CYCLE    2 ......................................
................................................................................
   1    -50.6268323 -0.506268E+02  0.319E-01    6.68       0.0  T
   2    -50.6270921 -0.259855E-03  0.239E-01    6.74       1.0  T
   3    -50.6272230 -0.130847E-03  0.803E-02    6.85       1.0  T
   4    -50.6272399 -0.169563E-04  0.179E-02    6.85       1.1  T
   5    -50.6272407 -0.763361E-06  0.599E-03    6.84       3.3  T
   6    -50.6272407 -0.564464E-07  0.341E-03    6.84       5.7  T
speedup  0.96
cpu  time for SCC    0.00 s
wall time for SCC    0.01 s
speedup  0.98
cpu  time for grad    0.01 s
wall time for grad    0.01 s
 E :    -50.36854510  G :  0.140819    pred/act E change:  0.000D+00 -0.348D-01
Maxdispl :   0.1539   ||displ|| :   0.3404   Lambda : -0.226D-01
Largest |displ|/coords:  0.1539 (  28)  0.1118 (  16)  0.0984 (  26)
................................................................................
.............................. CYCLE    3 ......................................
................................................................................
   1    -50.6346713 -0.506347E+02  0.318E-01    6.85       0.0  T
   2    -50.6350704 -0.399047E-03  0.232E-01    6.90       1.0  T
   3    -50.6352530 -0.182585E-03  0.921E-02    6.96       1.0  T
   4    -50.6352683 -0.153094E-04  0.167E-02    6.96       1.2  T
   5    -50.6352689 -0.657779E-06  0.597E-03    6.96       3.3  T
   6    -50.6352690 -0.615768E-07  0.343E-03    6.96       5.7  T
speedup  1.13
cpu  time for SCC    0.01 s
wall time for SCC    0.01 s
speedup  0.98
cpu  time for grad    0.01 s
wall time for grad    0.01 s
 E :    -50.38700699  G :  0.093519    pred/act E change: -0.238D-01 -0.185D-01
Maxdispl :   0.1563   ||displ|| :   0.3695   Lambda : -0.127D-01
Largest |displ|/coords:  0.1563 (  15)  0.1343 (  16)  0.1068 (  28)
................................................................................
.............................. CYCLE    4 ......................................
................................................................................
   1    -50.6380059 -0.506380E+02  0.348E-01    6.95       0.0  T
   2    -50.6384901 -0.484236E-03  0.248E-01    6.99       1.0  T
   3    -50.6387080 -0.217888E-03  0.971E-02    7.04       1.0  T
   4    -50.6387266 -0.185691E-04  0.167E-02    7.04       1.2  T
   5    -50.6387273 -0.731710E-06  0.654E-03    7.04       3.0  T
   6    -50.6387274 -0.788306E-07  0.351E-03    7.04       5.6  T
   7    -50.6387274 -0.284743E-07  0.112E-03    7.04      17.5  T
speedup  0.95
cpu  time for SCC    0.01 s
wall time for SCC    0.01 s
speedup  0.99
cpu  time for grad    0.01 s
wall time for grad    0.01 s
 E :    -50.39750184  G :  0.069724    pred/act E change: -0.126D-01 -0.105D-01
Maxdispl :   0.1633   ||displ|| :   0.3472   Lambda : -0.800D-02
Largest |displ|/coords:  0.1633 (   2)  0.1183 (  15)  0.1176 (   9)
................................................................................
.............................. CYCLE    5 ......................................
................................................................................
   1    -50.6446275 -0.506446E+02  0.223E-01    7.09       0.0  T
   2    -50.6449155 -0.288021E-03  0.154E-01    7.12       1.0  T
   3    -50.6450477 -0.132234E-03  0.674E-02    7.18       1.0  T
   4    -50.6450556 -0.792774E-05  0.123E-02    7.19       1.6  T
   5    -50.6450560 -0.395554E-06  0.492E-03    7.19       4.0  T
   6    -50.6450561 -0.388769E-07  0.258E-03    7.19       7.6  T
speedup  0.94
cpu  time for SCC    0.00 s
wall time for SCC    0.01 s
speedup  0.98
cpu  time for grad    0.01 s
wall time for grad    0.01 s
 E :    -50.40448804  G :  0.053637    pred/act E change: -0.721D-02 -0.699D-02
Maxdispl :   0.1951   ||displ|| :   0.3878   Lambda : -0.633D-02
Largest |displ|/coords:  0.1951 (  15)  0.1893 (   2)  0.1087 (  16)
................................................................................
.............................. CYCLE    6 ......................................
................................................................................
   1    -50.6475237 -0.506475E+02  0.311E-01    7.20       0.0  T
   2    -50.6479020 -0.378373E-03  0.216E-01    7.23       1.0  T
   3    -50.6480719 -0.169900E-03  0.831E-02    7.29       1.0  T
   4    -50.6480875 -0.155200E-04  0.150E-02    7.30       1.3  T
   5    -50.6480881 -0.680629E-06  0.631E-03    7.30       3.1  T
   6    -50.6480882 -0.777261E-07  0.334E-03    7.30       5.9  T
   7    -50.6480882 -0.182846E-07  0.889E-04    7.30      22.1  T
speedup  1.15
cpu  time for SCC    0.01 s
wall time for SCC    0.01 s
speedup  1.06
cpu  time for grad    0.01 s
wall time for grad    0.01 s
 E :    -50.40985691  G :  0.056514    pred/act E change: -0.448D-02 -0.537D-02
Maxdispl :   0.2258   ||displ|| :   0.3423   Lambda : -0.713D-02
Largest |displ|/coords:  0.2258 (   2)  0.0928 (   9)  0.0878 (  24)
................................................................................
.............................. CYCLE    7 ......................................
................................................................................
   1    -50.6623033 -0.506623E+02  0.250E-01    7.41       0.0  T
   2    -50.6624430 -0.139677E-03  0.185E-01    7.44       1.0  T
   3    -50.6625158 -0.728183E-04  0.544E-02    7.50       1.0  T
   4    -50.6625292 -0.134469E-04  0.121E-02    7.50       1.6  T
   5    -50.6625294 -0.222488E-06  0.495E-03    7.50       4.0  T
   6    -50.6625295 -0.324509E-07  0.183E-03    7.50      10.7  T
speedup  1.11
cpu  time for SCC    0.01 s
wall time for SCC    0.01 s
speedup  1.04
cpu  time for grad    0.01 s
wall time for grad    0.01 s
 E :    -50.41362120  G :  0.056509    pred/act E change: -0.364D-02 -0.376D-02
Maxdispl :   0.1416   ||displ|| :   0.3471   Lambda : -0.782D-02
Largest |displ|/coords:  0.1416 (  15)  0.1309 (  14)  0.1121 (   4)
................................................................................
.............................. CYCLE    8 ......................................
................................................................................
   1    -50.6597698 -0.506598E+02  0.393E-01    7.46       0.0  T
   2    -50.6601970 -0.427171E-03  0.276E-01    7.47       1.0  T
   3    -50.6603918 -0.194763E-03  0.959E-02    7.50       1.0  T
   4    -50.6604171 -0.253505E-04  0.179E-02    7.51       1.1  T
   5    -50.6604179 -0.745783E-06  0.808E-03    7.51       2.4  T
   6    -50.6604181 -0.214793E-06  0.425E-03    7.51       4.6  T
   7    -50.6604181 -0.243289E-07  0.794E-04    7.51      24.7  T
speedup  0.97
cpu  time for SCC    0.01 s
wall time for SCC    0.01 s
speedup  0.99
cpu  time for grad    0.01 s
wall time for grad    0.01 s
 E :    -50.41777406  G :  0.057070    pred/act E change: -0.398D-02 -0.415D-02
Maxdispl :   0.2187   ||displ|| :   0.3057   Lambda : -0.598D-02
Largest |displ|/coords:  0.2187 (   2)  0.0694 (  24)  0.0629 (   9)
................................................................................
.............................. CYCLE    9 ......................................
................................................................................
   1    -50.6746244 -0.506746E+02  0.209E-01    7.61       0.0  T
   2    -50.6747040 -0.796025E-04  0.155E-01    7.62       1.0  T
   3    -50.6747522 -0.482185E-04  0.423E-02    7.65       1.0  T
   4    -50.6747606 -0.831669E-05  0.112E-02    7.65       1.8  T
   5    -50.6747607 -0.183730E-06  0.447E-03    7.65       4.4  T
   6    -50.6747608 -0.240239E-07  0.171E-03    7.65      11.5  T
speedup  0.94
cpu  time for SCC    0.00 s
wall time for SCC    0.01 s
speedup  0.98
cpu  time for grad    0.01 s
wall time for grad    0.01 s
 E :    -50.42159084  G :  0.040138    pred/act E change: -0.438D-02 -0.382D-02
Maxdispl :   0.1601   ||displ|| :   0.4263   Lambda : -0.648D-02
Largest |displ|/coords:  0.1601 (   2)  0.1561 (   5)  0.1228 (  14)
................................................................................
.............................. CYCLE   10 ......................................
................................................................................
   1    -50.6897767 -0.506898E+02  0.279E-01    7.74       0.0  T
   2    -50.6901226 -0.345934E-03  0.199E-01    7.77       1.0  T
   3    -50.6903013 -0.178669E-03  0.832E-02    7.82       1.0  T
   4    -50.6903209 -0.195920E-04  0.174E-02    7.83       1.1  T
   5    -50.6903215 -0.621754E-06  0.768E-03    7.82       2.6  T
   6    -50.6903215 -0.569250E-07  0.358E-03    7.82       5.5  T
   7    -50.6903216 -0.176945E-07  0.815E-04    7.82      24.1  T
speedup  0.97
cpu  time for SCC    0.01 s
wall time for SCC    0.01 s
speedup  0.99
cpu  time for grad    0.01 s
wall time for grad    0.01 s
 E :    -50.42653342  G :  0.041098    pred/act E change: -0.327D-02 -0.494D-02
Maxdispl :   0.2177   ||displ|| :   0.5303   Lambda : -0.739D-02
Largest |displ|/coords:  0.2177 (   2)  0.1924 (  15)  0.1696 (  28)
................................................................................
.............................. CYCLE   11 ......................................
................................................................................
   1    -50.7012900 -0.507013E+02  0.365E-01    7.82       0.0  T
   2    -50.7016451 -0.355085E-03  0.259E-01    7.84       1.0  T
   3    -50.7018173 -0.172207E-03  0.881E-02    7.86       1.0  T
   4    -50.7018424 -0.250845E-04  0.177E-02    7.87       1.1  T
   5    -50.7018427 -0.349050E-06  0.818E-03    7.87       2.4  T
   6    -50.7018429 -0.172985E-06  0.298E-03    7.87       6.6  T
   7    -50.7018429 -0.222135E-07  0.866E-04    7.87      22.6  T
speedup  0.97
cpu  time for SCC    0.01 s
wall time for SCC    0.01 s
speedup  0.99
cpu  time for grad    0.01 s
wall time for grad    0.01 s
 E :    -50.43079585  G :  0.036263    pred/act E change: -0.383D-02 -0.426D-02
Maxdispl :   0.1515   ||displ|| :   0.3604   Lambda : -0.334D-02
Largest |displ|/coords:  0.1515 (   5)  0.1406 (  13)  0.1195 (  30)
................................................................................
.............................. CYCLE   12 ......................................
................................................................................
   1    -50.6982172 -0.506982E+02  0.193E-01    7.84       0.0  T
   2    -50.6982361 -0.188862E-04  0.142E-01    7.84       1.0  T
   3    -50.6982486 -0.125648E-04  0.241E-02    7.84       1.0  T
   4    -50.6982507 -0.202288E-05  0.973E-03    7.84       2.0  T
   5    -50.6982508 -0.156738E-06  0.291E-03    7.84       6.8  T
   6    -50.6982508 -0.105614E-07  0.166E-03    7.84      11.8  T
speedup  0.93
cpu  time for SCC    0.00 s
wall time for SCC    0.01 s
speedup  0.96
cpu  time for grad    0.01 s
wall time for grad    0.01 s
 E :    -50.43277555  G :  0.030880    pred/act E change: -0.473D-02 -0.198D-02
Maxdispl :   0.2396   ||displ|| :   0.4263   Lambda : -0.273D-02
Largest |displ|/coords:  0.2396 (   2)  0.1540 (  13)  0.1328 (   5)
................................................................................
.............................. CYCLE   13 ......................................
................................................................................
   1    -50.6982253 -0.506982E+02  0.217E-01    7.89       0.0  T
   2    -50.6982519 -0.266657E-04  0.161E-01    7.89       1.0  T
   3    -50.6982676 -0.157224E-04  0.293E-02    7.90       1.0  T
   4    -50.6982710 -0.340423E-05  0.113E-02    7.90       1.7  T
   5    -50.6982712 -0.183592E-06  0.359E-03    7.90       5.5  T
   6    -50.6982713 -0.196716E-07  0.189E-03    7.90      10.4  T
speedup  0.94
cpu  time for SCC    0.00 s
wall time for SCC    0.01 s
speedup  0.96
cpu  time for grad    0.01 s
wall time for grad    0.01 s
 E :    -50.43430301  G :  0.028438    pred/act E change: -0.189D-02 -0.153D-02
Maxdispl :   0.3043   ||displ|| :   0.4578   Lambda : -0.278D-02
Largest |displ|/coords:  0.3043 (   2)  0.1377 (   6)  0.1173 (  15)
................................................................................
.............................. CYCLE   14 ......................................
................................................................................
   1    -50.6971624 -0.506972E+02  0.250E-01    7.93       0.0  T
   2    -50.6972250 -0.626033E-04  0.184E-01    7.94       1.0  T
   3    -50.6972562 -0.312414E-04  0.443E-02    7.96       1.0  T
   4    -50.6972643 -0.805106E-05  0.122E-02    7.97       1.6  T
   5    -50.6972645 -0.232450E-06  0.551E-03    7.97       3.6  T
   6    -50.6972646 -0.449952E-07  0.249E-03    7.97       7.9  T
speedup  0.94
cpu  time for SCC    0.00 s
wall time for SCC    0.01 s
speedup  0.98
cpu  time for grad    0.01 s
wall time for grad    0.01 s
 E :    -50.43574999  G :  0.028401    pred/act E change: -0.161D-02 -0.145D-02
Maxdispl :   0.1315   ||displ|| :   0.3030   Lambda : -0.172D-02
Largest |displ|/coords:  0.1315 (   2)  0.1044 (   7)  0.0952 (  13)
................................................................................
.............................. CYCLE   15 ......................................
................................................................................
   1    -50.6956307 -0.506956E+02  0.267E-01    8.04       0.0  T
   2    -50.6956793 -0.486618E-04  0.194E-01    8.07       1.0  T
   3    -50.6957016 -0.222513E-04  0.331E-02    8.13       1.0  T
   4    -50.6957077 -0.615772E-05  0.800E-03    8.12       2.5  T
   5    -50.6957078 -0.781525E-07  0.374E-03    8.12       5.2  T
   6    -50.6957078 -0.149860E-07  0.142E-03    8.12      13.8  T
speedup  0.94
cpu  time for SCC    0.00 s
wall time for SCC    0.01 s
speedup  0.98
cpu  time for grad    0.01 s
wall time for grad    0.01 s
 E :    -50.43688215  G :  0.027939    pred/act E change: -0.168D-02 -0.113D-02
Maxdispl :   0.1759   ||displ|| :   0.3774   Lambda : -0.317D-02
Largest |displ|/coords:  0.1759 (  11)  0.1069 (   6)  0.1019 (  17)
................................................................................
.............................. CYCLE   16 ......................................
................................................................................
   1    -50.7074360 -0.507074E+02  0.251E-01    8.46       0.0  T
   2    -50.7075502 -0.114234E-03  0.181E-01    8.47       1.0  T
   3    -50.7076014 -0.511968E-04  0.519E-02    8.47       1.0  T
   4    -50.7076109 -0.952040E-05  0.110E-02    8.49       1.8  T
   5    -50.7076111 -0.195985E-06  0.500E-03    8.49       3.9  T
   6    -50.7076112 -0.232771E-07  0.220E-03    8.49       8.9  T
speedup  1.13
cpu  time for SCC    0.01 s
wall time for SCC    0.01 s
speedup  1.05
cpu  time for grad    0.01 s
wall time for grad    0.01 s
 E :    -50.43734930  G :  0.036957    pred/act E change: -0.941D-03 -0.467D-03
Maxdispl :   0.1118   ||displ|| :   0.2395   Lambda : -0.218D-02
Largest |displ|/coords:  0.1118 (   2)  0.0912 (   9)  0.0824 (   7)
................................................................................
.............................. CYCLE   17 ......................................
................................................................................
   1    -50.7008184 -0.507008E+02  0.204E-01    8.42       0.0  T
   2    -50.7008531 -0.347034E-04  0.147E-01    8.46       1.0  T
   3    -50.7008680 -0.148992E-04  0.300E-02    8.52       1.0  T
   4    -50.7008721 -0.410575E-05  0.774E-03    8.50       2.5  T
   5    -50.7008722 -0.729401E-07  0.331E-03    8.50       5.9  T
   6    -50.7008722 -0.167370E-07  0.146E-03    8.50      13.4  T
speedup  0.93
cpu  time for SCC    0.01 s
wall time for SCC    0.01 s
speedup  0.98
cpu  time for grad    0.01 s
wall time for grad    0.01 s
 E :    -50.43841732  G :  0.023778    pred/act E change: -0.181D-02 -0.107D-02
Maxdispl :   0.1019   ||displ|| :   0.1781   Lambda : -0.114D-02
Largest |displ|/coords:  0.1019 (   9)  0.0661 (   4)  0.0469 (   6)
................................................................................
.............................. CYCLE   18 ......................................
................................................................................
   1    -50.7014830 -0.507015E+02  0.111E-01    8.48       0.0  T
   2    -50.7014989 -0.158656E-04  0.801E-02    8.48       1.0  T
   3    -50.7015065 -0.765519E-05  0.211E-02    8.48       1.0  T
   4    -50.7015080 -0.150524E-05  0.573E-03    8.48       3.4  T
   5    -50.7015081 -0.600554E-07  0.209E-03    8.48       9.4  T
speedup  0.89
cpu  time for SCC    0.00 s
wall time for SCC    0.00 s
speedup  0.97
cpu  time for grad    0.01 s
wall time for grad    0.01 s
 E :    -50.43898758  G :  0.019529    pred/act E change: -0.115D-02 -0.570D-03
Maxdispl :   0.0643   ||displ|| :   0.1765   Lambda : -0.104D-02
Largest |displ|/coords:  0.0643 (   5)  0.0564 (  10)  0.0542 (   6)
................................................................................
.............................. CYCLE   19 ......................................
................................................................................
   1    -50.7039820 -0.507040E+02  0.132E-01    8.54       0.0  T
   2    -50.7039986 -0.165602E-04  0.980E-02    8.54       1.0  T
   3    -50.7040088 -0.102110E-04  0.225E-02    8.54       1.0  T
   4    -50.7040108 -0.199381E-05  0.752E-03    8.55       2.6  T
   5    -50.7040109 -0.817133E-07  0.258E-03    8.55       7.6  T
   6    -50.7040109 -0.900455E-08  0.125E-03    8.55      15.8  T
speedup  0.93
cpu  time for SCC    0.00 s
wall time for SCC    0.01 s
speedup  0.97
cpu  time for grad    0.01 s
wall time for grad    0.01 s
 E :    -50.43988010  G :  0.019185    pred/act E change: -0.586D-03 -0.893D-03
Maxdispl :   0.2170   ||displ|| :   0.6109   Lambda : -0.330D-02
Largest |displ|/coords:  0.2170 (  15)  0.2058 (  17)  0.1974 (   6)
................................................................................
.............................. CYCLE   20 ......................................
................................................................................
   1    -50.7081500 -0.507081E+02  0.507E-01    8.81       0.0  T
   2    -50.7083944 -0.244458E-03  0.375E-01    8.85       1.0  T
   3    -50.7085437 -0.149315E-03  0.830E-02    8.93       1.0  T
   4    -50.7085730 -0.292423E-04  0.284E-02    8.91       1.0  T
   5    -50.7085740 -0.106370E-05  0.103E-02    8.91       1.9  T
   6    -50.7085742 -0.148836E-06  0.485E-03    8.91       4.0  T
   7    -50.7085742 -0.430756E-07  0.121E-03    8.91      16.2  T
   8    -50.7085742 -0.308173E-08  0.326E-04    8.91      60.2  T
speedup  0.97
cpu  time for SCC    0.01 s
wall time for SCC    0.01 s
speedup  0.99
cpu  time for grad    0.01 s
wall time for grad    0.02 s
 E :    -50.44215086  G :  0.028936    pred/act E change: -0.537D-03 -0.227D-02
Maxdispl :   0.1214   ||displ|| :   0.3387   Lambda : -0.187D-02
Largest |displ|/coords:  0.1214 (  15)  0.1037 (   8)  0.0871 (   5)
................................................................................
.............................. CYCLE   21 ......................................
................................................................................
   1    -50.7177258 -0.507177E+02  0.251E-01    8.99       0.0  T
   2    -50.7177750 -0.491899E-04  0.188E-01    9.00       1.0  T
   3    -50.7178149 -0.399155E-04  0.406E-02    9.02       1.0  T
   4    -50.7178205 -0.555738E-05  0.163E-02    9.02       1.2  T
   5    -50.7178208 -0.353152E-06  0.500E-03    9.02       3.9  T
   6    -50.7178209 -0.363090E-07  0.256E-03    9.02       7.7  T
speedup  1.13
cpu  time for SCC    0.01 s
wall time for SCC    0.01 s
speedup  1.05
cpu  time for grad    0.01 s
wall time for grad    0.01 s
 E :    -50.44307315  G :  0.034407    pred/act E change: -0.227D-02 -0.922D-03
Maxdispl :   0.1773   ||displ|| :   0.3710   Lambda : -0.268D-02
Largest |displ|/coords:  0.1773 (   5)  0.1131 (   6)  0.1059 (   1)
................................................................................
.............................. CYCLE   22 ......................................
................................................................................
   1    -50.7189473 -0.507189E+02  0.286E-01    8.94       0.0  T
   2    -50.7190183 -0.709882E-04  0.209E-01    8.98       1.0  T
   3    -50.7190484 -0.301048E-04  0.520E-02    9.04       1.0  T
   4    -50.7190568 -0.845477E-05  0.142E-02    9.03       1.4  T
   5    -50.7190571 -0.226772E-06  0.472E-03    9.03       4.2  T
   6    -50.7190571 -0.361933E-07  0.238E-03    9.03       8.2  T
speedup  0.94
cpu  time for SCC    0.00 s
wall time for SCC    0.01 s
speedup  0.98
cpu  time for grad    0.01 s
wall time for grad    0.01 s
 E :    -50.44322954  G :  0.047426    pred/act E change: -0.104D-02 -0.156D-03
Maxdispl :   0.1474   ||displ|| :   0.3416   Lambda : -0.453D-02
Largest |displ|/coords:  0.1474 (  10)  0.1025 (   7)  0.0977 (   1)
................................................................................
.............................. CYCLE   23 ......................................
................................................................................
   1    -50.7225751 -0.507226E+02  0.257E-01    8.89       0.0  T
   2    -50.7226419 -0.667216E-04  0.187E-01    8.84       1.0  T
   3    -50.7226741 -0.322115E-04  0.464E-02    8.74       1.0  T
   4    -50.7226809 -0.683755E-05  0.155E-02    8.75       1.3  T
   5    -50.7226813 -0.397621E-06  0.497E-03    8.75       3.9  T
   6    -50.7226813 -0.350235E-07  0.256E-03    8.75       7.7  T
speedup  0.94
cpu  time for SCC    0.00 s
wall time for SCC    0.01 s
speedup  0.98
cpu  time for grad    0.01 s
wall time for grad    0.01 s
 E :    -50.44468505  G :  0.031569    pred/act E change: -0.153D-02 -0.146D-02
Maxdispl :   0.1469   ||displ|| :   0.3354   Lambda : -0.277D-02
Largest |displ|/coords:  0.1469 (  15)  0.1206 (  10)  0.0959 (   9)
................................................................................
.............................. CYCLE   24 ......................................
................................................................................
   1    -50.7125766 -0.507126E+02  0.266E-01    8.76       0.0  T
   2    -50.7126550 -0.784204E-04  0.194E-01    8.80       1.0  T
   3    -50.7126925 -0.374241E-04  0.483E-02    8.88       1.0  T
   4    -50.7127019 -0.942630E-05  0.140E-02    8.86       1.4  T
   5    -50.7127021 -0.250566E-06  0.559E-03    8.86       3.5  T
   6    -50.7127022 -0.532442E-07  0.245E-03    8.86       8.0  T
speedup  1.13
cpu  time for SCC    0.01 s
wall time for SCC    0.01 s
speedup  0.98
cpu  time for grad    0.01 s
wall time for grad    0.01 s
 E :    -50.44499350  G :  0.032453    pred/act E change: -0.253D-02 -0.308D-03
Maxdispl :   0.1234   ||displ|| :   0.2374   Lambda : -0.234D-02
Largest |displ|/coords:  0.1234 (   2)  0.0638 (  13)  0.0563 (  16)
................................................................................
.............................. CYCLE   25 ......................................
................................................................................
   1    -50.7241313 -0.507241E+02  0.186E-01    8.96       0.0  T
   2    -50.7241652 -0.339255E-04  0.135E-01    8.92       1.0  T
   3    -50.7241795 -0.142898E-04  0.326E-02    8.85       1.0  T
   4    -50.7241831 -0.364425E-05  0.798E-03    8.86       2.5  T
   5    -50.7241832 -0.986341E-07  0.312E-03    8.86       6.3  T
   6    -50.7241832 -0.865804E-08  0.150E-03    8.86      13.1  T
speedup  0.94
cpu  time for SCC    0.00 s
wall time for SCC    0.01 s
speedup  0.98
cpu  time for grad    0.01 s
wall time for grad    0.01 s
 E :    -50.44606554  G :  0.018459    pred/act E change: -0.154D-02 -0.107D-02
Maxdispl :   0.1131   ||displ|| :   0.2202   Lambda : -0.116D-02
Largest |displ|/coords:  0.1131 (  12)  0.0842 (   5)  0.0734 (   2)

generating ANC from model Hessian ...
 Shifting diagonal of input Hessian by   4.937085077791583E-003
 Lowest  eigenvalues of input Hessian
   -0.000000   -0.000000    0.000000    0.000000    0.000000    0.000000
    0.005000    0.005358    0.005493    0.005948    0.006734    0.006811
    0.006993    0.008073    0.008731    0.010219    0.010812    0.012179
 Highest eigenvalues
    1.385320    1.409121    1.409609    2.770744    3.302202    3.600202
 
cpu  time for ANC gen    0.02 s
wall time for ANC gen    0.02 s
................................................................................
.............................. CYCLE   26 ......................................
................................................................................
   1    -50.7218546 -0.507219E+02  0.145E-01    8.73       0.0  T
   2    -50.7218874 -0.327339E-04  0.105E-01    8.76       1.0  T
   3    -50.7218988 -0.114092E-04  0.384E-02    8.80       1.0  T
   4    -50.7219011 -0.229093E-05  0.908E-03    8.81       2.2  T
   5    -50.7219012 -0.137337E-06  0.222E-03    8.80       8.8  T
   6    -50.7219012 -0.531899E-08  0.129E-03    8.80      15.2  T
   7    -50.7219012 -0.303976E-08  0.423E-04    8.81      46.4  T
   8    -50.7219012 -0.306159E-09  0.888E-05    8.80     220.9  T
speedup  1.00
cpu  time for SCC    0.01 s
wall time for SCC    0.01 s
speedup  1.04
cpu  time for grad    0.02 s
wall time for grad    0.02 s
 E :    -50.44635987  G :  0.019956    pred/act E change:  0.000D+00 -0.294D-03
Maxdispl :   0.1924   ||displ|| :   0.2923   Lambda : -0.147D-02
Largest |displ|/coords:  0.1924 (   8)  0.1261 (   5)  0.0881 (   6)
................................................................................
.............................. CYCLE   27 ......................................
................................................................................
   1    -50.7201647 -0.507202E+02  0.165E-01    8.79       0.0  T
   2    -50.7201760 -0.112342E-04  0.123E-01    8.79       1.0  T
   3    -50.7201825 -0.651963E-05  0.205E-02    8.78       1.0  T
   4    -50.7201842 -0.170273E-05  0.614E-03    8.78       3.2  T
   5    -50.7201842 -0.683297E-07  0.206E-03    8.78       9.5  T
   6    -50.7201842 -0.407403E-08  0.113E-03    8.78      17.3  T
speedup  1.13
cpu  time for SCC    0.01 s
wall time for SCC    0.01 s
speedup  1.05
cpu  time for grad    0.01 s
wall time for grad    0.01 s
 E :    -50.44717900  G :  0.012015    pred/act E change:  0.000D+00 -0.819D-03
Maxdispl :   0.0937   ||displ|| :   0.2094   Lambda : -0.636D-03
Largest |displ|/coords:  0.0937 (   7)  0.0749 (  17)  0.0667 (   9)
................................................................................
.............................. CYCLE   28 ......................................
................................................................................
   1    -50.7201484 -0.507201E+02  0.143E-01    8.80       0.0  T
   2    -50.7201581 -0.969813E-05  0.107E-01    8.80       1.0  T
   3    -50.7201632 -0.503127E-05  0.183E-02    8.79       1.1  T
   4    -50.7201645 -0.138213E-05  0.644E-03    8.79       3.0  T
   5    -50.7201646 -0.794932E-07  0.170E-03    8.79      11.5  T
   6    -50.7201646 -0.279450E-08  0.983E-04    8.79      20.0  T
speedup  0.96
cpu  time for SCC    0.00 s
wall time for SCC    0.01 s
speedup  0.98
cpu  time for grad    0.01 s
wall time for grad    0.01 s
 E :    -50.44760615  G :  0.009578    pred/act E change: -0.795D-03 -0.427D-03
Maxdispl :   0.1316   ||displ|| :   0.3090   Lambda : -0.702D-03
Largest |displ|/coords:  0.1316 (   3)  0.1189 (   8)  0.1066 (   5)
................................................................................
.............................. CYCLE   29 ......................................
................................................................................
   1    -50.7200026 -0.507200E+02  0.196E-01    8.86       0.0  T
   2    -50.7200215 -0.189756E-04  0.146E-01    8.86       1.0  T
   3    -50.7200298 -0.830261E-05  0.251E-02    8.85       1.0  T
   4    -50.7200328 -0.292792E-05  0.992E-03    8.85       2.0  T
   5    -50.7200330 -0.194569E-06  0.224E-03    8.85       8.8  T
   6    -50.7200330 -0.556818E-08  0.136E-03    8.85      14.4  T
speedup  0.94
cpu  time for SCC    0.00 s
wall time for SCC    0.01 s
speedup  0.98
cpu  time for grad    0.01 s
wall time for grad    0.01 s
 E :    -50.44811329  G :  0.014688    pred/act E change: -0.332D-03 -0.507D-03
Maxdispl :   0.1722   ||displ|| :   0.3667   Lambda : -0.840D-03
Largest |displ|/coords:  0.1722 (   8)  0.1046 (   7)  0.1038 (   5)
................................................................................
.............................. CYCLE   30 ......................................
................................................................................
   1    -50.7232152 -0.507232E+02  0.192E-01    8.91       0.0  T
   2    -50.7232492 -0.340215E-04  0.143E-01    8.91       1.0  T
   3    -50.7232628 -0.135905E-04  0.343E-02    8.91       1.0  T
   4    -50.7232670 -0.417780E-05  0.130E-02    8.91       1.5  T
   5    -50.7232673 -0.309826E-06  0.270E-03    8.91       7.3  T
   6    -50.7232673 -0.119111E-07  0.166E-03    8.91      11.8  T
speedup  1.15
cpu  time for SCC    0.01 s
wall time for SCC    0.01 s
speedup  1.06
cpu  time for grad    0.01 s
wall time for grad    0.01 s
 E :    -50.44871744  G :  0.013009    pred/act E change: -0.384D-03 -0.604D-03
Maxdispl :   0.2780   ||displ|| :   0.5081   Lambda : -0.102D-02
Largest |displ|/coords:  0.2780 (   8)  0.1750 (   3)  0.1369 (   7)
................................................................................
.............................. CYCLE   31 ......................................
................................................................................
   1    -50.7236063 -0.507236E+02  0.304E-01    8.89       0.0  T
   2    -50.7236912 -0.848288E-04  0.227E-01    8.88       1.0  T
   3    -50.7237275 -0.363503E-04  0.553E-02    8.87       1.0  T
   4    -50.7237385 -0.109999E-04  0.195E-02    8.87       1.0  T
   5    -50.7237393 -0.821806E-06  0.450E-03    8.87       4.4  T
   6    -50.7237394 -0.302690E-07  0.272E-03    8.87       7.2  T
   7    -50.7237394 -0.127488E-07  0.838E-04    8.87      23.4  T
speedup  0.97
cpu  time for SCC    0.01 s
wall time for SCC    0.01 s
speedup  0.99
cpu  time for grad    0.01 s
wall time for grad    0.01 s
 E :    -50.44930952  G :  0.021825    pred/act E change: -0.477D-03 -0.592D-03
Maxdispl :   0.2109   ||displ|| :   0.3724   Lambda : -0.125D-02
Largest |displ|/coords:  0.2109 (   8)  0.1270 (  10)  0.1237 (   7)
................................................................................
.............................. CYCLE   32 ......................................
................................................................................
   1    -50.7285489 -0.507285E+02  0.209E-01    8.79       0.0  T
   2    -50.7286208 -0.718735E-04  0.154E-01    8.79       1.0  T
   3    -50.7286506 -0.297827E-04  0.502E-02    8.79       1.0  T
   4    -50.7286568 -0.618930E-05  0.161E-02    8.79       1.2  T
   5    -50.7286573 -0.561072E-06  0.418E-03    8.79       4.7  T
   6    -50.7286574 -0.249249E-07  0.236E-03    8.79       8.3  T
speedup  0.94
cpu  time for SCC    0.00 s
wall time for SCC    0.01 s
speedup  0.97
cpu  time for grad    0.01 s
wall time for grad    0.01 s
 E :    -50.44997130  G :  0.020941    pred/act E change: -0.640D-03 -0.662D-03
Maxdispl :   0.1632   ||displ|| :   0.3476   Lambda : -0.995D-03
Largest |displ|/coords:  0.1632 (   8)  0.1514 (   3)  0.1328 (   7)
................................................................................
.............................. CYCLE   33 ......................................
................................................................................
   1    -50.7263196 -0.507263E+02  0.197E-01    8.73       0.0  T
   2    -50.7263739 -0.542773E-04  0.147E-01    8.73       1.0  T
   3    -50.7263960 -0.221397E-04  0.429E-02    8.73       1.0  T
   4    -50.7264020 -0.593710E-05  0.126E-02    8.72       1.6  T
   5    -50.7264024 -0.426233E-06  0.396E-03    8.73       5.0  T
   6    -50.7264024 -0.184228E-07  0.217E-03    8.73       9.1  T
speedup  0.94
cpu  time for SCC    0.01 s
wall time for SCC    0.01 s
speedup  0.98
cpu  time for grad    0.01 s
wall time for grad    0.01 s
 E :    -50.45076286  G :  0.020848    pred/act E change: -0.714D-03 -0.792D-03
Maxdispl :   0.2089   ||displ|| :   0.4700   Lambda : -0.220D-02
Largest |displ|/coords:  0.2089 (   3)  0.1540 (  10)  0.1467 (   8)
................................................................................
.............................. CYCLE   34 ......................................
................................................................................
   1    -50.7340134 -0.507340E+02  0.291E-01    8.83       0.0  T
   2    -50.7341529 -0.139556E-03  0.216E-01    8.82       1.0  T
   3    -50.7342232 -0.702883E-04  0.755E-02    8.81       1.0  T
   4    -50.7342358 -0.125770E-04  0.196E-02    8.81       1.0  T
   5    -50.7342368 -0.104058E-05  0.792E-03    8.81       2.5  T
   6    -50.7342369 -0.668846E-07  0.381E-03    8.81       5.1  T
   7    -50.7342369 -0.382249E-07  0.103E-03    8.81      19.1  T
speedup  0.98
cpu  time for SCC    0.01 s
wall time for SCC    0.01 s
speedup  1.01
cpu  time for grad    0.01 s
wall time for grad    0.01 s
 E :    -50.45162812  G :  0.023511    pred/act E change: -0.558D-03 -0.865D-03
Maxdispl :   0.1651   ||displ|| :   0.3604   Lambda : -0.119D-02
Largest |displ|/coords:  0.1651 (   7)  0.1492 (   8)  0.1442 (   3)
................................................................................
.............................. CYCLE   35 ......................................
................................................................................
   1    -50.7325206 -0.507325E+02  0.213E-01    8.74       0.0  T
   2    -50.7325696 -0.489538E-04  0.157E-01    8.74       1.0  T
   3    -50.7325918 -0.222179E-04  0.408E-02    8.75       1.0  T
   4    -50.7325972 -0.540022E-05  0.140E-02    8.74       1.4  T
   5    -50.7325975 -0.331220E-06  0.381E-03    8.74       5.1  T
   6    -50.7325975 -0.222796E-07  0.223E-03    8.74       8.8  T
speedup  0.94
cpu  time for SCC    0.01 s
wall time for SCC    0.01 s
speedup  0.98
cpu  time for grad    0.01 s
wall time for grad    0.01 s
 E :    -50.45228586  G :  0.019888    pred/act E change: -0.134D-02 -0.658D-03
Maxdispl :   0.0986   ||displ|| :   0.2155   Lambda : -0.134D-02
Largest |displ|/coords:  0.0986 (   7)  0.0798 (   4)  0.0698 (  13)
................................................................................
.............................. CYCLE   36 ......................................
................................................................................
   1    -50.7412100 -0.507412E+02  0.159E-01    8.86       0.0  T
   2    -50.7412250 -0.149347E-04  0.118E-01    8.86       1.0  T
   3    -50.7412366 -0.116672E-04  0.216E-02    8.85       1.0  T
   4    -50.7412383 -0.164496E-05  0.544E-03    8.86       3.6  T
   5    -50.7412383 -0.447491E-07  0.260E-03    8.86       7.6  T
   6    -50.7412383 -0.790612E-08  0.946E-04    8.86      20.7  T
speedup  1.13
cpu  time for SCC    0.01 s
wall time for SCC    0.01 s
speedup  1.06
cpu  time for grad    0.01 s
wall time for grad    0.01 s
 E :    -50.45252322  G :  0.026427    pred/act E change: -0.674D-03 -0.237D-03
Maxdispl :   0.1272   ||displ|| :   0.2455   Lambda : -0.132D-02
Largest |displ|/coords:  0.1272 (   3)  0.0981 (   8)  0.0878 (   5)
................................................................................
.............................. CYCLE   37 ......................................
................................................................................
   1    -50.7414684 -0.507415E+02  0.171E-01    8.84       0.0  T
   2    -50.7414932 -0.248235E-04  0.127E-01    8.86       1.0  T
   3    -50.7415083 -0.150956E-04  0.297E-02    8.88       1.0  T
   4    -50.7415114 -0.315893E-05  0.854E-03    8.87       2.3  T
   5    -50.7415116 -0.145567E-06  0.349E-03    8.87       5.6  T
   6    -50.7415116 -0.156434E-07  0.178E-03    8.87      11.0  T
speedup  0.94
cpu  time for SCC    0.00 s
wall time for SCC    0.01 s
speedup  0.98
cpu  time for grad    0.01 s
wall time for grad    0.01 s
 E :    -50.45309545  G :  0.017794    pred/act E change: -0.699D-03 -0.572D-03
Maxdispl :   0.1730   ||displ|| :   0.2681   Lambda : -0.882D-03
Largest |displ|/coords:  0.1730 (   3)  0.0774 (  10)  0.0602 (   5)
................................................................................
.............................. CYCLE   38 ......................................
................................................................................
   1    -50.7421620 -0.507422E+02  0.184E-01    8.92       0.0  T
   2    -50.7421939 -0.319091E-04  0.137E-01    8.92       1.0  T
   3    -50.7422142 -0.202841E-04  0.389E-02    8.93       1.0  T
   4    -50.7422180 -0.381427E-05  0.110E-02    8.93       1.8  T
   5    -50.7422182 -0.217543E-06  0.407E-03    8.93       4.8  T
   6    -50.7422183 -0.237750E-07  0.208E-03    8.93       9.4  T
   7    -50.7422183 -0.103845E-07  0.579E-04    8.93      33.9  T
speedup  0.97
cpu  time for SCC    0.01 s
wall time for SCC    0.01 s
speedup  0.99
cpu  time for grad    0.01 s
wall time for grad    0.01 s
 E :    -50.45330622  G :  0.015803    pred/act E change: -0.700D-03 -0.211D-03
Maxdispl :   0.0890   ||displ|| :   0.1689   Lambda : -0.474D-03
Largest |displ|/coords:  0.0890 (   8)  0.0523 (   5)  0.0434 (  11)
................................................................................
.............................. CYCLE   39 ......................................
................................................................................
   1    -50.7427044 -0.507427E+02  0.102E-01    8.96       0.0  T
   2    -50.7427151 -0.107665E-04  0.750E-02    8.97       1.0  T
   3    -50.7427217 -0.651460E-05  0.207E-02    8.98       1.0  T
   4    -50.7427228 -0.112931E-05  0.530E-03    8.98       3.7  T
   5    -50.7427228 -0.599656E-07  0.192E-03    8.98      10.2  T
   6    -50.7427228 -0.368652E-08  0.113E-03    8.98      17.4  T
speedup  1.13
cpu  time for SCC    0.01 s
wall time for SCC    0.01 s
speedup  1.06
cpu  time for grad    0.01 s
wall time for grad    0.01 s
 E :    -50.45351091  G :  0.009768    pred/act E change: -0.473D-03 -0.205D-03
Maxdispl :   0.1131   ||displ|| :   0.2022   Lambda : -0.389D-03
Largest |displ|/coords:  0.1131 (   3)  0.0909 (   8)  0.0730 (   6)
................................................................................
.............................. CYCLE   40 ......................................
................................................................................
   1    -50.7419500 -0.507419E+02  0.134E-01    8.87       0.0  T
   2    -50.7419567 -0.673456E-05  0.970E-02    8.86       1.0  T
   3    -50.7419603 -0.356605E-05  0.214E-02    8.85       1.0  T
   4    -50.7419610 -0.689848E-06  0.566E-03    8.86       3.5  T
   5    -50.7419610 -0.470293E-07  0.137E-03    8.86      14.3  T
   6    -50.7419610 -0.262721E-08  0.804E-04    8.86      24.4  T
speedup  0.93
cpu  time for SCC    0.00 s
wall time for SCC    0.01 s
speedup  0.98
cpu  time for grad    0.01 s
wall time for grad    0.01 s
 E :    -50.45345053  G :  0.013209    pred/act E change: -0.244D-03  0.604D-04
Maxdispl :   0.0413   ||displ|| :   0.1086   Lambda : -0.418D-03
Largest |displ|/coords:  0.0413 (   8)  0.0350 (  16)  0.0321 (   9)
................................................................................
.............................. CYCLE   41 ......................................
................................................................................
   1    -50.7429209 -0.507429E+02  0.819E-02    8.91       0.0  T
   2    -50.7429237 -0.283431E-05  0.598E-02    8.92       1.0  T
   3    -50.7429255 -0.178142E-05  0.113E-02    8.93       1.7  T
   4    -50.7429258 -0.322298E-06  0.308E-03    8.93       6.4  T
   5    -50.7429258 -0.124131E-07  0.111E-03    8.93      17.6  T
   6    -50.7429258 -0.209530E-08  0.485E-04    8.93      40.5  T
speedup  0.94
cpu  time for SCC    0.00 s
wall time for SCC    0.01 s
speedup  0.98
cpu  time for grad    0.01 s
wall time for grad    0.01 s
 E :    -50.45368846  G :  0.004771    pred/act E change: -0.202D-03 -0.238D-03
Maxdispl :   0.0680   ||displ|| :   0.1154   Lambda : -0.830D-04
Largest |displ|/coords:  0.0680 (   3)  0.0455 (   5)  0.0304 (   1)
................................................................................
.............................. CYCLE   42 ......................................
................................................................................
   1    -50.7427381 -0.507427E+02  0.592E-02    8.94       0.0  T
   2    -50.7427396 -0.142305E-05  0.437E-02    8.95       1.0  T
   3    -50.7427405 -0.906888E-06  0.749E-03    8.96       2.6  T
   4    -50.7427407 -0.188960E-06  0.235E-03    8.96       8.3  T
   5    -50.7427407 -0.754164E-08  0.878E-04    8.96      22.3  T
speedup  0.91
cpu  time for SCC    0.00 s
wall time for SCC    0.00 s
speedup  0.97
cpu  time for grad    0.01 s
wall time for grad    0.01 s
 E :    -50.45374618  G :  0.004424    pred/act E change: -0.211D-03 -0.577D-04
Maxdispl :   0.1078   ||displ|| :   0.1979   Lambda : -0.117D-03
Largest |displ|/coords:  0.1078 (   3)  0.0748 (   1)  0.0530 (   5)
................................................................................
.............................. CYCLE   43 ......................................
................................................................................
   1    -50.7422737 -0.507423E+02  0.930E-02    8.95       0.0  T
   2    -50.7422756 -0.191684E-05  0.693E-02    8.96       1.0  T
   3    -50.7422774 -0.183258E-05  0.846E-03    8.97       2.3  T
   4    -50.7422776 -0.185128E-06  0.281E-03    8.97       7.0  T
   5    -50.7422776 -0.122088E-07  0.979E-04    8.97      20.0  T
speedup  1.11
cpu  time for SCC    0.00 s
wall time for SCC    0.00 s
speedup  1.05
cpu  time for grad    0.01 s
wall time for grad    0.01 s
 E :    -50.45381755  G :  0.005655    pred/act E change: -0.420D-04 -0.714D-04
Maxdispl :   0.0690   ||displ|| :   0.1285   Lambda : -0.648D-04
Largest |displ|/coords:  0.0690 (   3)  0.0628 (   1)  0.0362 (  15)
................................................................................
.............................. CYCLE   44 ......................................
................................................................................
   1    -50.7422485 -0.507422E+02  0.645E-02    8.95       0.0  T
   2    -50.7422497 -0.124939E-05  0.475E-02    8.96       1.0  T
   3    -50.7422507 -0.987558E-06  0.794E-03    8.97       2.5  T
   4    -50.7422508 -0.142088E-06  0.217E-03    8.97       9.1  T
   5    -50.7422509 -0.798561E-08  0.823E-04    8.97      23.8  T
speedup  1.11
cpu  time for SCC    0.00 s
wall time for SCC    0.00 s
speedup  1.05
cpu  time for grad    0.01 s
wall time for grad    0.01 s
 E :    -50.45386138  G :  0.004242    pred/act E change: -0.609D-04 -0.438D-04
Maxdispl :   0.0668   ||displ|| :   0.1247   Lambda : -0.624D-04
Largest |displ|/coords:  0.0668 (   1)  0.0574 (   3)  0.0391 (  15)
................................................................................
.............................. CYCLE   45 ......................................
................................................................................
   1    -50.7418404 -0.507418E+02  0.601E-02    8.98       0.0  T
   2    -50.7418412 -0.801676E-06  0.442E-02    8.98       1.0  T
   3    -50.7418419 -0.729597E-06  0.807E-03    8.99       2.4  T
   4    -50.7418420 -0.832727E-07  0.205E-03    8.99       9.5  T
   5    -50.7418420 -0.723239E-08  0.685E-04    8.99      28.6  T
speedup  1.11
cpu  time for SCC    0.00 s
wall time for SCC    0.00 s
speedup  1.05
cpu  time for grad    0.01 s
wall time for grad    0.01 s
 E :    -50.45389932  G :  0.004185    pred/act E change: -0.329D-04 -0.379D-04
Maxdispl :   0.0772   ||displ|| :   0.1094   Lambda : -0.465D-04
Largest |displ|/coords:  0.0772 (   1)  0.0386 (   3)  0.0360 (  15)
................................................................................
.............................. CYCLE   46 ......................................
................................................................................
   1    -50.7419322 -0.507419E+02  0.518E-02    8.98       0.0  T
   2    -50.7419333 -0.109999E-05  0.377E-02    8.98       1.0  T
   3    -50.7419340 -0.715776E-06  0.872E-03    8.99       2.2  T
   4    -50.7419342 -0.134824E-06  0.217E-03    8.99       9.0  T
   5    -50.7419342 -0.705985E-08  0.705E-04    8.99      27.8  T
speedup  1.14
cpu  time for SCC    0.00 s
wall time for SCC    0.00 s
speedup  1.05
cpu  time for grad    0.01 s
wall time for grad    0.01 s
 E :    -50.45393082  G :  0.003476    pred/act E change: -0.317D-04 -0.315D-04
Maxdispl :   0.0829   ||displ|| :   0.1200   Lambda : -0.425D-04
Largest |displ|/coords:  0.0829 (   1)  0.0441 (  15)  0.0320 (   3)
................................................................................
.............................. CYCLE   47 ......................................
................................................................................
   1    -50.7420941 -0.507421E+02  0.556E-02    9.00       0.0  T
   2    -50.7420951 -0.928964E-06  0.414E-02    9.00       1.0  T
   3    -50.7420957 -0.690492E-06  0.734E-03    9.01       2.7  T
   4    -50.7420959 -0.124274E-06  0.220E-03    9.01       8.9  T
   5    -50.7420959 -0.525491E-08  0.621E-04    9.01      31.6  T
   6    -50.7420959 -0.608225E-09  0.368E-04    9.01      53.3  T
speedup  0.93
cpu  time for SCC    0.00 s
wall time for SCC    0.01 s
speedup  0.94
cpu  time for grad    0.01 s
wall time for grad    0.01 s
 E :    -50.45396229  G :  0.003610    pred/act E change: -0.235D-04 -0.315D-04
Maxdispl :   0.1355   ||displ|| :   0.1969   Lambda : -0.613D-04
Largest |displ|/coords:  0.1355 (   1)  0.0659 (  15)  0.0558 (   3)
................................................................................
.............................. CYCLE   48 ......................................
................................................................................
   1    -50.7419789 -0.507420E+02  0.881E-02    9.01       0.0  T
   2    -50.7419809 -0.193019E-05  0.663E-02    9.02       1.0  T
   3    -50.7419828 -0.189401E-05  0.878E-03    9.02       2.2  T
   4    -50.7419830 -0.214302E-06  0.348E-03    9.02       5.6  T
   5    -50.7419830 -0.138515E-07  0.938E-04    9.02      20.9  T
   6    -50.7419830 -0.118957E-08  0.593E-04    9.02      33.1  T
speedup  1.11
cpu  time for SCC    0.01 s
wall time for SCC    0.01 s
speedup  1.01
cpu  time for grad    0.01 s
wall time for grad    0.01 s
 E :    -50.45400217  G :  0.003961    pred/act E change: -0.216D-04 -0.399D-04
Maxdispl :   0.1643   ||displ|| :   0.2234   Lambda : -0.625D-04
Largest |displ|/coords:  0.1643 (   1)  0.0796 (  15)  0.0528 (   3)
................................................................................
.............................. CYCLE   49 ......................................
................................................................................
   1    -50.7416684 -0.507417E+02  0.103E-01    9.01       0.0  T
   2    -50.7416707 -0.230484E-05  0.771E-02    9.01       1.0  T
   3    -50.7416730 -0.227215E-05  0.980E-03    9.01       2.0  T
   4    -50.7416732 -0.228228E-06  0.352E-03    9.01       5.6  T
   5    -50.7416732 -0.145905E-07  0.100E-03    9.01      19.6  T
   6    -50.7416732 -0.140123E-08  0.610E-04    9.01      32.1  T
speedup  0.94
cpu  time for SCC    0.00 s
wall time for SCC    0.01 s
speedup  1.01
cpu  time for grad    0.01 s
wall time for grad    0.01 s
 E :    -50.45404391  G :  0.004790    pred/act E change: -0.318D-04 -0.417D-04
Maxdispl :   0.1627   ||displ|| :   0.2243   Lambda : -0.712D-04
Largest |displ|/coords:  0.1627 (   1)  0.0685 (  15)  0.0544 (  10)
................................................................................
.............................. CYCLE   50 ......................................
................................................................................
   1    -50.7417011 -0.507417E+02  0.104E-01    9.00       0.0  T
   2    -50.7417028 -0.176252E-05  0.775E-02    9.00       1.0  T
   3    -50.7417050 -0.216340E-05  0.995E-03    9.00       2.0  T
   4    -50.7417051 -0.889622E-07  0.210E-03    9.00       9.3  T
   5    -50.7417051 -0.788249E-08  0.952E-04    9.00      20.6  T
speedup  1.11
cpu  time for SCC    0.00 s
wall time for SCC    0.00 s
speedup  1.04
cpu  time for grad    0.01 s
wall time for grad    0.01 s
 E :    -50.45409922  G :  0.004194    pred/act E change: -0.328D-04 -0.553D-04
Maxdispl :   0.2519   ||displ|| :   0.3515   Lambda : -0.102D-03
Largest |displ|/coords:  0.2519 (   1)  0.1149 (   3)  0.0994 (  15)
................................................................................
.............................. CYCLE   51 ......................................
................................................................................
   1    -50.7403944 -0.507404E+02  0.156E-01    8.97       0.0  T
   2    -50.7403982 -0.376482E-05  0.116E-01    8.97       1.0  T
   3    -50.7404028 -0.456621E-05  0.155E-02    8.96       1.3  T
   4    -50.7404030 -0.193608E-06  0.280E-03    8.96       7.0  T
   5    -50.7404030 -0.144071E-07  0.152E-03    8.96      12.9  T
speedup  1.14
cpu  time for SCC    0.00 s
wall time for SCC    0.00 s
speedup  0.97
cpu  time for grad    0.01 s
wall time for grad    0.01 s
 E :    -50.45417425  G :  0.005329    pred/act E change: -0.374D-04 -0.750D-04
Maxdispl :   0.2241   ||displ|| :   0.3305   Lambda : -0.159D-03
Largest |displ|/coords:  0.2241 (   1)  0.0948 (   2)  0.0936 (   6)
................................................................................
.............................. CYCLE   52 ......................................
................................................................................
   1    -50.7432382 -0.507432E+02  0.144E-01    8.98       0.0  T
   2    -50.7432447 -0.650414E-05  0.105E-01    8.97       1.0  T
   3    -50.7432490 -0.428558E-05  0.187E-02    8.94       1.1  T
   4    -50.7432498 -0.760419E-06  0.538E-03    8.95       3.6  T
   5    -50.7432498 -0.432297E-07  0.151E-03    8.95      13.0  T
   6    -50.7432498 -0.378680E-08  0.836E-04    8.94      23.5  T
speedup  0.93
cpu  time for SCC    0.00 s
wall time for SCC    0.01 s
speedup  0.96
cpu  time for grad    0.01 s
wall time for grad    0.01 s
 E :    -50.45423165  G :  0.007436    pred/act E change: -0.571D-04 -0.574D-04
Maxdispl :   0.3156   ||displ|| :   0.4458   Lambda : -0.177D-03
Largest |displ|/coords:  0.3156 (   1)  0.1887 (   3)  0.1073 (  15)

generating ANC from model Hessian ...
 Shifting diagonal of input Hessian by   5.102950365274426E-003
 Lowest  eigenvalues of input Hessian
    0.005000   -0.000000   -0.000000   -0.000000   -0.000000    0.000000
    0.000000    0.005245    0.005522    0.005912    0.006154    0.006416
    0.006466    0.006769    0.007240    0.008288    0.008964    0.009909
 Highest eigenvalues
    1.390278    1.391422    1.395375    2.710011    3.234002    3.732015
 
cpu  time for ANC gen    0.02 s
wall time for ANC gen    0.02 s
................................................................................
.............................. CYCLE   53 ......................................
................................................................................
   1    -50.7395023 -0.507395E+02  0.187E-01    8.90       0.0  T
   2    -50.7395077 -0.546125E-05  0.139E-01    8.91       1.0  T
   3    -50.7395142 -0.644259E-05  0.161E-02    8.91       1.2  T
   4    -50.7395145 -0.288414E-06  0.329E-03    8.91       6.0  T
   5    -50.7395145 -0.133952E-07  0.193E-03    8.91      10.2  T
   6    -50.7395145 -0.496197E-08  0.734E-04    8.91      26.7  T
   7    -50.7395145 -0.837801E-09  0.157E-04    8.91     124.6  T
speedup  0.97
cpu  time for SCC    0.01 s
wall time for SCC    0.01 s
speedup  0.95
cpu  time for grad    0.01 s
wall time for grad    0.01 s
 E :    -50.45434687  G :  0.008312    pred/act E change:  0.000D+00 -0.115D-03
Maxdispl :   0.0827   ||displ|| :   0.1438   Lambda : -0.278D-03
Largest |displ|/coords:  0.0827 (   1)  0.0726 (   8)  0.0481 (   7)
................................................................................
.............................. CYCLE   54 ......................................
................................................................................
   1    -50.7419458 -0.507419E+02  0.915E-02    8.95       0.0  T
   2    -50.7419474 -0.156214E-05  0.677E-02    8.95       1.0  T
   3    -50.7419487 -0.126085E-05  0.683E-03    8.96       2.9  T
   4    -50.7419488 -0.139302E-06  0.268E-03    8.95       7.3  T
   5    -50.7419488 -0.709367E-08  0.789E-04    8.95      24.8  T
speedup  0.89
cpu  time for SCC    0.00 s
wall time for SCC    0.00 s
speedup  0.96
cpu  time for grad    0.01 s
wall time for grad    0.01 s
 E :    -50.45455745  G :  0.004164    pred/act E change:  0.000D+00 -0.211D-03
Maxdispl :   0.2268   ||displ|| :   0.3491   Lambda : -0.396D-03
Largest |displ|/coords:  0.2268 (   1)  0.1743 (   8)  0.1282 (   7)
................................................................................
.............................. CYCLE   55 ......................................
................................................................................
   1    -50.7434332 -0.507434E+02  0.202E-01    9.01       0.0  T
   2    -50.7434409 -0.763669E-05  0.149E-01    9.02       1.0  T
   3    -50.7434468 -0.597722E-05  0.133E-02    9.03       1.5  T
   4    -50.7434475 -0.657965E-06  0.536E-03    9.03       3.7  T
   5    -50.7434475 -0.311064E-07  0.172E-03    9.02      11.4  T
   6    -50.7434475 -0.324862E-08  0.909E-04    9.02      21.6  T
speedup  0.94
cpu  time for SCC    0.00 s
wall time for SCC    0.01 s
speedup  0.98
cpu  time for grad    0.01 s
wall time for grad    0.01 s
 E :    -50.45479106  G :  0.008419    pred/act E change: -0.142D-03 -0.234D-03
Maxdispl :   0.1956   ||displ|| :   0.2557   Lambda : -0.218D-03
Largest |displ|/coords:  0.1956 (   1)  0.1021 (   8)  0.0560 (   7)
................................................................................
.............................. CYCLE   56 ......................................
................................................................................
   1    -50.7430566 -0.507431E+02  0.119E-01    9.05       0.0  T
   2    -50.7430584 -0.186427E-05  0.881E-02    9.05       1.0  T
   3    -50.7430604 -0.197186E-05  0.678E-03    9.06       2.9  T
   4    -50.7430605 -0.606306E-07  0.215E-03    9.06       9.1  T
   5    -50.7430605 -0.506586E-08  0.858E-04    9.06      22.8  T
speedup  0.89
cpu  time for SCC    0.00 s
wall time for SCC    0.00 s
speedup  0.97
cpu  time for grad    0.01 s
wall time for grad    0.01 s
 E :    -50.45494671  G :  0.010815    pred/act E change: -0.222D-03 -0.156D-03
Maxdispl :   0.3059   ||displ|| :   0.3764   Lambda : -0.409D-03
Largest |displ|/coords:  0.3059 (   1)  0.1098 (   2)  0.0880 (   9)
................................................................................
.............................. CYCLE   57 ......................................
................................................................................
   1    -50.7441561 -0.507442E+02  0.137E-01    9.10       0.0  T
   2    -50.7441603 -0.420482E-05  0.102E-01    9.09       1.0  T
   3    -50.7441630 -0.274857E-05  0.115E-02    9.09       1.7  T
   4    -50.7441636 -0.522259E-06  0.371E-03    9.09       5.3  T
   5    -50.7441636 -0.127893E-07  0.128E-03    9.09      15.3  T
   6    -50.7441636 -0.174690E-08  0.582E-04    9.09      33.7  T
speedup  0.93
cpu  time for SCC    0.00 s
wall time for SCC    0.01 s
speedup  0.98
cpu  time for grad    0.01 s
wall time for grad    0.01 s
 E :    -50.45519016  G :  0.006027    pred/act E change: -0.116D-03 -0.243D-03
Maxdispl :   0.4037   ||displ|| :   0.5015   Lambda : -0.342D-03
Largest |displ|/coords:  0.4037 (   1)  0.1863 (   8)  0.1014 (   7)
................................................................................
.............................. CYCLE   58 ......................................
................................................................................
   1    -50.7394873 -0.507395E+02  0.233E-01    9.06       0.0  T
   2    -50.7394956 -0.826880E-05  0.172E-01    9.07       1.0  T
   3    -50.7395028 -0.720115E-05  0.133E-02    9.08       1.5  T
   4    -50.7395034 -0.572559E-06  0.575E-03    9.08       3.4  T
   5    -50.7395034 -0.270246E-07  0.173E-03    9.07      11.3  T
   6    -50.7395034 -0.333083E-08  0.823E-04    9.07      23.8  T
speedup  0.74
cpu  time for SCC    0.00 s
wall time for SCC    0.01 s
speedup  0.90
cpu  time for grad    0.01 s
wall time for grad    0.01 s
 E :    -50.45528071  G :  0.013944    pred/act E change: -0.234D-03 -0.906D-04
Maxdispl :   0.0575   ||displ|| :   0.1199   Lambda : -0.347D-03
Largest |displ|/coords:  0.0575 (   8)  0.0511 (   1)  0.0414 (   7)
................................................................................
.............................. CYCLE   59 ......................................
................................................................................
   1    -50.7428536 -0.507429E+02  0.817E-02    9.06       0.0  T
   2    -50.7428564 -0.279387E-05  0.597E-02    9.05       1.0  T
   3    -50.7428577 -0.134310E-05  0.110E-02    9.04       1.8  T
   4    -50.7428581 -0.384200E-06  0.260E-03    9.05       7.5  T
   5    -50.7428581 -0.986451E-08  0.924E-04    9.05      21.2  T
speedup  0.91
cpu  time for SCC    0.00 s
wall time for SCC    0.00 s
speedup  0.97
cpu  time for grad    0.01 s
wall time for grad    0.01 s
 E :    -50.45545672  G :  0.004256    pred/act E change: -0.214D-03 -0.176D-03
Maxdispl :   0.1217   ||displ|| :   0.1550   Lambda : -0.101D-03
Largest |displ|/coords:  0.1217 (   1)  0.0491 (   3)  0.0335 (   7)
................................................................................
.............................. CYCLE   60 ......................................
................................................................................
   1    -50.7425886 -0.507426E+02  0.894E-02    9.03       0.0  T
   2    -50.7425896 -0.954655E-06  0.664E-02    9.03       1.0  T
   3    -50.7425905 -0.950813E-06  0.713E-03    9.03       2.8  T
   4    -50.7425906 -0.616552E-07  0.212E-03    9.03       9.3  T
   5    -50.7425906 -0.484108E-08  0.699E-04    9.03      28.1  T
speedup  0.89
cpu  time for SCC    0.00 s
wall time for SCC    0.00 s
speedup  0.96
cpu  time for grad    0.01 s
wall time for grad    0.01 s
 E :    -50.45553404  G :  0.003602    pred/act E change: -0.176D-03 -0.773D-04
Maxdispl :   0.1854   ||displ|| :   0.2364   Lambda : -0.119D-03
Largest |displ|/coords:  0.1854 (   1)  0.0668 (   3)  0.0645 (   7)
................................................................................
.............................. CYCLE   61 ......................................
................................................................................
   1    -50.7421818 -0.507422E+02  0.137E-01    9.00       0.0  T
   2    -50.7421842 -0.245853E-05  0.102E-01    9.00       1.0  T
   3    -50.7421868 -0.255302E-05  0.117E-02    9.00       1.7  T
   4    -50.7421869 -0.133771E-06  0.335E-03    9.00       5.9  T
   5    -50.7421869 -0.144898E-07  0.115E-03    9.00      17.1  T
   6    -50.7421869 -0.142416E-08  0.605E-04    9.00      32.4  T
   7    -50.7421870 -0.451280E-09  0.144E-04    9.00     136.4  T
speedup  0.97
cpu  time for SCC    0.01 s
wall time for SCC    0.01 s
speedup  1.02
cpu  time for grad    0.01 s
wall time for grad    0.01 s
 E :    -50.45559828  G :  0.004226    pred/act E change: -0.516D-04 -0.642D-04
Maxdispl :   0.0215   ||displ|| :   0.0557   Lambda : -0.367D-04
Largest |displ|/coords:  0.0215 (  10)  0.0177 (  12)  0.0171 (   4)
................................................................................
.............................. CYCLE   62 ......................................
................................................................................
   1    -50.7429921 -0.507430E+02  0.303E-02    9.01       0.0  T
   2    -50.7429923 -0.263452E-06  0.224E-02    9.01       1.0  T
   3    -50.7429926 -0.204084E-06  0.422E-03    9.01       4.6  T
   4    -50.7429926 -0.310342E-07  0.129E-03    9.02      15.2  T
   5    -50.7429926 -0.233983E-08  0.330E-04    9.02      59.4  T
speedup  1.11
cpu  time for SCC    0.00 s
wall time for SCC    0.00 s
speedup  1.04
cpu  time for grad    0.01 s
wall time for grad    0.01 s
 E :    -50.45562098  G :  0.003098    pred/act E change: -0.627D-04 -0.227D-04
Maxdispl :   0.0318   ||displ|| :   0.0791   Lambda : -0.320D-04
Largest |displ|/coords:  0.0318 (   3)  0.0283 (   1)  0.0260 (   7)
................................................................................
.............................. CYCLE   63 ......................................
................................................................................
   1    -50.7435910 -0.507436E+02  0.544E-02    9.04       0.0  T
   2    -50.7435915 -0.496988E-06  0.407E-02    9.04       1.0  T
   3    -50.7435920 -0.492168E-06  0.533E-03    9.04       3.7  T
   4    -50.7435920 -0.505847E-07  0.166E-03    9.04      11.8  T
   5    -50.7435920 -0.358240E-08  0.508E-04    9.04      38.6  T
   6    -50.7435920 -0.317414E-09  0.304E-04    9.04      64.5  T
speedup  1.13
cpu  time for SCC    0.01 s
wall time for SCC    0.01 s
speedup  1.01
cpu  time for grad    0.01 s
wall time for grad    0.01 s
 E :    -50.45564258  G :  0.002403    pred/act E change: -0.184D-04 -0.216D-04
Maxdispl :   0.0285   ||displ|| :   0.0722   Lambda : -0.235D-04
Largest |displ|/coords:  0.0285 (   4)  0.0248 (  16)  0.0220 (   7)
................................................................................
.............................. CYCLE   64 ......................................
................................................................................
   1    -50.7439514 -0.507440E+02  0.434E-02    9.06       0.0  T
   2    -50.7439519 -0.489478E-06  0.322E-02    9.06       1.0  T
   3    -50.7439523 -0.407215E-06  0.522E-03    9.07       3.8  T
   4    -50.7439523 -0.584238E-07  0.156E-03    9.07      12.6  T
   5    -50.7439523 -0.358333E-08  0.497E-04    9.07      39.5  T
   6    -50.7439523 -0.410367E-09  0.275E-04    9.07      71.3  T
speedup  0.93
cpu  time for SCC    0.00 s
wall time for SCC    0.01 s
speedup  0.99
cpu  time for grad    0.01 s
wall time for grad    0.01 s
 E :    -50.45565613  G :  0.001501    pred/act E change: -0.161D-04 -0.136D-04
Maxdispl :   0.0231   ||displ|| :   0.0429   Lambda : -0.874D-05
Largest |displ|/coords:  0.0231 (   2)  0.0164 (  16)  0.0136 (   4)
................................................................................
.............................. CYCLE   65 ......................................
................................................................................
   1    -50.7438397 -0.507438E+02  0.272E-02    9.07       0.0  T
   2    -50.7438398 -0.124139E-06  0.205E-02    9.07       1.0  T
   3    -50.7438400 -0.123434E-06  0.235E-03    9.07       8.3  T
   4    -50.7438400 -0.133190E-07  0.752E-04    9.07      26.1  T
   5    -50.7438400 -0.691422E-09  0.263E-04    9.07      74.6  T
speedup  0.89
cpu  time for SCC    0.00 s
wall time for SCC    0.00 s
speedup  1.00
cpu  time for grad    0.01 s
wall time for grad    0.01 s
 E :    -50.45566157  G :  0.001492    pred/act E change: -0.118D-04 -0.543D-05
[...]
................................................................................
   1    -50.7437179 -0.507437E+02  0.845E-03    9.06       0.0  T
   2    -50.7437179 -0.176326E-07  0.626E-03    9.06       3.1  T
   3    -50.7437179 -0.117987E-07  0.110E-03    9.06      17.9  T
   4    -50.7437180 -0.247891E-08  0.246E-04    9.06      79.7  T
   5    -50.7437180 -0.107804E-09  0.854E-05    9.06     229.6  T
speedup  1.14
cpu  time for SCC    0.00 s
wall time for SCC    0.00 s
speedup  1.01
cpu  time for grad    0.01 s
wall time for grad    0.01 s
 E :    -50.45566872  G :  0.000626    pred/act E change: -0.178D-05 -0.116D-05
Maxdispl :   0.0161   ||displ|| :   0.0207   Lambda : -0.166D-05
Largest |displ|/coords:  0.0161 (   2)  0.0062 (   7)  0.0043 (   1)
................................................................................
.............................. CYCLE   69 ......................................
................................................................................
   1    -50.7437443 -0.507437E+02  0.120E-02    9.06       0.0  T
   2    -50.7437444 -0.234923E-07  0.889E-03    9.06       2.2  T
   3    -50.7437444 -0.177392E-07  0.129E-03    9.06      15.2  T
   4    -50.7437444 -0.315831E-08  0.310E-04    9.06      63.2  T
   5    -50.7437444 -0.157030E-09  0.100E-04    9.06     195.2  T
speedup  0.91
cpu  time for SCC    0.00 s
wall time for SCC    0.00 s
speedup  1.01
cpu  time for grad    0.01 s
wall time for grad    0.01 s
 E :    -50.45566984  G :  0.000511    pred/act E change: -0.836D-06 -0.112D-05
Maxdispl :   0.0206   ||displ|| :   0.0254   Lambda : -0.129D-05
Largest |displ|/coords:  0.0206 (   2)  0.0073 (   7)  0.0057 (   1)
................................................................................
.............................. CYCLE   70 ......................................
................................................................................
   1    -50.7438515 -0.507439E+02  0.162E-02    9.06       0.0  T
   2    -50.7438515 -0.311828E-07  0.121E-02    9.06       1.6  T
   3    -50.7438515 -0.349796E-07  0.129E-03    9.06      15.2  T
   4    -50.7438515 -0.261031E-08  0.380E-04    9.06      51.6  T
   5    -50.7438515 -0.226848E-09  0.124E-04    9.06     158.4  T
speedup  0.89
cpu  time for SCC    0.00 s
wall time for SCC    0.00 s
speedup  1.00
cpu  time for grad    0.01 s
wall time for grad    0.01 s
 E :    -50.45567078  G :  0.000578    pred/act E change: -0.830D-06 -0.944D-06
Maxdispl :   0.0288   ||displ|| :   0.0358   Lambda : -0.147D-05
Largest |displ|/coords:  0.0288 (   2)  0.0112 (   7)  0.0085 (   1)
................................................................................
.............................. CYCLE   71 ......................................
................................................................................
   1    -50.7439001 -0.507439E+02  0.222E-02    9.07       0.0  T
   2    -50.7439001 -0.482947E-07  0.167E-02    9.06       1.2  T
   3    -50.7439002 -0.608867E-07  0.153E-03    9.06      12.8  T
   4    -50.7439002 -0.266387E-08  0.464E-04    9.07      42.2  T
   5    -50.7439002 -0.337131E-09  0.179E-04    9.06     109.6  T
speedup  1.06
cpu  time for SCC    0.00 s
wall time for SCC    0.00 s
speedup  1.05
cpu  time for grad    0.01 s
wall time for grad    0.01 s
 E :    -50.45567185  G :  0.000535    pred/act E change: -0.645D-06 -0.106D-05
Maxdispl :   0.0304   ||displ|| :   0.0376   Lambda : -0.129D-05
Largest |displ|/coords:  0.0304 (   2)  0.0134 (   7)  0.0088 (   9)
................................................................................
.............................. CYCLE   72 ......................................
................................................................................
   1    -50.7439478 -0.507439E+02  0.238E-02    9.07       0.0  T
   2    -50.7439478 -0.497758E-07  0.179E-02    9.07       1.1  T
   3    -50.7439479 -0.670052E-07  0.134E-03    9.07      14.7  T
   4    -50.7439479 -0.187370E-08  0.426E-04    9.07      46.0  T
   5    -50.7439479 -0.242508E-09  0.187E-04    9.07     104.6  T
speedup  1.11
cpu  time for SCC    0.00 s
wall time for SCC    0.00 s
speedup  1.00
cpu  time for grad    0.01 s
wall time for grad    0.01 s
 E :    -50.45567277  G :  0.000492    pred/act E change: -0.735D-06 -0.922D-06
Maxdispl :   0.0233   ||displ|| :   0.0303   Lambda : -0.956D-06
Largest |displ|/coords:  0.0233 (   2)  0.0117 (   7)  0.0090 (   9)
................................................................................
.............................. CYCLE   73 ......................................
................................................................................
   1    -50.7438992 -0.507439E+02  0.181E-02    9.07       0.0  T
   2    -50.7438992 -0.283387E-07  0.136E-02    9.07       1.4  T
   3    -50.7438993 -0.376308E-07  0.982E-04    9.07      20.0  T
   4    -50.7438993 -0.112173E-08  0.294E-04    9.07      66.7  T
speedup  0.83
cpu  time for SCC    0.00 s
wall time for SCC    0.00 s
speedup  0.90
cpu  time for grad    0.01 s
wall time for grad    0.01 s
 E :    -50.45567346  G :  0.000370    pred/act E change: -0.645D-06 -0.691D-06
Maxdispl :   0.0129   ||displ|| :   0.0187   Lambda : -0.605D-06
Largest |displ|/coords:  0.0129 (   2)  0.0082 (   7)  0.0066 (   9)
................................................................................
.............................. CYCLE   74 ......................................
................................................................................
   1    -50.7438629 -0.507439E+02  0.109E-02    9.07       0.0  T
   2    -50.7438629 -0.116820E-07  0.821E-03    9.07       2.4  T
   3    -50.7438629 -0.138276E-07  0.595E-04    9.07      33.0  T
   4    -50.7438629 -0.702592E-09  0.199E-04    9.07      98.8  T
speedup  1.11
cpu  time for SCC    0.00 s
wall time for SCC    0.00 s
speedup  0.99
cpu  time for grad    0.01 s
wall time for grad    0.01 s
 E :    -50.45567388  G :  0.000254    pred/act E change: -0.478D-06 -0.417D-06
Maxdispl :   0.0097   ||displ|| :   0.0142   Lambda : -0.295D-06
Largest |displ|/coords:  0.0097 (   2)  0.0063 (   7)  0.0044 (   9)
................................................................................
.............................. CYCLE   75 ......................................
................................................................................
   1    -50.7437943 -0.507438E+02  0.765E-03    9.06       0.0  T
   2    -50.7437943 -0.634454E-08  0.575E-03    9.06       3.4  T
   3    -50.7437943 -0.748629E-08  0.502E-04    9.06      39.1  T
   4    -50.7437943 -0.398934E-09  0.156E-04    9.06     125.4  T
speedup  1.14
cpu  time for SCC    0.00 s
wall time for SCC    0.00 s
speedup  1.00
cpu  time for grad    0.01 s
wall time for grad    0.01 s
 E :    -50.45567408  G :  0.000218    pred/act E change: -0.302D-06 -0.205D-06
Maxdispl :   0.0045   ||displ|| :   0.0078   Lambda : -0.161D-06
Largest |displ|/coords:  0.0045 (   2)  0.0036 (   7)  0.0025 (   6)
................................................................................
.............................. CYCLE   76 ......................................
................................................................................
   1    -50.7438010 -0.507438E+02  0.458E-03    9.06       0.0  T
   2    -50.7438010 -0.260123E-08  0.343E-03    9.06       5.7  T
   3    -50.7438010 -0.280214E-08  0.325E-04    9.06      60.4  T
   4    -50.7438010 -0.203983E-09  0.104E-04    9.06     188.0  T
speedup  0.86
cpu  time for SCC    0.00 s
wall time for SCC    0.00 s
speedup  0.99
cpu  time for grad    0.01 s
wall time for grad    0.01 s
 E :    -50.45567419  G :  0.000190    pred/act E change: -0.147D-06 -0.108D-06
Maxdispl :   0.0042   ||displ|| :   0.0069   Lambda : -0.961D-07
Largest |displ|/coords:  0.0042 (   2)  0.0028 (   7)  0.0025 (   1)
................................................................................
.............................. CYCLE   77 ......................................
................................................................................
   1    -50.7438023 -0.507438E+02  0.361E-03    9.06       0.0  T
   2    -50.7438023 -0.207664E-08  0.269E-03    9.06       7.3  T
   3    -50.7438023 -0.215962E-08  0.378E-04    9.06      51.9  T
   4    -50.7438023 -0.183611E-09  0.953E-05    9.06     205.8  T
speedup  0.83
cpu  time for SCC    0.00 s
wall time for SCC    0.00 s
speedup  0.99
cpu  time for grad    0.01 s
wall time for grad    0.01 s
 E :    -50.45567426  G :  0.000142    pred/act E change: -0.805D-07 -0.670D-07
Maxdispl :   0.0017   ||displ|| :   0.0035   Lambda : -0.646D-07
Largest |displ|/coords:  0.0017 (   2)  0.0017 (   1)  0.0011 (   5)

   *** GEOMETRY OPTIMIZATION CONVERGED AFTER 77 ITERATIONS ***

------------------------------------------------------------------------
 total energy gain (kcal):     -0.8329
------------------------------------------------------------------------
================
 final structure:
================
$coord
        2.41100004678634       -2.66918829331409        0.76208639714693      S 
        2.37503437304527       -0.94648203038537        3.11117130622998      O 
        0.73625590024265       -1.61854305597212       -1.11424264238915      O 
        4.95461646820223       -3.03893126428598       -0.07822581467491      O 
        1.31238267054983       -5.16498330456212        1.73116114451978      O 
       -0.50631416459226       -4.67509573015598        2.32636453181006      H 
        1.80589164520785        4.38349936083068       -2.10894032450776      O 
        2.77735334689515        5.91107764429073       -2.03990818328112      H 
       -4.76874870012296        1.01726700008725        0.47652024099945      O 
       -6.27195549986348        2.02578016173498        0.42711597455769      H 
       -2.26366334504266        1.39826346055101       -3.79805508659909      O 
       -4.02106273640711        1.09509879286871       -1.24838391293350      H 
       -1.19266893003140        2.86883442754747       -3.62119287458748      H 
       -1.19438625356830        0.01444662401929       -3.23152820224956      H 
        5.15232089172081        0.83462866786270       -3.32916218157904      O 
        3.02217696393775        3.02238839929082       -2.51596176848838      H 
        5.32679500635323       -0.51495222969602       -2.07991670511073      H 
        4.57499987847541        0.01025685906289       -4.83819241132421      H 
       -0.32375220081638        2.88457845305767        2.28972247546138      O 
        0.42922827585544        3.53147223328964        0.72296456859451      H 
       -1.98189831135892        2.22345353432524        1.80801487610168      H 
        1.28049453816688        0.64880555569087        2.83789964656172      H 
       -2.99138121937212       -3.53411467774388        3.21130034648117      N 
       -2.68050788964649       -2.72692965256003        4.91726248742097      H 
       -4.39350540144014       -4.82203372463321        3.38613942491558      H 
       -3.56870537207114       -2.15859719231228        1.99598668691578      H 
$end
 
 Bond Distances (Angstroems)
 ---------------------------
S1-O2=1.5416         S1-O3=1.4424         S1-O4=1.4310         S1-O5=1.5314         O2-S1=1.5416         O2-H22=1.0339        
O3-S1=1.4424         O4-S1=1.4310         O5-S1=1.5314         O5-H6=1.0453         H6-O5=1.0453         O7-H8=0.9587         
O7-H16=0.9897        H8-O7=0.9587         O9-H10=0.9583        O9-H12=0.9957        H10-O9=0.9583        O11-H13=0.9672       
O11-H14=0.9728       H12-O9=0.9957        H13-O11=0.9672       H14-O11=0.9728       O15-H17=0.9775       O15-H18=0.9598       
H16-O7=0.9897        H17-O15=0.9775       H18-O15=0.9598       O19-H20=0.9815       O19-H21=0.9784       H20-O19=0.9815       
H21-O19=0.9784       H22-O2=1.0339        N23-H24=1.0122       N23-H25=1.0117       N23-H26=1.0182       H24-N23=1.0122       
H25-N23=1.0117       H26-N23=1.0182       
 N  H  Rav=1.0140 sigma=0.0030  Rmin=1.0117  Rmax=1.0182     3
 O  H  Rav=0.9849 sigma=0.0271  Rmin=0.9583  Rmax=1.0453    12
 S  O  Rav=1.4866 sigma=0.0502  Rmin=1.4310  Rmax=1.5416     4
 
 selected bond angles (degree)
 --------------------
O3-S1-O2=108.64                O4-S1-O2=110.06                O4-S1-O3=114.63                O5-S1-O2=103.61                
O5-S1-O3=109.25                O5-S1-O4=110.07                H22-O2-S1=112.14               H6-O5-S1=103.68                
H16-O7-H8=105.86               H12-O9-H10=106.37              
 
 selected dihedral angles (degree)
 ---------------------------------
H22-O2-S1-O3=356.12           H22-O2-S1-O4=122.37           H22-O2-S1-O5=240.04           H6-O5-S1-O2= 61.08            
H6-O5-S1-O3=305.44            H6-O5-S1-O4=178.74            
 
 CMA Distance (Angstroems)
 ---------------------------
R(CMA):  2.6742

========================================================================
 FINAL SINGLEPOINT CALCULATION ON OPTIMIZED GEOMETRY
========================================================================

 Ncao       : 65
 Nao        : 64
 Nshell     : 38
 Nel        : 80
 T(el)      :   300.0
 intcut     :    25.0
 scfconv/Eh :  0.100E-05
   qconv/e  :  0.100E-03
 intneglect :  0.100E-07
 broydamp   :      0.250
 iter      E             dE          RMSdq      gap      omega  full diag
   1    -50.7438023 -0.507438E+02  0.437E-05    9.06       0.0  T
   2    -50.7438023 -0.112266E-11  0.290E-05    9.06     676.2  T
   3    -50.7438023 -0.909495E-12  0.650E-06    9.06    3017.6  T
speedup  1.15
cpu  time for SCC    0.00 s
wall time for SCC    0.00 s

   *** convergence criteria satisfied after 3 iterations ***

          eigenvalues
 #    :          28         29         30         31         32         33         34         35
 occ. :        2.000      2.000      2.000      2.000      2.000      2.000      2.000      2.000
 eps  :       -13.585    -13.374    -12.755    -12.436    -12.415    -12.375    -12.334    -12.309
 #    :          36         37         38         39         40         41         42         43
 occ. :        2.000      2.000      2.000      2.000      2.000      0.000      0.000      0.000
 eps  :       -12.153    -12.054    -11.986    -11.864    -11.634     -2.572     -0.570     -0.310
 #    :          44         45         46         47         48         49         50         51
 occ. :        0.000      0.000      0.000      0.000      0.000      0.000      0.000      0.000
 eps  :         0.202      0.689      1.017      1.786      3.128      3.717      4.616      5.093


   #   Z            q   n(s)   n(p)   n(d)      C6AA      α(0)
   1  16 S      1.681  1.582  1.787  0.950    89.193    15.895
   2   8 O     -0.637  1.762  4.874  0.000    26.059     6.891
   3   8 O     -0.731  1.752  4.979  0.000    29.576     7.291
   4   8 O     -0.674  1.754  4.920  0.000    28.016     7.097
   5   8 O     -0.607  1.756  4.852  0.000    25.342     6.795
   6   1 H      0.359  0.641  0.000  0.000     0.557     1.167
   7   8 O     -0.624  1.747  4.877  0.000    25.766     6.851
   8   1 H      0.289  0.711  0.000  0.000     0.755     1.365
   9   8 O     -0.633  1.752  4.881  0.000    25.999     6.882
  10   1 H      0.283  0.717  0.000  0.000     0.773     1.381
  11   8 O     -0.613  1.752  4.861  0.000    25.510     6.817
  12   1 H      0.339  0.661  0.000  0.000     0.615     1.233
  13   1 H      0.315  0.685  0.000  0.000     0.676     1.292
  14   1 H      0.329  0.671  0.000  0.000     0.640     1.257
  15   8 O     -0.605  1.738  4.866  0.000    25.296     6.788
  16   1 H      0.338  0.662  0.000  0.000     0.619     1.236
  17   1 H      0.321  0.679  0.000  0.000     0.661     1.278
  18   1 H      0.296  0.704  0.000  0.000     0.733     1.345
  19   8 O     -0.622  1.765  4.856  0.000    25.697     6.842
  20   1 H      0.334  0.666  0.000  0.000     0.626     1.243
  21   1 H      0.332  0.668  0.000  0.000     0.634     1.250
  22   1 H      0.395  0.605  0.000  0.000     0.491     1.099
  23   7 N     -0.440  1.356  4.084  0.000    31.503     8.336
  24   1 H      0.181  0.819  0.000  0.000     1.209     1.723
  25   1 H      0.176  0.824  0.000  0.000     1.235     1.741
  26   1 H      0.218  0.782  0.000  0.000     1.018     1.581

 Mol. C6AA /au·bohr⁶  :       5443.124129
 Mol. C8AA /au·bohr⁸  :     117632.845767
 Mol. α(0) /au        :        106.674348

 
 Wiberg/Mayer (AO) data. WBOs > 0.1 written file <wbo>
 largest (>0.05) Wiberg bond orders for each atom
           total WBO             WBO to atom ...
     1  S   4.856    O    4 1.424    O    3 1.357    O    5 1.027    O    2 1.005
     2  O   1.950    S    1 1.005    H   22 0.647    O    3 0.092    O    4 0.084    O    5 0.064    O   19 0.054
     3  O   1.708    S    1 1.357    O    4 0.119    O    2 0.092    O    5 0.090
     4  O   1.796    S    1 1.424    O    3 0.119    O    2 0.084    O    5 0.078    H   17 0.051
     5  O   1.984    S    1 1.027    H    6 0.647    O    3 0.090    O    4 0.078    N   23 0.068    O    2 0.064
     6  H   0.871    O    5 0.647    N   23 0.209
     7  O   1.872    H    8 0.910    H   16 0.808    H   20 0.061
     8  H   0.917    O    7 0.910
     9  O   1.861    H   10 0.912    H   12 0.793    H   21 0.054
    10  H   0.920    O    9 0.912
    11  O   1.897    H   13 0.877    H   14 0.853    H   12 0.088
    12  H   0.885    O    9 0.793    O   11 0.088
    13  H   0.900    O   11 0.877
    14  H   0.892    O   11 0.853
    15  O   1.885    H   18 0.910    H   17 0.840    H   16 0.075
    16  H   0.886    O    7 0.808    O   15 0.075
    17  H   0.897    O   15 0.840    O    4 0.051
    18  H   0.912    O   15 0.910
    19  O   1.961    H   21 0.832    H   20 0.825    H   22 0.180    O    2 0.054
    20  H   0.888    O   19 0.825    O    7 0.061
    21  H   0.890    O   19 0.832    O    9 0.054
    22  H   0.844    O    2 0.647    O   19 0.180
    23  N   3.162    H   25 0.967    H   24 0.966    H   26 0.927    H    6 0.209    O    5 0.068
    24  H   0.967    N   23 0.966
    25  H   0.969    N   23 0.967
    26  H   0.952    N   23 0.927
 MOs/occ written to file <molden.input>
 
molecular dipole:
                 x           y           z       tot (Debye)
 q only:       -1.701       0.608       0.309
   full:       -1.872       0.628       0.332       5.090
molecular quadrupole (traceless):
                xx          xy          yy          xz          yz          zz
 q only:       -3.251      10.349       2.050      -8.860      -4.158       1.201
  q+dip:       -1.770      10.562       1.572     -11.463      -5.204       0.198
   full:       -1.928      10.748       1.928     -11.579      -5.299      -0.000

SCC energy    :     -50.7438023
rep           :       0.2878007
ES            :       0.2359680
AES           :      -0.0540450
AXC           :      -0.0079163
disp          :      -0.0193735
XB            :       0.0000000
fix           :       0.0000000
total E       :     -50.4556743
atomizationE  :       4.9859784     3128.75
(atE without considering molecular charge,
 total energy contains solvation terms)
H-L gap (eV)  :          9.0615
optimized geometry written to: xtbopt.xyz


------------------------------------------------------------------------
 * finished run on 2019/09/16 at 11:13:53.400     
------------------------------------------------------------------------
 total:
 * wall-time:     0 d,  0 h,  0 min,  1.798 sec
 *  cpu-time:     0 d,  0 h,  0 min,  1.783 sec
 * ratio c/w:     0.991 speedup
 SCF:
 * wall-time:     0 d,  0 h,  0 min,  0.137 sec
 *  cpu-time:     0 d,  0 h,  0 min,  0.133 sec
 * ratio c/w:     0.974 speedup
 ANC optimizer:
 * wall-time:     0 d,  0 h,  0 min,  1.639 sec
 *  cpu-time:     0 d,  0 h,  0 min,  1.630 sec
 * ratio c/w:     0.994 speedup

