      -----------------------------------------------------------      
     |                   =====================                   |     
     |                           x T B                           |     
     |                   =====================                   |     
     |                         S. Grimme                         |     
     |          Mulliken Center for Theoretical Chemistry        |     
     |                    University of Bonn                     |     
     |                 Version 6.0.1 (SAW181210)                 |     
      -----------------------------------------------------------      

   This program is distributed in the hope that it will be useful,
   but WITHOUT ANY WARRANTY; without even the implied warranty of
   MERCHANTABILITY or FITNESS FOR A PARTICULAR PURPOSE.
   
   FOR NON-COMMERCIAL, ACADEMIA USE ONLY.
   
   Cite this work as:
   S. Grimme, C. Bannwarth, P. Shushkov, J. Comput. Theory Chem., 2017,
   13, 1989-2009.
   C. Bannwarth, S. Ehlert and S. Grimme., ChemRxiv, 2018, preprint.
   http://doi.org/10.26434/chemrxiv.7246238.v1
   
   for sTDA-xTB:
   S. Grimme and C. Bannwarth, J. Chem. Phys., 2016, 145, 054103.
   
   in the mass-spec context:
   V. Asgeirsson, C. Bauer and S. Grimme, Chem. Sci., 2017, 8, 4879.
   
   if GBSA is used:
   P. Shushkov, F. März and S. Grimme, unpublished.
   
   for ANC optimizer:
   S. Grimme, unpublished.
   Rational Function algorithm used in ANCopt:
   F. Eckert, P. Pulay, H.-J. Werner, J. Comput. Chem., 1997, 18, 1473.
   
   with help from (in alphabetical order)
   C. Bannwarth, F. Bohle, G. Brandenburg, E. Caldeweyher, M. Checinski,
   S. Dohm, S. Ehlert, S. Ehrlich, F. März, H. Neugebauer, J. Pisarek,
   P. Pracht, P. Shushkov, and S. Spicher.
   
 * started run on 2019/09/16 at 11:23:16.126     
========================================================================
 # omp threads = 1
========================================================================
number of atoms            : 26
number of electrons        : 80
charge                     : 0
spin                       : .0
first test random number   : .1357

########################################################################
# WARNING! Please study the warnings concerning your input carefully
#  - XTBPATH is not set, using XTBHOME instead
#  - the use of '-opt' is discouraged, please use '--opt' next time
#  - the use of '-chrg' is discouraged, please use '--chrg' next time
#  - the use of '-uhf' is discouraged, please use '--uhf' next time
########################################################################

           ------------------------------------------------- 
          |                 G F N 2 - x T B                 |
          | Geometry, Frequencies, Noncovalent interactions |
          |            JCTC 2018 parametrisation            |
           ------------------------------------------------- 
      method parameters     
 k(s)        :  1.8500
 k(p)        :  2.2300
 k(d)        :  2.2300
 k(f)        :  2.0000
 kEN (H0ij)  : -2.0000
 D4 a1       :  0.5200
 D4 a2       :  5.0000
 D4 s6       :  1.0000
 D4 s8       :  2.7000
 D4 s9       :  5.0000
 alphaj      :  2.0000


            Z     q(EN)     CN     RAES       Cart. coordinates
     1  S   6.0    0.68    4.10    3.86     0.99541    -0.23826    -0.48966
     2  O   6.0   -0.33    1.26    1.80    -1.58160    -1.06620    -1.26535
     3  O   6.0   -0.33    1.25    1.80     0.79028     1.98572     1.22496
     4  O   6.0   -0.32    1.24    1.80     2.29251    -2.34426     0.85586
     5  O   6.0   -0.31    1.21    1.80     2.48044     0.47169    -2.77413
     6  O   6.0   -0.28    1.95    1.82    -6.48420    -1.94140    -1.83800
     7  H   1.0    0.17    1.05    1.44    -4.66791    -1.82122    -1.87340
     8  H   1.0    0.15    0.97    1.43    -6.95395    -2.61425    -3.46319
     9  O   6.0   -0.28    2.01    1.83    -0.82390    -0.49249     5.44441
    10  H   1.0    0.17    1.04    1.43     0.02143     0.71162     4.37195
    11  H   1.0    0.16    0.97    1.43     0.11359    -2.04231     5.26058
    12  O   6.0   -0.29    2.01    1.83    -2.56432     5.67289     1.91457
    13  H   1.0    0.17    1.05    1.44    -1.16968     4.53432     1.64392
    14  H   1.0    0.15    0.97    1.43    -1.90888     7.33204     1.55092
    15  O   6.0   -0.29    2.06    1.83     6.99604    -0.06660    -4.69641
    16  H   1.0    0.18    1.05    1.44     5.30940     0.45011    -4.24603
    17  H   1.0    0.15    0.97    1.43     7.67695     1.31084    -5.67297
    18  O   6.0   -0.22    2.89    2.51     6.11874    -3.87507    -1.73635
    19  H   1.0    0.15    1.10    1.44     4.83591    -3.37184    -0.47502
    20  H   1.0    0.12    0.96    1.43     5.53714    -5.29854    -2.79724
    21  H   1.0    0.14    1.06    1.44     6.69337    -2.42548    -2.76590
    22  N   5.0   -0.14    3.95    2.73    -4.74135     1.02574     2.36529
    23  H   1.0    0.10    1.04    1.43    -4.47080     2.94967     2.26656
    24  H   1.0    0.11    1.07    1.44    -3.96435     0.18021     0.79501
    25  H   1.0    0.10    1.03    1.43    -3.88304     0.33157     3.96713
    26  H   1.0    0.09    0.99    1.43    -6.64721     0.64152     2.43248

  Z AO/shell   Hii/eV     exponent
  1     Wed Apr 25 08:07:45 CEST 2018   EN: 2.200 GM2: 0.406  GM3: 0.0800  RAES: 1.40
     1s    -10.707211    1.230000
  7     Wed Apr 25 08:07:45 CEST 2018   EN: 3.040 GM2: 0.461  GM3:-0.0640  RAES: 1.90
     2s    -16.686243    2.339881
     2p    -12.523956    2.014332
  8     Wed Apr 25 08:07:45 CEST 2018   EN: 3.440 GM2: 0.452  GM3:-0.0517  RAES: 1.80
     2s    -20.229985    2.439742
     2p    -15.503117    2.137023
 16     Tue Apr 24 11:44:34 CEST 2018   EN: 2.580 GM2: 0.340  GM3:-0.0502  RAES: 3.10
     3s    -20.029654    1.981333
     3p    -11.377694    2.025643
     3d     -0.420282    1.702555
 no old-style atom pair restraining (fixing) potential

molecular fragmentation (1/2 indicates fragments):
11111222222222222222222222
# atoms in fragment 1/2:     5    21
 fragment masses (1/2) :       96.06      109.12
CMA distance (Bohr)    :   1.368
constraining FC (au)   :  0.0500
           ------------------------------------------------- 
          |        Self-Consistent Charge Iterations        |
           ------------------------------------------------- 

 Ncao       : 65
 Nao        : 64
 Nshell     : 38
 Nel        : 80
 T(el)      :   300.0
 intcut     :    25.0
 scfconv/Eh :  0.100E-05
   qconv/e  :  0.100E-03
 intneglect :  0.100E-07
 broydamp   :      0.250
 iter      E             dE          RMSdq      gap      omega  full diag
   1    -50.6048053 -0.506048E+02  0.700E+00   10.20       0.0  T
   2    -50.6469276 -0.421223E-01  0.502E+00    9.82       1.0  T
   3    -50.6822549 -0.353273E-01  0.110E+00    7.73       1.0  T
   4    -50.6864282 -0.417326E-02  0.544E-01    7.63       1.0  T
   5    -50.6873090 -0.880839E-03  0.212E-01    7.45       1.0  T
   6    -50.6875272 -0.218144E-03  0.105E-01    7.54       1.0  T
   7    -50.6875919 -0.646719E-04  0.440E-02    7.59       1.0  T
   8    -50.6875993 -0.748052E-05  0.271E-02    7.59       1.0  T
   9    -50.6876041 -0.477472E-05  0.842E-03    7.58       2.3  T
  10    -50.6876044 -0.267135E-06  0.183E-03    7.57      10.7  T
  11    -50.6876044 -0.214267E-07  0.797E-04    7.57      24.6  T
  12    -50.6876044 -0.339690E-08  0.353E-04    7.57      55.6  T
speedup  0.99
cpu  time for SCC    0.01 s
wall time for SCC    0.01 s

   *** convergence criteria satisfied after 12 iterations ***

          eigenvalues
 #    :          28         29         30         31         32         33         34         35
 occ. :        2.000      2.000      2.000      2.000      2.000      2.000      2.000      2.000
 eps  :       -12.151    -12.037    -11.492    -11.429    -11.187    -10.805    -10.584    -10.071
 #    :          36         37         38         39         40         41         42         43
 occ. :        2.000      2.000      2.000      2.000      2.000      0.000      0.000      0.000
 eps  :        -9.882     -9.865     -9.643     -9.591     -9.470     -1.895     -0.883      0.245
 #    :          44         45         46         47         48         49         50         51
 occ. :        0.000      0.000      0.000      0.000      0.000      0.000      0.000      0.000
 eps  :         1.947      2.092      2.739      2.942      2.978      3.351      3.968      5.458


   #   Z            q   n(s)   n(p)   n(d)      C6AA      α(0)
   1  16 S      1.507  1.603  1.890  1.000    93.297    16.257
   2   8 O     -0.794  1.777  5.017  0.000    31.407     7.514
   3   8 O     -0.796  1.782  5.014  0.000    31.467     7.521
   4   8 O     -0.796  1.777  5.019  0.000    31.468     7.521
   5   8 O     -0.796  1.776  5.020  0.000    31.469     7.521
   6   8 O     -0.624  1.742  4.881  0.000    25.757     6.850
   7   1 H      0.326  0.674  0.000  0.000     0.647     1.263
   8   1 H      0.269  0.731  0.000  0.000     0.824     1.426
   9   8 O     -0.615  1.734  4.881  0.000    25.548     6.822
  10   1 H      0.323  0.677  0.000  0.000     0.655     1.271
  11   1 H      0.292  0.708  0.000  0.000     0.746     1.357
  12   8 O     -0.626  1.733  4.892  0.000    25.805     6.856
  13   1 H      0.335  0.665  0.000  0.000     0.625     1.241
  14   1 H      0.279  0.721  0.000  0.000     0.788     1.394
  15   8 O     -0.630  1.726  4.904  0.000    25.921     6.872
  16   1 H      0.346  0.654  0.000  0.000     0.599     1.215
  17   1 H      0.294  0.706  0.000  0.000     0.739     1.350
  18   8 O     -0.394  1.639  4.754  0.000    20.669     6.140
  19   1 H      0.421  0.579  0.000  0.000     0.448     1.052
  20   1 H      0.379  0.621  0.000  0.000     0.525     1.138
  21   1 H      0.429  0.571  0.000  0.000     0.434     1.035
  22   7 N     -0.287  1.245  4.042  0.000    27.391     7.773
  23   1 H      0.301  0.699  0.000  0.000     0.710     1.320
  24   1 H      0.317  0.683  0.000  0.000     0.665     1.277
  25   1 H      0.291  0.709  0.000  0.000     0.740     1.348
  26   1 H      0.249  0.751  0.000  0.000     0.887     1.476

 Mol. C6AA /au·bohr⁶  :       5481.754085
 Mol. C8AA /au·bohr⁸  :     119205.263221
 Mol. α(0) /au        :        106.810522

 
 Wiberg/Mayer (AO) data. WBOs > 0.1 written file <wbo>
 largest (>0.05) Wiberg bond orders for each atom
           total WBO             WBO to atom ...
     1  S   5.004    O    5 1.272    O    3 1.240    O    2 1.231    O    4 1.214
     2  O   1.669    S    1 1.231    O    3 0.098    O    5 0.088    O    4 0.087    H   24 0.067
     3  O   1.665    S    1 1.240    O    2 0.098    O    5 0.092    O    4 0.087    H   13 0.056
     4  O   1.683    S    1 1.214    H   19 0.135    O    5 0.100    O    2 0.087    O    3 0.087
     5  O   1.647    S    1 1.272    O    4 0.100    O    3 0.092    O    2 0.088    H   16 0.062
     6  O   1.803    H    8 0.925    H    7 0.838
     7  H   0.893    O    6 0.838
     8  H   0.928    O    6 0.925
     9  O   1.855    H   11 0.908    H   10 0.849
    10  H   0.895    O    9 0.849
    11  H   0.915    O    9 0.908
    12  O   1.828    H   14 0.910    H   13 0.826
    13  H   0.888    O   12 0.826    O    3 0.056
    14  H   0.922    O   12 0.910
    15  O   1.847    H   17 0.896    H   16 0.813    H   21 0.079
    16  H   0.880    O   15 0.813    O    5 0.062
    17  H   0.913    O   15 0.896
    18  O   2.341    H   20 0.851    H   21 0.725    H   19 0.679
    19  H   0.823    O   18 0.679    O    4 0.135
    20  H   0.856    O   18 0.851
    21  H   0.816    O   18 0.725    O   15 0.079
    22  N   3.569    H   26 0.933    H   25 0.863    H   23 0.859    H   24 0.816
    23  H   0.909    N   22 0.859
    24  H   0.900    N   22 0.816    O    2 0.067
    25  H   0.915    N   22 0.863
    26  H   0.938    N   22 0.933
 MOs/occ written to file <molden.input>
 
molecular dipole:
                 x           y           z       tot (Debye)
 q only:        0.463      -1.190      -0.114
   full:        0.757      -0.991      -0.694       3.627
molecular quadrupole (traceless):
                xx          xy          yy          xz          yz          zz
 q only:       16.867     -18.705      -2.270     -18.845       7.705     -14.597
  q+dip:       10.375     -13.426       2.309     -15.859       6.692     -12.684
   full:       10.608     -13.411       2.426     -16.107       6.598     -13.034

SCC energy    :     -50.6876044
rep           :       0.2958092
ES            :       0.3667452
AES           :      -0.0840693
AXC           :      -0.0100545
disp          :      -0.0177208
XB            :       0.0000000
fix           :       0.0000000
total E       :     -50.3917037
atomizationE  :       4.9220079     3088.61
(atE without considering molecular charge,
 total energy contains solvation terms)
H-L gap (eV)  :          7.5744
           ------------------------------------------------- 
          |                 ===============                 |
          |                   A N C O P T                   |
          |                 ===============                 |
          |          Approximate Normal Coordinate          |
          |           Rational Function Optimizer           |
           ------------------------------------------------- 
dumping coords to <xtbopt.coord> and <xtbopt.log>
 optlevel               2
 Maxcycle             520
 Maxmicro              25
 Econv         1.000000000000000E-007
 Gconv         2.000000000000000E-004
 Maxdispl       1.00000000000000     
 Hlow          5.000000000000000E-003
 S6             20.0000000000000     
 Nvar               72

generating ANC from model Hessian ...
 Shifting diagonal of input Hessian by   5.352842944517296E-003
 Lowest  eigenvalues of input Hessian
    0.005000    0.005230   -0.000000   -0.000000   -0.000000    0.000000
    0.000000    0.000000    0.005475    0.005627    0.005713    0.005745
    0.006063    0.006241    0.006334    0.007082    0.007934    0.008477
 Highest eigenvalues
    1.436018    1.547849    1.562496    3.081287    3.088731    3.095972
 
cpu  time for ANC gen    0.01 s
wall time for ANC gen    0.01 s
................................................................................
.............................. CYCLE    1 ......................................
................................................................................
   1    -50.6876044 -0.506876E+02  0.730E-05    7.57       0.0  T
   2    -50.6876044 -0.144880E-10  0.536E-05    7.57     366.0  T
   3    -50.6876044 -0.106368E-10  0.233E-05    7.57     843.4  T
speedup  1.03
cpu  time for SCC    0.00 s
wall time for SCC    0.00 s
speedup  0.99
cpu  time for grad    0.01 s
wall time for grad    0.01 s
 E :    -50.39170369  G :  0.121297    pred/act E change:  0.000D+00  0.699D-08
Maxdispl :   0.1892   ||displ|| :   0.4873   Lambda : -0.242D-01
Largest |displ|/coords:  0.1892 (  23)  0.1674 (  36)  0.1625 (  31)
................................................................................
.............................. CYCLE    2 ......................................
................................................................................
   1    -50.6920716 -0.506921E+02  0.372E-01    8.05       0.0  T
   2    -50.6922914 -0.219794E-03  0.278E-01    8.13       1.0  T
   3    -50.6923977 -0.106333E-03  0.786E-02    8.32       1.0  T
   4    -50.6924206 -0.228593E-04  0.220E-02    8.33       1.0  T
   5    -50.6924216 -0.104812E-05  0.805E-03    8.32       2.4  T
   6    -50.6924218 -0.110210E-06  0.406E-03    8.32       4.8  T
   7    -50.6924218 -0.451260E-07  0.149E-03    8.32      13.2  T
speedup  1.08
cpu  time for SCC    0.01 s
wall time for SCC    0.01 s
speedup  0.99
cpu  time for grad    0.01 s
wall time for grad    0.01 s
 E :    -50.41274175  G :  0.080853    pred/act E change:  0.000D+00 -0.210D-01
Maxdispl :   0.2111   ||displ|| :   0.5179   Lambda : -0.179D-01
Largest |displ|/coords:  0.2111 (  23)  0.2097 (  31)  0.1919 (  36)
................................................................................
.............................. CYCLE    3 ......................................
................................................................................
   1    -50.6979363 -0.506979E+02  0.337E-01    8.55       0.0  T
   2    -50.6983334 -0.397113E-03  0.244E-01    8.60       1.0  T
   3    -50.6985202 -0.186753E-03  0.961E-02    8.71       1.0  T
   4    -50.6985386 -0.184498E-04  0.288E-02    8.73       1.0  T
   5    -50.6985402 -0.159214E-05  0.101E-02    8.73       1.9  T
   6    -50.6985404 -0.200652E-06  0.515E-03    8.73       3.8  T
   7    -50.6985405 -0.718732E-07  0.187E-03    8.73      10.5  T
speedup  0.95
cpu  time for SCC    0.01 s
wall time for SCC    0.01 s
speedup  0.99
cpu  time for grad    0.01 s
wall time for grad    0.01 s
 E :    -50.42757539  G :  0.065042    pred/act E change: -0.150D-01 -0.148D-01
Maxdispl :   0.1988   ||displ|| :   0.4558   Lambda : -0.102D-01
Largest |displ|/coords:  0.1988 (  23)  0.1604 (  31)  0.1136 (  36)
................................................................................
.............................. CYCLE    4 ......................................
................................................................................
   1    -50.7020622 -0.507021E+02  0.300E-01    8.85       0.0  T
   2    -50.7024454 -0.383170E-03  0.217E-01    8.88       1.0  T
   3    -50.7026229 -0.177491E-03  0.918E-02    8.94       1.0  T
   4    -50.7026383 -0.153947E-04  0.268E-02    8.96       1.0  T
   5    -50.7026398 -0.155541E-05  0.935E-03    8.95       2.1  T
   6    -50.7026400 -0.170222E-06  0.482E-03    8.95       4.1  T
   7    -50.7026400 -0.584228E-07  0.165E-03    8.95      11.9  T
speedup  1.13
cpu  time for SCC    0.01 s
wall time for SCC    0.01 s
speedup  1.01
cpu  time for grad    0.01 s
wall time for grad    0.01 s
 E :    -50.43563485  G :  0.061511    pred/act E change: -0.114D-01 -0.806D-02
Maxdispl :   0.1806   ||displ|| :   0.3577   Lambda : -0.595D-02
Largest |displ|/coords:  0.1806 (   7)  0.1278 (   8)  0.1129 (  10)
................................................................................
.............................. CYCLE    5 ......................................
................................................................................
   1    -50.7096322 -0.507096E+02  0.210E-01    9.05       0.0  T
   2    -50.7098004 -0.168255E-03  0.154E-01    9.06       1.0  T
   3    -50.7098826 -0.821447E-04  0.641E-02    9.09       1.0  T
   4    -50.7098908 -0.823767E-05  0.180E-02    9.11       1.1  T
   5    -50.7098917 -0.928612E-06  0.620E-03    9.10       3.2  T
   6    -50.7098918 -0.755191E-07  0.339E-03    9.10       5.8  T
   7    -50.7098918 -0.211250E-07  0.104E-03    9.10      18.9  T
speedup  0.97
cpu  time for SCC    0.01 s
wall time for SCC    0.01 s
speedup  1.01
cpu  time for grad    0.01 s
wall time for grad    0.01 s
 E :    -50.44096535  G :  0.056020    pred/act E change: -0.616D-02 -0.533D-02
Maxdispl :   0.2040   ||displ|| :   0.3468   Lambda : -0.570D-02
Largest |displ|/coords:  0.2040 (   7)  0.1099 (  10)  0.0961 (   5)
................................................................................
.............................. CYCLE    6 ......................................
................................................................................
   1    -50.7200391 -0.507200E+02  0.233E-01    9.19       0.0  T
   2    -50.7202242 -0.185155E-03  0.172E-01    9.20       1.0  T
   3    -50.7203210 -0.967682E-04  0.725E-02    9.22       1.0  T
   4    -50.7203314 -0.103704E-04  0.199E-02    9.23       1.0  T
   5    -50.7203324 -0.100613E-05  0.732E-03    9.23       2.7  T
   6    -50.7203325 -0.789058E-07  0.399E-03    9.23       4.9  T
   7    -50.7203325 -0.234878E-07  0.105E-03    9.23      18.7  T
speedup  1.11
cpu  time for SCC    0.01 s
wall time for SCC    0.01 s
speedup  1.00
cpu  time for grad    0.01 s
wall time for grad    0.01 s
 E :    -50.44611344  G :  0.049149    pred/act E change: -0.336D-02 -0.515D-02
Maxdispl :   0.3132   ||displ|| :   0.5929   Lambda : -0.135D-01
Largest |displ|/coords:  0.3132 (   7)  0.2228 (  10)  0.1912 (   8)
................................................................................
.............................. CYCLE    7 ......................................
................................................................................
   1    -50.7567722 -0.507568E+02  0.422E-01    9.52       0.0  T
   2    -50.7573131 -0.540847E-03  0.311E-01    9.53       1.0  T
   3    -50.7576394 -0.326312E-03  0.129E-01    9.55       1.0  T
   4    -50.7576717 -0.323367E-04  0.338E-02    9.56       1.0  T
   5    -50.7576746 -0.283441E-05  0.149E-02    9.56       1.3  T
   6    -50.7576748 -0.269273E-06  0.792E-03    9.56       2.5  T
   7    -50.7576749 -0.864799E-07  0.155E-03    9.56      12.7  T
   8    -50.7576749 -0.719449E-08  0.417E-04    9.56      47.0  T
speedup  1.13
cpu  time for SCC    0.01 s
wall time for SCC    0.01 s
speedup  1.01
cpu  time for grad    0.01 s
wall time for grad    0.01 s
 E :    -50.45245478  G :  0.050666    pred/act E change: -0.320D-02 -0.634D-02
Maxdispl :   0.2698   ||displ|| :   0.4966   Lambda : -0.127D-01
Largest |displ|/coords:  0.2698 (  19)  0.1781 (  18)  0.1471 (  36)
................................................................................
.............................. CYCLE    8 ......................................
................................................................................
   1    -50.7158829 -0.507159E+02  0.700E-01    9.33       0.0  T
   2    -50.7165385 -0.655567E-03  0.509E-01    9.40       1.0  T
   3    -50.7168849 -0.346452E-03  0.150E-01    9.39       1.0  T
   4    -50.7169462 -0.612883E-04  0.315E-02    9.40       1.0  T
   5    -50.7169475 -0.133026E-05  0.141E-02    9.39       1.4  T
   6    -50.7169483 -0.756056E-06  0.763E-03    9.39       2.6  T
   7    -50.7169484 -0.109876E-06  0.199E-03    9.39       9.9  T
   8    -50.7169484 -0.862151E-08  0.442E-04    9.39      44.3  T
speedup  0.99
cpu  time for SCC    0.01 s
wall time for SCC    0.01 s
speedup  1.01
cpu  time for grad    0.01 s
wall time for grad    0.01 s
 E :    -50.44343212  G :  0.107536    pred/act E change: -0.914D-02  0.902D-02
Maxdispl :   0.2651   ||displ|| :   0.5722   Lambda : -0.408D-01
Largest |displ|/coords:  0.2651 (  19)  0.2083 (  18)  0.1688 (  17)
................................................................................
.............................. CYCLE    9 ......................................
................................................................................
   1    -50.7570637 -0.507571E+02  0.854E-01    9.42       0.0  T
   2    -50.7578812 -0.817464E-03  0.634E-01    9.43       1.0  T
   3    -50.7584710 -0.589778E-03  0.165E-01    9.42       1.0  T
   4    -50.7585495 -0.785293E-04  0.335E-02    9.43       1.0  T
   5    -50.7585512 -0.171756E-05  0.197E-02    9.44       1.0  T
   6    -50.7585514 -0.199865E-06  0.861E-03    9.44       2.3  T
   7    -50.7585517 -0.277971E-06  0.175E-03    9.44      11.2  T
   8    -50.7585517 -0.526451E-08  0.392E-04    9.44      50.1  T
speedup  0.99
cpu  time for SCC    0.01 s
wall time for SCC    0.01 s
speedup  0.95
cpu  time for grad    0.01 s
wall time for grad    0.01 s
 E :    -50.45014860  G :  0.107409    pred/act E change: -0.791D-02 -0.672D-02
Maxdispl :   0.0943   ||displ|| :   0.2869   Lambda : -0.135D-01
Largest |displ|/coords:  0.0943 (  18)  0.0941 (  19)  0.0832 (  17)
................................................................................
.............................. CYCLE   10 ......................................
................................................................................
   1    -50.7450825 -0.507451E+02  0.422E-01    9.36       0.0  T
   2    -50.7452614 -0.178864E-03  0.312E-01    9.37       1.0  T
   3    -50.7453778 -0.116398E-03  0.771E-02    9.37       1.0  T
   4    -50.7453953 -0.175184E-04  0.164E-02    9.37       1.2  T
   5    -50.7453957 -0.418363E-06  0.695E-03    9.37       2.8  T
   6    -50.7453958 -0.994842E-07  0.389E-03    9.37       5.0  T
   7    -50.7453959 -0.250423E-07  0.902E-04    9.37      21.7  T
speedup  0.95
cpu  time for SCC    0.01 s
wall time for SCC    0.01 s
speedup  0.92
cpu  time for grad    0.01 s
wall time for grad    0.01 s
 E :    -50.45500266  G :  0.034356    pred/act E change: -0.271D-01 -0.485D-02
Maxdispl :   0.2217   ||displ|| :   0.3394   Lambda : -0.243D-02
Largest |displ|/coords:  0.2217 (   5)  0.1460 (   7)  0.1132 (   9)
................................................................................
.............................. CYCLE   11 ......................................
................................................................................
   1    -50.7471679 -0.507472E+02  0.306E-01    9.35       0.0  T
   2    -50.7472141 -0.462910E-04  0.232E-01    9.35       1.0  T
   3    -50.7472509 -0.367310E-04  0.380E-02    9.36       1.0  T
   4    -50.7472572 -0.635566E-05  0.931E-03    9.36       2.1  T
   5    -50.7472574 -0.141972E-06  0.499E-03    9.36       3.9  T
   6    -50.7472574 -0.242465E-07  0.258E-03    9.36       7.6  T
speedup  0.93
cpu  time for SCC    0.00 s
wall time for SCC    0.01 s
speedup  0.99
cpu  time for grad    0.01 s
wall time for grad    0.01 s
 E :    -50.45594945  G :  0.021953    pred/act E change: -0.731D-02 -0.947D-03
Maxdispl :   0.2926   ||displ|| :   0.4599   Lambda : -0.280D-02
Largest |displ|/coords:  0.2926 (   7)  0.1760 (   5)  0.1355 (   9)
................................................................................
.............................. CYCLE   12 ......................................
................................................................................
   1    -50.7599869 -0.507600E+02  0.530E-01    9.30       0.0  T
   2    -50.7600863 -0.994312E-04  0.404E-01    9.31       1.0  T
   3    -50.7601669 -0.805526E-04  0.529E-02    9.32       1.0  T
   4    -50.7601805 -0.136464E-04  0.150E-02    9.32       1.3  T
   5    -50.7601810 -0.520154E-06  0.645E-03    9.32       3.0  T
   6    -50.7601811 -0.171144E-07  0.332E-03    9.32       5.9  T
   7    -50.7601811 -0.177478E-07  0.604E-04    9.32      32.5  T
speedup  0.95
cpu  time for SCC    0.01 s
wall time for SCC    0.01 s
speedup  1.01
cpu  time for grad    0.01 s
wall time for grad    0.01 s
 E :    -50.45507265  G :  0.045368    pred/act E change: -0.136D-02  0.877D-03
Maxdispl :   0.1558   ||displ|| :   0.2413   Lambda : -0.309D-02
Largest |displ|/coords:  0.1558 (   9)  0.0918 (   5)  0.0723 (   7)
................................................................................
.............................. CYCLE   13 ......................................
................................................................................
   1    -50.7510391 -0.507510E+02  0.239E-01    9.27       0.0  T
   2    -50.7510637 -0.245381E-04  0.181E-01    9.27       1.0  T
   3    -50.7510858 -0.221523E-04  0.318E-02    9.26       1.0  T
   4    -50.7510887 -0.290389E-05  0.121E-02    9.26       1.6  T
   5    -50.7510890 -0.232387E-06  0.389E-03    9.26       5.0  T
   6    -50.7510890 -0.164015E-07  0.213E-03    9.26       9.2  T
speedup  1.07
cpu  time for SCC    0.01 s
wall time for SCC    0.01 s
speedup  1.06
cpu  time for grad    0.01 s
wall time for grad    0.01 s
 E :    -50.45624103  G :  0.025527    pred/act E change: -0.169D-02 -0.117D-02
Maxdispl :   0.1449   ||displ|| :   0.3201   Lambda : -0.283D-02
Largest |displ|/coords:  0.1449 (   9)  0.0954 (  20)  0.0944 (   5)
................................................................................
.............................. CYCLE   14 ......................................
................................................................................
   1    -50.7459194 -0.507459E+02  0.336E-01    9.29       0.0  T
   2    -50.7459993 -0.799216E-04  0.251E-01    9.29       1.0  T
   3    -50.7460505 -0.512204E-04  0.548E-02    9.29       1.0  T
   4    -50.7460601 -0.963225E-05  0.170E-02    9.29       1.2  T
   5    -50.7460607 -0.598382E-06  0.553E-03    9.29       3.5  T
   6    -50.7460608 -0.341039E-07  0.340E-03    9.29       5.8  T
speedup  1.09
cpu  time for SCC    0.01 s
wall time for SCC    0.01 s
speedup  1.07
cpu  time for grad    0.01 s
wall time for grad    0.01 s
 E :    -50.45517657  G :  0.049663    pred/act E change: -0.164D-02  0.106D-02
Maxdispl :   0.2072   ||displ|| :   0.2593   Lambda : -0.384D-02
Largest |displ|/coords:  0.2072 (   9)  0.0775 (   8)  0.0705 (   3)
................................................................................
.............................. CYCLE   15 ......................................
................................................................................
   1    -50.7503843 -0.507504E+02  0.233E-01    9.29       0.0  T
   2    -50.7504167 -0.323367E-04  0.174E-01    9.29       1.0  T
   3    -50.7504394 -0.226916E-04  0.323E-02    9.29       1.0  T
   4    -50.7504436 -0.421750E-05  0.110E-02    9.29       1.8  T
   5    -50.7504438 -0.209722E-06  0.435E-03    9.29       4.5  T
   6    -50.7504438 -0.163531E-07  0.214E-03    9.29       9.1  T
speedup  1.11
cpu  time for SCC    0.01 s
wall time for SCC    0.01 s
speedup  1.00
cpu  time for grad    0.01 s
wall time for grad    0.01 s
 E :    -50.45693682  G :  0.008554    pred/act E change: -0.156D-02 -0.176D-02
Maxdispl :   0.1681   ||displ|| :   0.2957   Lambda : -0.852D-03
Largest |displ|/coords:  0.1681 (   8)  0.1424 (   7)  0.0858 (  16)
................................................................................
.............................. CYCLE   16 ......................................
................................................................................
   1    -50.7522569 -0.507523E+02  0.223E-01    9.23       0.0  T
   2    -50.7522719 -0.149985E-04  0.168E-01    9.23       1.0  T
   3    -50.7522820 -0.101251E-04  0.236E-02    9.24       1.0  T
   4    -50.7522842 -0.216588E-05  0.747E-03    9.24       2.6  T
   5    -50.7522843 -0.108681E-06  0.265E-03    9.24       7.4  T
   6    -50.7522843 -0.600483E-08  0.146E-03    9.24      13.4  T
speedup  0.93
cpu  time for SCC    0.00 s
wall time for SCC    0.01 s
speedup  0.98
cpu  time for grad    0.01 s
wall time for grad    0.01 s
 E :    -50.45684006  G :  0.014741    pred/act E change: -0.205D-02  0.968D-04
Maxdispl :   0.0612   ||displ|| :   0.1309   Lambda : -0.751D-03
Largest |displ|/coords:  0.0612 (   9)  0.0592 (   8)  0.0431 (   1)
................................................................................
.............................. CYCLE   17 ......................................
................................................................................
   1    -50.7515987 -0.507516E+02  0.124E-01    9.24       0.0  T
   2    -50.7516033 -0.462786E-05  0.931E-02    9.24       1.0  T
   3    -50.7516065 -0.316306E-05  0.124E-02    9.24       1.6  T
   4    -50.7516072 -0.672606E-06  0.297E-03    9.24       6.6  T
   5    -50.7516072 -0.171836E-07  0.115E-03    9.24      17.0  T
speedup  0.89
cpu  time for SCC    0.00 s
wall time for SCC    0.00 s
speedup  0.98
cpu  time for grad    0.01 s
wall time for grad    0.01 s
 E :    -50.45726837  G :  0.006175    pred/act E change: -0.463D-03 -0.428D-03
Maxdispl :   0.0477   ||displ|| :   0.1045   Lambda : -0.152D-03
Largest |displ|/coords:  0.0477 (   4)  0.0477 (   7)  0.0384 (   9)
................................................................................
.............................. CYCLE   18 ......................................
................................................................................
   1    -50.7510596 -0.507511E+02  0.656E-02    9.24       0.0  T
   2    -50.7510606 -0.994917E-06  0.488E-02    9.24       1.0  T
   3    -50.7510613 -0.724867E-06  0.750E-03    9.24       2.6  T
   4    -50.7510615 -0.114042E-06  0.181E-03    9.24      10.9  T
   5    -50.7510615 -0.546353E-08  0.636E-04    9.24      30.8  T
speedup  0.89
cpu  time for SCC    0.00 s
wall time for SCC    0.00 s
speedup  0.98
cpu  time for grad    0.01 s
wall time for grad    0.01 s
 E :    -50.45737444  G :  0.006575    pred/act E change: -0.382D-03 -0.106D-03
Maxdispl :   0.1418   ||displ|| :   0.2979   Lambda : -0.333D-03
Largest |displ|/coords:  0.1418 (   7)  0.1164 (   4)  0.0962 (   2)
................................................................................
.............................. CYCLE   19 ......................................
................................................................................
   1    -50.7503470 -0.507503E+02  0.184E-01    9.22       0.0  T
   2    -50.7503542 -0.720827E-05  0.138E-01    9.22       1.0  T
   3    -50.7503607 -0.656459E-05  0.186E-02    9.22       1.1  T
   4    -50.7503615 -0.764140E-06  0.425E-03    9.22       4.6  T
   5    -50.7503615 -0.444367E-07  0.191E-03    9.22      10.3  T
   6    -50.7503615 -0.712125E-08  0.975E-04    9.22      20.1  T
speedup  1.11
cpu  time for SCC    0.01 s
wall time for SCC    0.01 s
speedup  0.99
cpu  time for grad    0.01 s
wall time for grad    0.01 s
 E :    -50.45755454  G :  0.011147    pred/act E change: -0.770D-04 -0.180D-03
Maxdispl :   0.1211   ||displ|| :   0.2366   Lambda : -0.284D-03
Largest |displ|/coords:  0.1211 (   7)  0.1129 (   4)  0.0767 (   2)
................................................................................
.............................. CYCLE   20 ......................................
................................................................................
   1    -50.7517677 -0.507518E+02  0.141E-01    9.20       0.0  T
   2    -50.7517717 -0.398301E-05  0.104E-01    9.20       1.0  T
   3    -50.7517754 -0.371928E-05  0.162E-02    9.20       1.2  T
   4    -50.7517758 -0.365150E-06  0.423E-03    9.20       4.6  T
   5    -50.7517758 -0.340569E-07  0.144E-03    9.20      13.6  T
   6    -50.7517758 -0.294360E-08  0.893E-04    9.20      22.0  T
speedup  0.89
cpu  time for SCC    0.00 s
wall time for SCC    0.01 s
speedup  0.98
cpu  time for grad    0.01 s
wall time for grad    0.01 s
 E :    -50.45771906  G :  0.009555    pred/act E change: -0.181D-03 -0.165D-03
Maxdispl :   0.1196   ||displ|| :   0.2674   Lambda : -0.307D-03
Largest |displ|/coords:  0.1196 (   4)  0.1195 (   7)  0.0974 (  16)
................................................................................
.............................. CYCLE   21 ......................................
................................................................................
   1    -50.7497044 -0.507497E+02  0.178E-01    9.18       0.0  T
   2    -50.7497117 -0.736026E-05  0.133E-01    9.18       1.0  T
   3    -50.7497170 -0.528736E-05  0.188E-02    9.18       1.0  T
   4    -50.7497180 -0.100866E-05  0.738E-03    9.18       2.7  T
   5    -50.7497181 -0.497453E-07  0.171E-03    9.18      11.5  T
   6    -50.7497181 -0.316707E-08  0.106E-03    9.18      18.5  T
speedup  0.91
cpu  time for SCC    0.00 s
wall time for SCC    0.01 s
speedup  0.98
cpu  time for grad    0.01 s
wall time for grad    0.01 s
 E :    -50.45782720  G :  0.009567    pred/act E change: -0.150D-03 -0.108D-03
Maxdispl :   0.0547   ||displ|| :   0.1104   Lambda : -0.236D-03
Largest |displ|/coords:  0.0547 (   4)  0.0389 (   2)  0.0340 (  10)
................................................................................
.............................. CYCLE   22 ......................................
................................................................................
   1    -50.7537220 -0.507537E+02  0.607E-02    9.22       0.0  T
   2    -50.7537236 -0.157672E-05  0.452E-02    9.22       1.0  T
   3    -50.7537242 -0.657467E-06  0.735E-03    9.22       2.7  T
   4    -50.7537245 -0.259015E-06  0.263E-03    9.22       7.4  T
   5    -50.7537245 -0.153815E-07  0.721E-04    9.22      27.2  T
speedup  0.87
cpu  time for SCC    0.00 s
wall time for SCC    0.00 s
speedup  0.98
cpu  time for grad    0.01 s
wall time for grad    0.01 s
 E :    -50.45795083  G :  0.005494    pred/act E change: -0.164D-03 -0.124D-03
Maxdispl :   0.0803   ||displ|| :   0.1501   Lambda : -0.152D-03
Largest |displ|/coords:  0.0803 (   4)  0.0723 (   2)  0.0442 (   7)
................................................................................
.............................. CYCLE   23 ......................................
................................................................................
   1    -50.7526908 -0.507527E+02  0.921E-02    9.23       0.0  T
   2    -50.7526942 -0.333384E-05  0.694E-02    9.23       1.0  T
   3    -50.7526962 -0.199959E-05  0.112E-02    9.23       1.7  T
   4    -50.7526968 -0.567836E-06  0.394E-03    9.23       5.0  T
   5    -50.7526968 -0.225346E-07  0.116E-03    9.23      16.9  T
   6    -50.7526968 -0.158516E-08  0.653E-04    9.23      30.0  T
speedup  1.07
cpu  time for SCC    0.01 s
wall time for SCC    0.01 s
speedup  1.05
cpu  time for grad    0.01 s
wall time for grad    0.01 s
 E :    -50.45801950  G :  0.008256    pred/act E change: -0.119D-03 -0.687D-04
Maxdispl :   0.0992   ||displ|| :   0.1967   Lambda : -0.247D-03
Largest |displ|/coords:  0.0992 (   2)  0.0848 (   4)  0.0690 (  18)
................................................................................
.............................. CYCLE   24 ......................................
................................................................................
   1    -50.7529871 -0.507530E+02  0.124E-01    9.26       0.0  T
   2    -50.7529947 -0.764364E-05  0.932E-02    9.26       1.0  T
   3    -50.7529991 -0.436251E-05  0.172E-02    9.27       1.1  T
   4    -50.7530002 -0.118625E-05  0.573E-03    9.26       3.4  T
   5    -50.7530003 -0.612736E-07  0.156E-03    9.26      12.6  T
   6    -50.7530003 -0.248674E-08  0.916E-04    9.26      21.4  T
speedup  1.09
cpu  time for SCC    0.01 s
wall time for SCC    0.01 s
speedup  0.99
cpu  time for grad    0.01 s
wall time for grad    0.01 s
 E :    -50.45808043  G :  0.012819    pred/act E change: -0.778D-04 -0.609D-04
Maxdispl :   0.0754   ||displ|| :   0.1426   Lambda : -0.262D-03
Largest |displ|/coords:  0.0754 (   4)  0.0461 (  10)  0.0457 (   1)
................................................................................
.............................. CYCLE   25 ......................................
................................................................................
   1    -50.7556794 -0.507557E+02  0.896E-02    9.28       0.0  T
   2    -50.7556829 -0.353149E-05  0.673E-02    9.28       1.0  T
   3    -50.7556853 -0.239233E-05  0.109E-02    9.28       1.8  T
   4    -50.7556858 -0.471403E-06  0.395E-03    9.28       5.0  T
   5    -50.7556858 -0.319374E-07  0.124E-03    9.28      15.9  T
   6    -50.7556858 -0.124329E-08  0.688E-04    9.28      28.5  T
speedup  0.93
cpu  time for SCC    0.00 s
wall time for SCC    0.01 s
speedup  0.99
cpu  time for grad    0.01 s
wall time for grad    0.01 s
 E :    -50.45812849  G :  0.015930    pred/act E change: -0.128D-03 -0.481D-04
Maxdispl :   0.0970   ||displ|| :   0.1830   Lambda : -0.384D-03
Largest |displ|/coords:  0.0970 (   7)  0.0680 (   4)  0.0645 (   1)

generating ANC from model Hessian ...
 Shifting diagonal of input Hessian by   5.044139967432217E-003
 Lowest  eigenvalues of input Hessian
    0.005000   -0.000000   -0.000000   -0.000000   -0.000000    0.000000
    0.000000    0.005105    0.005218    0.005405    0.005493    0.005618
    0.005997    0.006155    0.006259    0.006788    0.007516    0.008535
 Highest eigenvalues
    1.407740    1.420001    1.477484    2.611961    3.387175    3.661120
 
cpu  time for ANC gen    0.01 s
wall time for ANC gen    0.01 s
................................................................................
.............................. CYCLE   26 ......................................
................................................................................
   1    -50.7514982 -0.507515E+02  0.119E-01    9.22       0.0  T
   2    -50.7515063 -0.811769E-05  0.892E-02    9.22       1.0  T
   3    -50.7515115 -0.521132E-05  0.165E-02    9.23       1.2  T
   4    -50.7515127 -0.117924E-05  0.514E-03    9.23       3.8  T
   5    -50.7515128 -0.581339E-07  0.190E-03    9.23      10.3  T
   6    -50.7515128 -0.359761E-08  0.995E-04    9.23      19.7  T
   7    -50.7515128 -0.213374E-08  0.252E-04    9.23      77.7  T
speedup  0.95
cpu  time for SCC    0.01 s
wall time for SCC    0.01 s
speedup  1.03
cpu  time for grad    0.01 s
wall time for grad    0.01 s
 E :    -50.45817386  G :  0.011724    pred/act E change:  0.000D+00 -0.454D-04
Maxdispl :   0.0922   ||displ|| :   0.1704   Lambda : -0.409D-03
Largest |displ|/coords:  0.0922 (   9)  0.0660 (   5)  0.0521 (  11)
................................................................................
.............................. CYCLE   27 ......................................
................................................................................
   1    -50.7527264 -0.507527E+02  0.110E-01    9.23       0.0  T
   2    -50.7527302 -0.375573E-05  0.832E-02    9.23       1.0  T
   3    -50.7527338 -0.366819E-05  0.107E-02    9.23       1.8  T
   4    -50.7527343 -0.451918E-06  0.385E-03    9.23       5.1  T
   5    -50.7527343 -0.221625E-07  0.133E-03    9.23      14.7  T
   6    -50.7527343 -0.188033E-08  0.696E-04    9.23      28.2  T
speedup  1.09
cpu  time for SCC    0.01 s
wall time for SCC    0.01 s
speedup  0.98
cpu  time for grad    0.01 s
wall time for grad    0.01 s
 E :    -50.45842444  G :  0.004770    pred/act E change:  0.000D+00 -0.251D-03
Maxdispl :   0.0791   ||displ|| :   0.1851   Lambda : -0.246D-03
Largest |displ|/coords:  0.0791 (   5)  0.0675 (   4)  0.0654 (  21)
................................................................................
.............................. CYCLE   28 ......................................
................................................................................
   1    -50.7532745 -0.507533E+02  0.147E-01    9.25       0.0  T
   2    -50.7532794 -0.483569E-05  0.112E-01    9.25       1.0  T
   3    -50.7532845 -0.514007E-05  0.113E-02    9.25       1.7  T
   4    -50.7532850 -0.466200E-06  0.374E-03    9.25       5.2  T
   5    -50.7532850 -0.179200E-07  0.158E-03    9.25      12.4  T
   6    -50.7532850 -0.330786E-08  0.741E-04    9.25      26.5  T
speedup  0.91
cpu  time for SCC    0.00 s
wall time for SCC    0.01 s
speedup  0.99
cpu  time for grad    0.01 s
wall time for grad    0.01 s
 E :    -50.45853610  G :  0.006086    pred/act E change: -0.210D-03 -0.112D-03
Maxdispl :   0.0675   ||displ|| :   0.1638   Lambda : -0.172D-03
Largest |displ|/coords:  0.0675 (   6)  0.0609 (  21)  0.0511 (   4)
................................................................................
.............................. CYCLE   29 ......................................
................................................................................
   1    -50.7527396 -0.507527E+02  0.141E-01    9.26       0.0  T
   2    -50.7527436 -0.402588E-05  0.107E-01    9.26       1.0  T
   3    -50.7527478 -0.418357E-05  0.102E-02    9.26       1.9  T
   4    -50.7527481 -0.374516E-06  0.344E-03    9.26       5.7  T
   5    -50.7527482 -0.151654E-07  0.119E-03    9.26      16.5  T
   6    -50.7527482 -0.568633E-09  0.592E-04    9.26      33.1  T
speedup  0.91
cpu  time for SCC    0.01 s
wall time for SCC    0.01 s
speedup  0.98
cpu  time for grad    0.01 s
wall time for grad    0.01 s
 E :    -50.45862080  G :  0.008189    pred/act E change: -0.127D-03 -0.847D-04
Maxdispl :   0.0714   ||displ|| :   0.1519   Lambda : -0.176D-03
Largest |displ|/coords:  0.0714 (   6)  0.0629 (   5)  0.0508 (  12)
................................................................................
.............................. CYCLE   30 ......................................
................................................................................
   1    -50.7522979 -0.507523E+02  0.906E-02    9.27       0.0  T
   2    -50.7522990 -0.104715E-05  0.680E-02    9.27       1.0  T
   3    -50.7522998 -0.861556E-06  0.625E-03    9.27       3.1  T
   4    -50.7523000 -0.133001E-06  0.209E-03    9.27       9.4  T
   5    -50.7523000 -0.547428E-08  0.773E-04    9.27      25.4  T
speedup  1.06
cpu  time for SCC    0.00 s
wall time for SCC    0.00 s
speedup  1.05
cpu  time for grad    0.01 s
wall time for grad    0.01 s
 E :    -50.45873487  G :  0.005582    pred/act E change: -0.884D-04 -0.114D-03
Maxdispl :   0.0740   ||displ|| :   0.1951   Lambda : -0.151D-03
Largest |displ|/coords:  0.0740 (   7)  0.0695 (   5)  0.0691 (   4)
................................................................................
.............................. CYCLE   31 ......................................
................................................................................
   1    -50.7517049 -0.507517E+02  0.120E-01    9.27       0.0  T
   2    -50.7517068 -0.188873E-05  0.905E-02    9.27       1.0  T
   3    -50.7517089 -0.208618E-05  0.840E-03    9.27       2.3  T
   4    -50.7517090 -0.138613E-06  0.316E-03    9.27       6.2  T
   5    -50.7517090 -0.809675E-08  0.894E-04    9.27      21.9  T
   6    -50.7517090 -0.596287E-09  0.506E-04    9.27      38.8  T
speedup  1.09
cpu  time for SCC    0.01 s
wall time for SCC    0.01 s
speedup  1.05
cpu  time for grad    0.01 s
wall time for grad    0.01 s
 E :    -50.45883196  G :  0.004555    pred/act E change: -0.901D-04 -0.971D-04
Maxdispl :   0.1347   ||displ|| :   0.2909   Lambda : -0.165D-03
Largest |displ|/coords:  0.1347 (   5)  0.1276 (   6)  0.0932 (  21)
................................................................................
.............................. CYCLE   32 ......................................
................................................................................
   1    -50.7505030 -0.507505E+02  0.157E-01    9.27       0.0  T
   2    -50.7505058 -0.277712E-05  0.118E-01    9.27       1.0  T
   3    -50.7505083 -0.254215E-05  0.111E-02    9.28       1.8  T
   4    -50.7505086 -0.319970E-06  0.405E-03    9.28       4.8  T
   5    -50.7505087 -0.192988E-07  0.124E-03    9.28      15.9  T
   6    -50.7505087 -0.136203E-08  0.692E-04    9.28      28.4  T
speedup  1.11
cpu  time for SCC    0.01 s
wall time for SCC    0.01 s
speedup  0.99
cpu  time for grad    0.01 s
wall time for grad    0.01 s
 E :    -50.45890864  G :  0.007157    pred/act E change: -0.784D-04 -0.767D-04
Maxdispl :   0.1412   ||displ|| :   0.2927   Lambda : -0.211D-03
Largest |displ|/coords:  0.1412 (   5)  0.1308 (   6)  0.0866 (   7)
................................................................................
.............................. CYCLE   33 ......................................
................................................................................
   1    -50.7487622 -0.507488E+02  0.189E-01    9.27       0.0  T
   2    -50.7487702 -0.794639E-05  0.143E-01    9.27       1.0  T
   3    -50.7487760 -0.586439E-05  0.178E-02    9.27       1.1  T
   4    -50.7487772 -0.113603E-05  0.562E-03    9.27       3.5  T
   5    -50.7487772 -0.546569E-07  0.177E-03    9.27      11.1  T
   6    -50.7487772 -0.116942E-08  0.978E-04    9.27      20.1  T
speedup  1.11
cpu  time for SCC    0.01 s
wall time for SCC    0.01 s
speedup  0.99
cpu  time for grad    0.01 s
wall time for grad    0.01 s
 E :    -50.45896134  G :  0.013108    pred/act E change: -0.896D-04 -0.527D-04
Maxdispl :   0.0819   ||displ|| :   0.1753   Lambda : -0.390D-03
Largest |displ|/coords:  0.0819 (  13)  0.0581 (  11)  0.0552 (  20)
................................................................................
.............................. CYCLE   34 ......................................
................................................................................
   1    -50.7547720 -0.507548E+02  0.125E-01    9.26       0.0  T
   2    -50.7547827 -0.106276E-04  0.937E-02    9.26       1.0  T
   3    -50.7547892 -0.652988E-05  0.194E-02    9.26       1.0  T
   4    -50.7547905 -0.133946E-05  0.598E-03    9.26       3.3  T
   5    -50.7547906 -0.881150E-07  0.208E-03    9.26       9.4  T
   6    -50.7547906 -0.373684E-08  0.115E-03    9.26      17.1  T
speedup  0.93
cpu  time for SCC    0.00 s
wall time for SCC    0.01 s
speedup  0.98
cpu  time for grad    0.01 s
wall time for grad    0.01 s
 E :    -50.45892224  G :  0.019048    pred/act E change: -0.115D-03  0.391D-04
Maxdispl :   0.0957   ||displ|| :   0.1485   Lambda : -0.483D-03
Largest |displ|/coords:  0.0957 (   9)  0.0503 (   1)  0.0398 (   6)
................................................................................
.............................. CYCLE   35 ......................................
................................................................................
   1    -50.7510209 -0.507510E+02  0.115E-01    9.27       0.0  T
   2    -50.7510280 -0.707651E-05  0.869E-02    9.27       1.0  T
   3    -50.7510343 -0.634110E-05  0.145E-02    9.27       1.4  T
   4    -50.7510352 -0.873489E-06  0.444E-03    9.27       4.4  T
   5    -50.7510352 -0.285330E-07  0.187E-03    9.27      10.5  T
   6    -50.7510352 -0.415906E-08  0.894E-04    9.27      21.9  T
speedup  0.91
cpu  time for SCC    0.00 s
wall time for SCC    0.01 s
speedup  0.98
cpu  time for grad    0.01 s
wall time for grad    0.01 s
 E :    -50.45911766  G :  0.007261    pred/act E change: -0.201D-03 -0.195D-03
Maxdispl :   0.1154   ||displ|| :   0.1935   Lambda : -0.215D-03
Largest |displ|/coords:  0.1154 (   6)  0.0881 (   5)  0.0506 (  11)
................................................................................
.............................. CYCLE   36 ......................................
................................................................................
   1    -50.7503713 -0.507504E+02  0.113E-01    9.27       0.0  T
   2    -50.7503736 -0.227874E-05  0.852E-02    9.27       1.0  T
   3    -50.7503755 -0.191661E-05  0.820E-03    9.27       2.4  T
   4    -50.7503758 -0.292811E-06  0.305E-03    9.27       6.4  T
   5    -50.7503758 -0.159960E-07  0.120E-03    9.27      16.4  T
   6    -50.7503758 -0.144240E-08  0.639E-04    9.27      30.7  T
speedup  0.89
cpu  time for SCC    0.01 s
wall time for SCC    0.01 s
speedup  0.98
cpu  time for grad    0.01 s
wall time for grad    0.01 s
 E :    -50.45921540  G :  0.006501    pred/act E change: -0.247D-03 -0.977D-04
Maxdispl :   0.1180   ||displ|| :   0.2584   Lambda : -0.127D-03
Largest |displ|/coords:  0.1180 (   6)  0.1016 (   7)  0.0850 (  11)
................................................................................
.............................. CYCLE   37 ......................................
................................................................................
   1    -50.7499426 -0.507499E+02  0.104E-01    9.25       0.0  T
   2    -50.7499448 -0.215419E-05  0.790E-02    9.26       1.0  T
   3    -50.7499465 -0.173172E-05  0.929E-03    9.26       2.1  T
   4    -50.7499468 -0.319113E-06  0.303E-03    9.26       6.5  T
   5    -50.7499468 -0.992848E-08  0.801E-04    9.26      24.5  T
   6    -50.7499468 -0.590013E-09  0.444E-04    9.26      44.2  T
speedup  0.93
cpu  time for SCC    0.00 s
wall time for SCC    0.01 s
speedup  0.98
cpu  time for grad    0.01 s
wall time for grad    0.01 s
 E :    -50.45931750  G :  0.007311    pred/act E change: -0.112D-03 -0.102D-03
Maxdispl :   0.2455   ||displ|| :   0.5005   Lambda : -0.285D-03
Largest |displ|/coords:  0.2455 (   6)  0.2296 (   1)  0.1634 (   7)
................................................................................
.............................. CYCLE   38 ......................................
................................................................................
   1    -50.7515439 -0.507515E+02  0.176E-01    9.25       0.0  T
   2    -50.7515509 -0.696868E-05  0.133E-01    9.25       1.0  T
   3    -50.7515571 -0.624541E-05  0.151E-02    9.25       1.3  T
   4    -50.7515580 -0.943660E-06  0.598E-03    9.25       3.3  T
   5    -50.7515581 -0.441259E-07  0.170E-03    9.25      11.5  T
   6    -50.7515581 -0.283600E-08  0.990E-04    9.25      19.8  T
speedup  0.93
cpu  time for SCC    0.01 s
wall time for SCC    0.01 s
speedup  0.98
cpu  time for grad    0.01 s
wall time for grad    0.01 s
 E :    -50.45952026  G :  0.006993    pred/act E change: -0.676D-04 -0.203D-03
Maxdispl :   0.3318   ||displ|| :   0.5974   Lambda : -0.261D-03
Largest |displ|/coords:  0.3318 (   6)  0.2416 (   1)  0.1851 (   7)
................................................................................
.............................. CYCLE   39 ......................................
................................................................................
   1    -50.7486742 -0.507487E+02  0.227E-01    9.23       0.0  T
   2    -50.7486829 -0.865707E-05  0.171E-01    9.23       1.0  T
   3    -50.7486914 -0.848798E-05  0.161E-02    9.23       1.2  T
   4    -50.7486923 -0.985139E-06  0.671E-03    9.23       2.9  T
   5    -50.7486924 -0.550388E-07  0.206E-03    9.23       9.5  T
   6    -50.7486924 -0.399842E-08  0.114E-03    9.23      17.2  T
speedup  0.91
cpu  time for SCC    0.00 s
wall time for SCC    0.01 s
speedup  0.98
cpu  time for grad    0.01 s
wall time for grad    0.01 s
 E :    -50.45968451  G :  0.010542    pred/act E change: -0.178D-03 -0.164D-03
Maxdispl :   0.2118   ||displ|| :   0.3843   Lambda : -0.407D-03
Largest |displ|/coords:  0.2118 (   1)  0.2036 (   6)  0.1230 (  20)
................................................................................
.............................. CYCLE   40 ......................................
................................................................................
   1    -50.7540419 -0.507540E+02  0.146E-01    9.30       0.0  T
   2    -50.7540469 -0.508142E-05  0.110E-01    9.30       1.0  T
   3    -50.7540531 -0.614273E-05  0.126E-02    9.30       1.6  T
   4    -50.7540535 -0.382705E-06  0.347E-03    9.30       5.6  T
   5    -50.7540535 -0.149715E-07  0.197E-03    9.30      10.0  T
   6    -50.7540535 -0.554493E-08  0.629E-04    9.30      31.2  T
speedup  0.91
cpu  time for SCC    0.00 s
wall time for SCC    0.01 s
speedup  0.98
cpu  time for grad    0.01 s
wall time for grad    0.01 s
 E :    -50.45983524  G :  0.010115    pred/act E change: -0.177D-03 -0.151D-03
Maxdispl :   0.1755   ||displ|| :   0.3828   Lambda : -0.332D-03
Largest |displ|/coords:  0.1755 (   6)  0.1459 (  11)  0.1398 (   7)
................................................................................
.............................. CYCLE   41 ......................................
................................................................................
   1    -50.7509017 -0.507509E+02  0.175E-01    9.28       0.0  T
   2    -50.7509068 -0.510483E-05  0.132E-01    9.28       1.0  T
   3    -50.7509109 -0.413730E-05  0.131E-02    9.28       1.5  T
   4    -50.7509116 -0.634833E-06  0.532E-03    9.28       3.7  T
   5    -50.7509116 -0.368939E-07  0.141E-03    9.28      13.9  T
   6    -50.7509116 -0.105127E-08  0.814E-04    9.28      24.1  T
speedup  0.91
cpu  time for SCC    0.01 s
wall time for SCC    0.01 s
speedup  0.98
cpu  time for grad    0.01 s
wall time for grad    0.01 s
 E :    -50.45996158  G :  0.012927    pred/act E change: -0.233D-03 -0.126D-03
Maxdispl :   0.1118   ||displ|| :   0.2294   Lambda : -0.331D-03
Largest |displ|/coords:  0.1118 (  11)  0.1088 (   6)  0.0649 (   7)
................................................................................
.............................. CYCLE   42 ......................................
................................................................................
   1    -50.7515748 -0.507516E+02  0.118E-01    9.26       0.0  T
   2    -50.7515804 -0.566830E-05  0.888E-02    9.26       1.0  T
   3    -50.7515839 -0.351624E-05  0.153E-02    9.26       1.3  T
   4    -50.7515847 -0.797253E-06  0.516E-03    9.26       3.8  T
   5    -50.7515848 -0.448962E-07  0.137E-03    9.26      14.3  T
   6    -50.7515848 -0.165244E-08  0.812E-04    9.26      24.2  T
speedup  0.91
cpu  time for SCC    0.00 s
wall time for SCC    0.01 s
speedup  0.96
cpu  time for grad    0.01 s
wall time for grad    0.01 s
 E :    -50.46002491  G :  0.011699    pred/act E change: -0.190D-03 -0.633D-04
Maxdispl :   0.1257   ||displ|| :   0.2150   Lambda : -0.319D-03
Largest |displ|/coords:  0.1257 (   1)  0.1080 (   6)  0.0743 (  20)
................................................................................
.............................. CYCLE   43 ......................................
................................................................................
   1    -50.7510650 -0.507511E+02  0.101E-01    9.26       0.0  T
   2    -50.7510680 -0.300224E-05  0.766E-02    9.26       1.0  T
   3    -50.7510709 -0.293178E-05  0.102E-02    9.26       1.9  T
   4    -50.7510712 -0.320232E-06  0.337E-03    9.26       5.8  T
   5    -50.7510712 -0.122409E-07  0.123E-03    9.26      15.9  T
   6    -50.7510712 -0.207820E-08  0.663E-04    9.26      29.6  T
speedup  0.91
cpu  time for SCC    0.00 s
wall time for SCC    0.01 s
speedup  0.97
cpu  time for grad    0.01 s
wall time for grad    0.01 s
 E :    -50.46015842  G :  0.011186    pred/act E change: -0.174D-03 -0.134D-03
Maxdispl :   0.0870   ||displ|| :   0.1911   Lambda : -0.343D-03
Largest |displ|/coords:  0.0870 (   1)  0.0687 (   7)  0.0598 (  10)
................................................................................
.............................. CYCLE   44 ......................................
................................................................................
   1    -50.7527503 -0.507528E+02  0.133E-01    9.30       0.0  T
   2    -50.7527560 -0.570033E-05  0.998E-02    9.30       1.0  T
   3    -50.7527599 -0.395371E-05  0.140E-02    9.30       1.4  T
   4    -50.7527607 -0.764060E-06  0.379E-03    9.30       5.2  T
   5    -50.7527607 -0.169787E-07  0.147E-03    9.30      13.3  T
   6    -50.7527607 -0.173698E-08  0.748E-04    9.30      26.2  T
speedup  0.91
cpu  time for SCC    0.00 s
wall time for SCC    0.01 s
speedup  0.98
cpu  time for grad    0.01 s
wall time for grad    0.01 s
 E :    -50.46009174  G :  0.015957    pred/act E change: -0.167D-03  0.667D-04
Maxdispl :   0.1474   ||displ|| :   0.2525   Lambda : -0.511D-03
Largest |displ|/coords:  0.1474 (   6)  0.1199 (  11)  0.0942 (   1)
................................................................................
.............................. CYCLE   45 ......................................
................................................................................
   1    -50.7522932 -0.507523E+02  0.997E-02    9.28       0.0  T
   2    -50.7522969 -0.371519E-05  0.748E-02    9.28       1.0  T
   3    -50.7522992 -0.226230E-05  0.115E-02    9.29       1.7  T
   4    -50.7522997 -0.503677E-06  0.382E-03    9.28       5.1  T
   5    -50.7522997 -0.305113E-07  0.112E-03    9.28      17.5  T
   6    -50.7522997 -0.876746E-09  0.625E-04    9.28      31.4  T
speedup  0.91
cpu  time for SCC    0.00 s
wall time for SCC    0.01 s
speedup  0.98
cpu  time for grad    0.01 s
wall time for grad    0.01 s
 E :    -50.46033133  G :  0.008760    pred/act E change: -0.178D-03 -0.240D-03
Maxdispl :   0.2158   ||displ|| :   0.4109   Lambda : -0.294D-03
Largest |displ|/coords:  0.2158 (   6)  0.1547 (   1)  0.1449 (  11)
................................................................................
.............................. CYCLE   46 ......................................
................................................................................
   1    -50.7486376 -0.507486E+02  0.159E-01    9.26       0.0  T
   2    -50.7486474 -0.983777E-05  0.119E-01    9.26       1.0  T
   3    -50.7486539 -0.645847E-05  0.202E-02    9.27       1.0  T
   4    -50.7486553 -0.137717E-05  0.635E-03    9.26       3.1  T
   5    -50.7486553 -0.865803E-07  0.188E-03    9.26      10.4  T
   6    -50.7486553 -0.261143E-08  0.112E-03    9.26      17.6  T
speedup  0.91
cpu  time for SCC    0.00 s
wall time for SCC    0.01 s
speedup  0.97
cpu  time for grad    0.01 s
wall time for grad    0.01 s
 E :    -50.46028296  G :  0.015470    pred/act E change: -0.272D-03  0.484D-04
Maxdispl :   0.0700   ||displ|| :   0.1281   Lambda : -0.409D-03
Largest |displ|/coords:  0.0700 (   5)  0.0357 (  23)  0.0344 (   4)
................................................................................
.............................. CYCLE   47 ......................................
................................................................................
   1    -50.7513128 -0.507513E+02  0.730E-02    9.29       0.0  T
   2    -50.7513161 -0.331376E-05  0.541E-02    9.29       1.0  T
   3    -50.7513181 -0.202031E-05  0.116E-02    9.29       1.7  T
   4    -50.7513185 -0.379069E-06  0.398E-03    9.29       4.9  T
   5    -50.7513185 -0.281169E-07  0.109E-03    9.29      17.9  T
   6    -50.7513185 -0.131451E-08  0.631E-04    9.29      31.1  T
speedup  0.91
cpu  time for SCC    0.00 s
wall time for SCC    0.01 s
speedup  0.97
cpu  time for grad    0.01 s
wall time for grad    0.01 s
 E :    -50.46049931  G :  0.007227    pred/act E change: -0.172D-03 -0.216D-03
Maxdispl :   0.1952   ||displ|| :   0.3575   Lambda : -0.196D-03
Largest |displ|/coords:  0.1952 (   1)  0.1828 (   6)  0.1104 (   7)
................................................................................
.............................. CYCLE   48 ......................................
................................................................................
   1    -50.7509119 -0.507509E+02  0.110E-01    9.29       0.0  T
   2    -50.7509146 -0.269986E-05  0.830E-02    9.29       1.0  T
   3    -50.7509169 -0.229045E-05  0.105E-02    9.29       1.9  T
   4    -50.7509172 -0.331624E-06  0.350E-03    9.29       5.6  T
   5    -50.7509172 -0.161838E-07  0.105E-03    9.29      18.8  T
   6    -50.7509172 -0.116651E-08  0.552E-04    9.29      35.5  T
speedup  0.93
cpu  time for SCC    0.00 s
wall time for SCC    0.01 s
speedup  0.98
cpu  time for grad    0.01 s
wall time for grad    0.01 s
 E :    -50.46053406  G :  0.010198    pred/act E change: -0.208D-03 -0.347D-04
Maxdispl :   0.0663   ||displ|| :   0.1760   Lambda : -0.223D-03
Largest |displ|/coords:  0.0663 (   5)  0.0623 (  23)  0.0553 (   6)
................................................................................
.............................. CYCLE   49 ......................................
................................................................................
   1    -50.7541784 -0.507542E+02  0.682E-02    9.34       0.0  T
   2    -50.7541819 -0.348886E-05  0.502E-02    9.34       1.0  T
   3    -50.7541839 -0.201234E-05  0.125E-02    9.34       1.6  T
   4    -50.7541843 -0.345439E-06  0.341E-03    9.34       5.8  T
   5    -50.7541843 -0.235163E-07  0.976E-04    9.34      20.1  T
   6    -50.7541843 -0.950244E-09  0.577E-04    9.34      34.0  T
speedup  1.09
cpu  time for SCC    0.01 s
wall time for SCC    0.01 s
speedup  0.97
cpu  time for grad    0.01 s
wall time for grad    0.01 s
 E :    -50.46063337  G :  0.006724    pred/act E change: -0.110D-03 -0.993D-04
Maxdispl :   0.2916   ||displ|| :   0.5521   Lambda : -0.382D-03
Largest |displ|/coords:  0.2916 (   6)  0.2590 (   1)  0.1950 (   7)
................................................................................
.............................. CYCLE   50 ......................................
................................................................................
   1    -50.7473920 -0.507474E+02  0.223E-01    9.34       0.0  T
   2    -50.7474075 -0.155357E-04  0.169E-01    9.34       1.0  T
   3    -50.7474225 -0.149246E-04  0.217E-02    9.34       1.0  T
   4    -50.7474242 -0.178034E-05  0.721E-03    9.34       2.7  T
   5    -50.7474243 -0.785370E-07  0.282E-03    9.34       6.9  T
   6    -50.7474243 -0.843202E-08  0.151E-03    9.34      13.0  T
speedup  1.11
cpu  time for SCC    0.01 s
wall time for SCC    0.01 s
speedup  1.04
cpu  time for grad    0.01 s
wall time for grad    0.01 s
 E :    -50.46049166  G :  0.024067    pred/act E change: -0.115D-03  0.142D-03
Maxdispl :   0.0459   ||displ|| :   0.0936   Lambda : -0.648D-03
Largest |displ|/coords:  0.0459 (   6)  0.0292 (   3)  0.0279 (  21)
................................................................................
.............................. CYCLE   51 ......................................
................................................................................
   1    -50.7518365 -0.507518E+02  0.951E-02    9.33       0.0  T
   2    -50.7518420 -0.553075E-05  0.719E-02    9.33       1.0  T
   3    -50.7518464 -0.441470E-05  0.131E-02    9.33       1.5  T
   4    -50.7518471 -0.705660E-06  0.316E-03    9.33       6.2  T
   5    -50.7518471 -0.105320E-07  0.144E-03    9.33      13.7  T
speedup  1.09
cpu  time for SCC    0.00 s
wall time for SCC    0.00 s
speedup  1.04
cpu  time for grad    0.01 s
wall time for grad    0.01 s
 E :    -50.46079603  G :  0.005646    pred/act E change: -0.250D-03 -0.304D-03
Maxdispl :   0.1332   ||displ|| :   0.2469   Lambda : -0.153D-03
Largest |displ|/coords:  0.1332 (   6)  0.1289 (   1)  0.0587 (  29)
................................................................................
.............................. CYCLE   52 ......................................
................................................................................
   1    -50.7522454 -0.507522E+02  0.971E-02    9.36       0.0  T
   2    -50.7522474 -0.207997E-05  0.740E-02    9.36       1.0  T
   3    -50.7522501 -0.267507E-05  0.680E-03    9.36       2.9  T
   4    -50.7522502 -0.113077E-06  0.318E-03    9.36       6.2  T
   5    -50.7522502 -0.104188E-07  0.866E-04    9.36      22.7  T
   6    -50.7522502 -0.897458E-09  0.473E-04    9.36      41.5  T
speedup  0.91
cpu  time for SCC    0.00 s
wall time for SCC    0.01 s
speedup  0.96
cpu  time for grad    0.01 s
wall time for grad    0.01 s
 E :    -50.46084123  G :  0.008428    pred/act E change: -0.327D-03 -0.452D-04
Maxdispl :   0.1513   ||displ|| :   0.2798   Lambda : -0.138D-03
Largest |displ|/coords:  0.1513 (   1)  0.1187 (   6)  0.0954 (   7)

generating ANC from model Hessian ...
 Shifting diagonal of input Hessian by   5.105577879953378E-003
 Lowest  eigenvalues of input Hessian
    0.005000    0.005096   -0.000000   -0.000000   -0.000000   -0.000000
    0.000000    0.000000    0.005396    0.005488    0.005779    0.005862
    0.005970    0.006340    0.007196    0.007574    0.007917    0.009036
 Highest eigenvalues
    1.405589    1.411525    1.483904    2.656793    3.451896    3.622315
 
cpu  time for ANC gen    0.01 s
wall time for ANC gen    0.01 s
................................................................................
.............................. CYCLE   53 ......................................
................................................................................
   1    -50.7513558 -0.507514E+02  0.930E-02    9.36       0.0  T
   2    -50.7513577 -0.190074E-05  0.703E-02    9.36       1.0  T
   3    -50.7513596 -0.190657E-05  0.785E-03    9.36       2.5  T
   4    -50.7513599 -0.216458E-06  0.281E-03    9.36       7.0  T
   5    -50.7513599 -0.124768E-07  0.990E-04    9.36      19.8  T
   6    -50.7513599 -0.116296E-08  0.499E-04    9.36      39.3  T
speedup  1.09
cpu  time for SCC    0.01 s
wall time for SCC    0.01 s
speedup  1.00
cpu  time for grad    0.01 s
wall time for grad    0.01 s
 E :    -50.46094999  G :  0.006546    pred/act E change:  0.000D+00 -0.109D-03
Maxdispl :   0.1077   ||displ|| :   0.1838   Lambda : -0.307D-03
Largest |displ|/coords:  0.1077 (   3)  0.0835 (  11)  0.0793 (   4)
................................................................................
.............................. CYCLE   54 ......................................
................................................................................
   1    -50.7521451 -0.507521E+02  0.134E-01    9.35       0.0  T
   2    -50.7521472 -0.216799E-05  0.101E-01    9.34       1.0  T
   3    -50.7521498 -0.252167E-05  0.844E-03    9.34       2.3  T
   4    -50.7521500 -0.195300E-06  0.359E-03    9.35       5.5  T
   5    -50.7521500 -0.187154E-07  0.123E-03    9.35      15.9  T
   6    -50.7521500 -0.208420E-08  0.611E-04    9.35      32.1  T
speedup  0.93
cpu  time for SCC    0.01 s
wall time for SCC    0.01 s
speedup  0.97
cpu  time for grad    0.01 s
wall time for grad    0.01 s
 E :    -50.46111450  G :  0.005367    pred/act E change:  0.000D+00 -0.165D-03
Maxdispl :   0.0945   ||displ|| :   0.1591   Lambda : -0.204D-03
Largest |displ|/coords:  0.0945 (   3)  0.0636 (   4)  0.0575 (  22)
................................................................................
.............................. CYCLE   55 ......................................
................................................................................
   1    -50.7531057 -0.507531E+02  0.123E-01    9.34       0.0  T
   2    -50.7531075 -0.177747E-05  0.930E-02    9.34       1.0  T
   3    -50.7531095 -0.196964E-05  0.740E-03    9.34       2.6  T
   4    -50.7531096 -0.129331E-06  0.249E-03    9.34       7.9  T
   5    -50.7531096 -0.618659E-08  0.978E-04    9.34      20.0  T
speedup  1.09
cpu  time for SCC    0.00 s
wall time for SCC    0.00 s
speedup  1.03
cpu  time for grad    0.01 s
wall time for grad    0.01 s
 E :    -50.46127505  G :  0.004076    pred/act E change: -0.159D-03 -0.161D-03
Maxdispl :   0.2385   ||displ|| :   0.3884   Lambda : -0.329D-03
Largest |displ|/coords:  0.2385 (   3)  0.1670 (   5)  0.1572 (   4)
................................................................................
.............................. CYCLE   56 ......................................
................................................................................
   1    -50.7520378 -0.507520E+02  0.264E-01    9.32       0.0  T
   2    -50.7520470 -0.919590E-05  0.199E-01    9.32       1.0  T
   3    -50.7520565 -0.950169E-05  0.184E-02    9.33       1.1  T
   4    -50.7520573 -0.870459E-06  0.546E-03    9.33       3.6  T
   5    -50.7520574 -0.354720E-07  0.265E-03    9.33       7.4  T
   6    -50.7520574 -0.832719E-08  0.129E-03    9.33      15.2  T
speedup  1.09
cpu  time for SCC    0.01 s
wall time for SCC    0.01 s
speedup  1.04
cpu  time for grad    0.01 s
wall time for grad    0.01 s
 E :    -50.46139763  G :  0.015489    pred/act E change: -0.105D-03 -0.123D-03
Maxdispl :   0.0984   ||displ|| :   0.1916   Lambda : -0.366D-03
Largest |displ|/coords:  0.0984 (   3)  0.0736 (   4)  0.0577 (  11)
................................................................................
.............................. CYCLE   57 ......................................
................................................................................
   1    -50.7529533 -0.507530E+02  0.156E-01    9.32       0.0  T
   2    -50.7529577 -0.438746E-05  0.119E-01    9.32       1.0  T
   3    -50.7529628 -0.510398E-05  0.101E-02    9.32       2.0  T
   4    -50.7529631 -0.278895E-06  0.341E-03    9.32       5.8  T
   5    -50.7529631 -0.951646E-08  0.123E-03    9.32      15.9  T
   6    -50.7529631 -0.151874E-08  0.657E-04    9.32      29.9  T
speedup  0.91
cpu  time for SCC    0.01 s
wall time for SCC    0.01 s
speedup  0.96
cpu  time for grad    0.01 s
wall time for grad    0.01 s
 E :    -50.46161258  G :  0.007037    pred/act E change: -0.189D-03 -0.215D-03
Maxdispl :   0.2223   ||displ|| :   0.3433   Lambda : -0.244D-03
Largest |displ|/coords:  0.2223 (   3)  0.1739 (   4)  0.1276 (   5)
................................................................................
.............................. CYCLE   58 ......................................
................................................................................
   1    -50.7522121 -0.507522E+02  0.163E-01    9.30       0.0  T
   2    -50.7522152 -0.313318E-05  0.123E-01    9.31       1.0  T
   3    -50.7522187 -0.351488E-05  0.112E-02    9.31       1.7  T
   4    -50.7522189 -0.229156E-06  0.405E-03    9.31       4.8  T
   5    -50.7522190 -0.203513E-07  0.142E-03    9.31      13.8  T
   6    -50.7522190 -0.225236E-08  0.889E-04    9.31      22.1  T
speedup  0.93
cpu  time for SCC    0.00 s
wall time for SCC    0.01 s
speedup  0.97
cpu  time for grad    0.01 s
wall time for grad    0.01 s
 E :    -50.46181925  G :  0.007603    pred/act E change: -0.190D-03 -0.207D-03
Maxdispl :   0.3835   ||displ|| :   0.6247   Lambda : -0.561D-03
Largest |displ|/coords:  0.3835 (   3)  0.3001 (   4)  0.2737 (   5)
................................................................................
.............................. CYCLE   59 ......................................
................................................................................
   1    -50.7541467 -0.507541E+02  0.271E-01    9.28       0.0  T
   2    -50.7541580 -0.113539E-04  0.204E-01    9.29       1.0  T
   3    -50.7541702 -0.121948E-04  0.211E-02    9.29       1.0  T
   4    -50.7541710 -0.809072E-06  0.690E-03    9.29       2.8  T
   5    -50.7541711 -0.646614E-07  0.240E-03    9.29       8.2  T
   6    -50.7541711 -0.722743E-08  0.141E-03    9.29      13.9  T
speedup  0.91
cpu  time for SCC    0.00 s
wall time for SCC    0.01 s
speedup  0.96
cpu  time for grad    0.01 s
wall time for grad    0.01 s
 E :    -50.46199028  G :  0.017303    pred/act E change: -0.137D-03 -0.171D-03
Maxdispl :   0.2424   ||displ|| :   0.3852   Lambda : -0.569D-03
Largest |displ|/coords:  0.2424 (   3)  0.1649 (   4)  0.1452 (   5)
................................................................................
.............................. CYCLE   60 ......................................
................................................................................
   1    -50.7497596 -0.507498E+02  0.247E-01    9.27       0.0  T
   2    -50.7497763 -0.166646E-04  0.187E-01    9.28       1.0  T
   3    -50.7497920 -0.156971E-04  0.224E-02    9.28       1.0  T
   4    -50.7497939 -0.193955E-05  0.809E-03    9.28       2.4  T
   5    -50.7497940 -0.102216E-06  0.297E-03    9.28       6.6  T
   6    -50.7497940 -0.768082E-08  0.168E-03    9.28      11.7  T
speedup  0.93
cpu  time for SCC    0.00 s
wall time for SCC    0.01 s
speedup  0.96
cpu  time for grad    0.01 s
wall time for grad    0.01 s
 E :    -50.46200970  G :  0.023916    pred/act E change: -0.390D-03 -0.194D-04
Maxdispl :   0.1782   ||displ|| :   0.2924   Lambda : -0.955D-03
Largest |displ|/coords:  0.1782 (   3)  0.1507 (   4)  0.0995 (   5)
................................................................................
.............................. CYCLE   61 ......................................
................................................................................
   1    -50.7557628 -0.507558E+02  0.189E-01    9.37       0.0  T
   2    -50.7557791 -0.163254E-04  0.141E-01    9.37       1.0  T
   3    -50.7557890 -0.987161E-05  0.255E-02    9.36       1.0  T
   4    -50.7557912 -0.216063E-05  0.588E-03    9.36       3.3  T
   5    -50.7557912 -0.685412E-07  0.254E-03    9.36       7.7  T
speedup  1.09
cpu  time for SCC    0.00 s
wall time for SCC    0.00 s
speedup  1.02
cpu  time for grad    0.01 s
wall time for grad    0.01 s
 E :    -50.46216200  G :  0.014356    pred/act E change: -0.327D-03 -0.152D-03
Maxdispl :   0.1292   ||displ|| :   0.2838   Lambda : -0.730D-03
Largest |displ|/coords:  0.1292 (   4)  0.1255 (   3)  0.1051 (   8)
................................................................................
.............................. CYCLE   62 ......................................
................................................................................
   1    -50.7540065 -0.507540E+02  0.236E-01    9.35       0.0  T
   2    -50.7540196 -0.130946E-04  0.179E-01    9.35       1.0  T
   3    -50.7540321 -0.125236E-04  0.207E-02    9.35       1.0  T
   4    -50.7540335 -0.143366E-05  0.596E-03    9.35       3.3  T
   5    -50.7540336 -0.528631E-07  0.270E-03    9.35       7.3  T
   6    -50.7540336 -0.609903E-08  0.127E-03    9.35      15.5  T
speedup  0.91
cpu  time for SCC    0.00 s
wall time for SCC    0.01 s
speedup  0.97
cpu  time for grad    0.01 s
wall time for grad    0.01 s
 E :    -50.46229343  G :  0.015318    pred/act E change: -0.518D-03 -0.131D-03
Maxdispl :   0.0883   ||displ|| :   0.1602   Lambda : -0.503D-03
Largest |displ|/coords:  0.0883 (   8)  0.0702 (   5)  0.0546 (   3)
................................................................................
.............................. CYCLE   63 ......................................
................................................................................
   1    -50.7568653 -0.507569E+02  0.103E-01    9.35       0.0  T
   2    -50.7568689 -0.365305E-05  0.777E-02    9.35       1.0  T
   3    -50.7568727 -0.378619E-05  0.100E-02    9.35       2.0  T
   4    -50.7568731 -0.379745E-06  0.306E-03    9.35       6.4  T
   5    -50.7568731 -0.113349E-07  0.145E-03    9.35      13.5  T
   6    -50.7568731 -0.355271E-08  0.514E-04    9.35      38.2  T
speedup  0.91
cpu  time for SCC    0.01 s
wall time for SCC    0.01 s
speedup  0.96
cpu  time for grad    0.01 s
wall time for grad    0.01 s
 E :    -50.46243478  G :  0.011900    pred/act E change: -0.394D-03 -0.141D-03
Maxdispl :   0.1069   ||displ|| :   0.1991   Lambda : -0.322D-03
Largest |displ|/coords:  0.1069 (   3)  0.0688 (   5)  0.0622 (   6)
................................................................................
.............................. CYCLE   64 ......................................
................................................................................
   1    -50.7528195 -0.507528E+02  0.165E-01    9.35       0.0  T
   2    -50.7528269 -0.733787E-05  0.125E-01    9.35       1.0  T
   3    -50.7528327 -0.586771E-05  0.150E-02    9.35       1.3  T
   4    -50.7528337 -0.977282E-06  0.475E-03    9.35       4.1  T
   5    -50.7528338 -0.420292E-07  0.179E-03    9.35      11.0  T
   6    -50.7528338 -0.210746E-08  0.102E-03    9.35      19.2  T
speedup  1.11
cpu  time for SCC    0.01 s
wall time for SCC    0.01 s
speedup  1.04
cpu  time for grad    0.01 s
wall time for grad    0.01 s
 E :    -50.46257067  G :  0.011025    pred/act E change: -0.258D-03 -0.136D-03
Maxdispl :   0.0558   ||displ|| :   0.1307   Lambda : -0.163D-03
Largest |displ|/coords:  0.0558 (   3)  0.0553 (   4)  0.0538 (   8)
................................................................................
.............................. CYCLE   65 ......................................
................................................................................
   1    -50.7538778 -0.507539E+02  0.693E-02    9.36       0.0  T
   2    -50.7538792 -0.138674E-05  0.521E-02    9.36       1.0  T
   3    -50.7538804 -0.121737E-05  0.643E-03    9.36       3.0  T
   4    -50.7538806 -0.172409E-06  0.207E-03    9.36       9.5  T
   5    -50.7538806 -0.610236E-08  0.882E-04    9.36      22.2  T
speedup  1.09
cpu  time for SCC    0.00 s
wall time for SCC    0.00 s
speedup  1.03
cpu  time for grad    0.01 s
wall time for grad    0.01 s
[...]
   2    -50.7562287 -0.590851E-07  0.104E-02    9.34       1.9  T
   3    -50.7562287 -0.467527E-07  0.159E-03    9.34      12.4  T
   4    -50.7562287 -0.755931E-08  0.454E-04    9.34      43.2  T
   5    -50.7562287 -0.332449E-09  0.152E-04    9.34     129.0  T
speedup  1.09
cpu  time for SCC    0.00 s
wall time for SCC    0.00 s
speedup  1.07
cpu  time for grad    0.01 s
wall time for grad    0.01 s
 E :    -50.46367833  G :  0.001083    pred/act E change: -0.194D-05 -0.109D-05
Maxdispl :   0.0511   ||displ|| :   0.0614   Lambda : -0.256D-05
Largest |displ|/coords:  0.0511 (   2)  0.0206 (   8)  0.0165 (   9)
................................................................................
.............................. CYCLE  106 ......................................
................................................................................
   1    -50.7561245 -0.507561E+02  0.307E-02    9.34       0.0  T
   2    -50.7561246 -0.100771E-06  0.231E-02    9.34       1.0  T
   3    -50.7561247 -0.107482E-06  0.191E-03    9.34      10.3  T
   4    -50.7561247 -0.100684E-07  0.791E-04    9.34      24.8  T
   5    -50.7561247 -0.810033E-09  0.252E-04    9.34      78.0  T
speedup  0.87
cpu  time for SCC    0.00 s
wall time for SCC    0.00 s
speedup  0.99
cpu  time for grad    0.01 s
wall time for grad    0.01 s
 E :    -50.46367948  G :  0.000851    pred/act E change: -0.141D-05 -0.116D-05
Maxdispl :   0.0046   ||displ|| :   0.0085   Lambda : -0.971D-06
Largest |displ|/coords:  0.0046 (   9)  0.0033 (   3)  0.0032 (   5)
................................................................................
.............................. CYCLE  107 ......................................
................................................................................
   1    -50.7561753 -0.507562E+02  0.462E-03    9.34       0.0  T
   2    -50.7561753 -0.645299E-08  0.346E-03    9.34       5.7  T
   3    -50.7561753 -0.311879E-08  0.573E-04    9.34      34.2  T
   4    -50.7561753 -0.106168E-08  0.207E-04    9.34      94.8  T
speedup  1.08
cpu  time for SCC    0.00 s
wall time for SCC    0.00 s
speedup  0.98
cpu  time for grad    0.01 s
wall time for grad    0.01 s
 E :    -50.46368017  G :  0.000446    pred/act E change: -0.128D-05 -0.690D-06
Maxdispl :   0.0167   ||displ|| :   0.0215   Lambda : -0.815D-06
Largest |displ|/coords:  0.0167 (   2)  0.0074 (   9)  0.0069 (   7)
................................................................................
.............................. CYCLE  108 ......................................
................................................................................
   1    -50.7562431 -0.507562E+02  0.984E-03    9.34       0.0  T
   2    -50.7562431 -0.894082E-08  0.739E-03    9.34       2.7  T
   3    -50.7562431 -0.104418E-07  0.597E-04    9.35      32.9  T
   4    -50.7562431 -0.600600E-09  0.206E-04    9.34      95.3  T
speedup  0.79
cpu  time for SCC    0.00 s
wall time for SCC    0.00 s
speedup  0.98
cpu  time for grad    0.01 s
wall time for grad    0.01 s
 E :    -50.46368069  G :  0.000305    pred/act E change: -0.486D-06 -0.513D-06
Maxdispl :   0.0142   ||displ|| :   0.0169   Lambda : -0.327D-06
Largest |displ|/coords:  0.0142 (   2)  0.0064 (   9)  0.0031 (   7)
................................................................................
.............................. CYCLE  109 ......................................
................................................................................
   1    -50.7563057 -0.507563E+02  0.700E-03    9.35       0.0  T
   2    -50.7563057 -0.441209E-08  0.525E-03    9.35       3.7  T
   3    -50.7563057 -0.512978E-08  0.452E-04    9.35      43.4  T
   4    -50.7563057 -0.299146E-09  0.128E-04    9.35     153.2  T
speedup  1.05
cpu  time for SCC    0.00 s
wall time for SCC    0.00 s
speedup  0.98
cpu  time for grad    0.01 s
wall time for grad    0.01 s
 E :    -50.46368093  G :  0.000273    pred/act E change: -0.408D-06 -0.240D-06
Maxdispl :   0.0190   ||displ|| :   0.0216   Lambda : -0.299D-06
Largest |displ|/coords:  0.0190 (   2)  0.0058 (   9)  0.0035 (   7)
................................................................................
.............................. CYCLE  110 ......................................
................................................................................
   1    -50.7563439 -0.507563E+02  0.932E-03    9.34       0.0  T
   2    -50.7563439 -0.777880E-08  0.700E-03    9.34       2.8  T
   3    -50.7563439 -0.766453E-08  0.574E-04    9.34      34.2  T
   4    -50.7563439 -0.810658E-09  0.222E-04    9.34      88.2  T
speedup  1.08
cpu  time for SCC    0.00 s
wall time for SCC    0.00 s
speedup  1.06
cpu  time for grad    0.01 s
wall time for grad    0.01 s
 E :    -50.46368113  G :  0.000230    pred/act E change: -0.164D-06 -0.206D-06
Maxdispl :   0.0088   ||displ|| :   0.0111   Lambda : -0.184D-06
Largest |displ|/coords:  0.0088 (   2)  0.0040 (   3)  0.0037 (   9)
................................................................................
.............................. CYCLE  111 ......................................
................................................................................
   1    -50.7563685 -0.507564E+02  0.453E-03    9.34       0.0  T
   2    -50.7563685 -0.288589E-08  0.340E-03    9.34       5.8  T
   3    -50.7563685 -0.206256E-08  0.367E-04    9.34      53.4  T
   4    -50.7563685 -0.436430E-09  0.137E-04    9.34     143.6  T
speedup  1.05
cpu  time for SCC    0.00 s
wall time for SCC    0.00 s
speedup  0.98
cpu  time for grad    0.01 s
wall time for grad    0.01 s
 E :    -50.46368128  G :  0.000154    pred/act E change: -0.149D-06 -0.142D-06
Maxdispl :   0.0115   ||displ|| :   0.0148   Lambda : -0.193D-06
Largest |displ|/coords:  0.0115 (   2)  0.0057 (   3)  0.0044 (   9)
................................................................................
.............................. CYCLE  112 ......................................
................................................................................
   1    -50.7563380 -0.507563E+02  0.661E-03    9.34       0.0  T
   2    -50.7563380 -0.590352E-08  0.498E-03    9.34       3.9  T
   3    -50.7563380 -0.422750E-08  0.502E-04    9.34      39.1  T
   4    -50.7563380 -0.947026E-09  0.189E-04    9.34     103.9  T
speedup  1.08
cpu  time for SCC    0.00 s
wall time for SCC    0.00 s
speedup  1.05
cpu  time for grad    0.01 s
wall time for grad    0.01 s
 E :    -50.46368141  G :  0.000151    pred/act E change: -0.958D-07 -0.131D-06
Maxdispl :   0.0071   ||displ|| :   0.0090   Lambda : -0.146D-06
Largest |displ|/coords:  0.0071 (   3)  0.0025 (   9)  0.0022 (  11)

generating ANC from model Hessian ...
 Shifting diagonal of input Hessian by   5.382924328076836E-003
 Lowest  eigenvalues of input Hessian
    0.005000    0.005310   -0.000000   -0.000000   -0.000000    0.000000
    0.000000    0.000000    0.005431    0.005965    0.006080    0.006477
    0.006516    0.007117    0.007260    0.007389    0.008816    0.009437
 Highest eigenvalues
    1.409423    1.416796    1.485170    2.639169    3.389593    3.667414
 
cpu  time for ANC gen    0.01 s
wall time for ANC gen    0.01 s
................................................................................
.............................. CYCLE  113 ......................................
................................................................................
   1    -50.7563447 -0.507563E+02  0.353E-03    9.34       0.0  T
   2    -50.7563447 -0.233725E-08  0.266E-03    9.34       7.4  T
   3    -50.7563447 -0.204417E-08  0.313E-04    9.34      62.6  T
   4    -50.7563447 -0.301796E-09  0.126E-04    9.34     155.4  T
speedup  1.05
cpu  time for SCC    0.00 s
wall time for SCC    0.00 s
speedup  0.98
cpu  time for grad    0.01 s
wall time for grad    0.01 s
 E :    -50.46368151  G :  0.000197    pred/act E change:  0.000D+00 -0.105D-06
Maxdispl :   0.0013   ||displ|| :   0.0022   Lambda : -0.793D-07
Largest |displ|/coords:  0.0013 (   6)  0.0010 (   3)  0.0006 (  15)
................................................................................
.............................. CYCLE  114 ......................................
................................................................................
   1    -50.7563319 -0.507563E+02  0.233E-03    9.34       0.0  T
   2    -50.7563319 -0.646601E-09  0.177E-03    9.34      11.1  T
   3    -50.7563319 -0.655938E-09  0.135E-04    9.34     145.1  T
   4    -50.7563319 -0.637428E-10  0.455E-05    9.34     431.3  T
speedup  1.08
cpu  time for SCC    0.00 s
wall time for SCC    0.00 s
speedup  0.98
cpu  time for grad    0.01 s
wall time for grad    0.01 s
 E :    -50.46368158  G :  0.000120    pred/act E change:  0.000D+00 -0.654D-07
Maxdispl :   0.0061   ||displ|| :   0.0099   Lambda : -0.250D-06
Largest |displ|/coords:  0.0061 (   3)  0.0035 (   5)  0.0030 (   6)

   *** GEOMETRY OPTIMIZATION CONVERGED AFTER 114 ITERATIONS ***

------------------------------------------------------------------------
 total energy gain (kcal):     -0.0000
------------------------------------------------------------------------
================
 final structure:
================
$coord
        0.57283331745502       -0.59454375740799       -1.88093986390707      S 
       -2.17243122397836       -0.53436045575270       -2.15005572043444      O 
        1.40444992069270        1.41923872168212       -0.14657980182169      O 
        1.10609015891550       -3.13992489296513       -0.45401048285045      O 
        1.93643890141020       -0.60717442632200       -4.22943394928119      O 
       -6.95672031575077       -2.18384890803783       -0.59388706436914      O 
       -5.37628538828939       -1.95907059949215       -1.49178529781716      H 
       -8.01761732927179       -3.17155822962487       -1.67803750668397      H 
        0.07508164750344       -0.69467981170815        4.19704920088690      O 
        0.86707810742727        0.16339840289970        2.75496994360921      H 
        0.32951636132704       -2.46355189629573        3.87415803882040      H 
       -1.33182615645678        5.46878708827114        1.21707390080882      O 
       -0.22959035797262        4.15098802279461        0.52490130571577      H 
       -0.26043481744287        6.57744618772794        2.16660913545332      H 
        6.10942298941989        1.29782601863521       -2.34004653813735      O 
        4.78092718626624        0.80267794410889       -3.52928698856974      H 
        5.18450391843480        2.15122933254243       -1.02361627555031      H 
        5.95866552851888       -3.46265502704055       -0.88783980129604      O 
        2.97396015613537       -3.39192708947233       -0.55499198694349      H 
        6.32870740521129       -4.40471475870622       -2.39285601479260      H 
        6.35342389034747       -1.67553814403804       -1.29936539014453      H 
       -3.99507887603675        1.27415100409806        2.03969851552090      N 
       -3.67631677966555        3.20272412199756        2.06479117908873      H 
       -3.32502521315637        0.61870276467643        0.24837630213391      H 
       -2.80162595284322        0.40790171717563        3.36156514034320      H 
       -5.83814707816185        0.74847667007629        2.20353998265656      H 
$end
 
 Bond Distances (Angstroems)
 ---------------------------
S1-O2=1.4600         S1-O3=1.4736         S1-O4=1.5697         S1-O5=1.4371         O2-S1=1.4600         O3-S1=1.4736         
O4-S1=1.5697         O4-H19=0.9988        O5-S1=1.4371         O6-H7=0.9692         O6-H8=0.9579         H7-O6=0.9692         
H8-O6=0.9579         O9-H10=0.9819        O9-H11=0.9610        H10-O9=0.9819        H11-O9=0.9610        O12-H13=0.9801       
O12-H14=0.9582       H13-O12=0.9801       H14-O12=0.9582       O15-H16=0.9792       O15-H17=0.9637       H16-O15=0.9792       
H17-O15=0.9637       O18-H20=0.9598       O18-H21=0.9927       H19-O4=0.9988        H20-O18=0.9598       H21-O18=0.9927       
N22-H23=1.0345       N22-H24=1.0699       N22-H25=1.0480       N22-H26=1.0179       H23-N22=1.0345       H24-N22=1.0699       
H25-N22=1.0480       H26-N22=1.0179       
 N  H  Rav=1.0426 sigma=0.0190  Rmin=1.0179  Rmax=1.0699     4
 O  H  Rav=0.9730 sigma=0.0138  Rmin=0.9579  Rmax=0.9988    11
 S  O  Rav=1.4851 sigma=0.0506  Rmin=1.4371  Rmax=1.5697     4
 
 selected bond angles (degree)
 --------------------
O3-S1-O2=110.01                O4-S1-O2=104.15                O4-S1-O3=105.50                O5-S1-O2=114.54                
O5-S1-O3=113.08                O5-S1-O4=108.77                H19-O4-S1=105.47               H8-O6-H7=106.21                
H11-O9-H10=104.62              
 
 selected dihedral angles (degree)
 ---------------------------------
H19-O4-S1-O2=168.93           H19-O4-S1-O3=284.78           H19-O4-S1-O5= 46.37           
 
 CMA Distance (Angstroems)
 ---------------------------
R(CMA):  1.3578

========================================================================
 FINAL SINGLEPOINT CALCULATION ON OPTIMIZED GEOMETRY
========================================================================

 Ncao       : 65
 Nao        : 64
 Nshell     : 38
 Nel        : 80
 T(el)      :   300.0
 intcut     :    25.0
 scfconv/Eh :  0.100E-05
   qconv/e  :  0.100E-03
 intneglect :  0.100E-07
 broydamp   :      0.250
 iter      E             dE          RMSdq      gap      omega  full diag
   1    -50.7563319 -0.507563E+02  0.129E-05    9.34       0.0  T
   2    -50.7563319 -0.177636E-12  0.808E-06    9.34    2428.3  T
   3    -50.7563319 -0.639488E-13  0.139E-06    9.34   14073.9  T
speedup  1.07
cpu  time for SCC    0.00 s
wall time for SCC    0.00 s

   *** convergence criteria satisfied after 3 iterations ***

          eigenvalues
 #    :          28         29         30         31         32         33         34         35
 occ. :        2.000      2.000      2.000      2.000      2.000      2.000      2.000      2.000
 eps  :       -13.565    -13.089    -12.623    -12.415    -12.354    -12.273    -12.248    -12.198
 #    :          36         37         38         39         40         41         42         43
 occ. :        2.000      2.000      2.000      2.000      2.000      0.000      0.000      0.000
 eps  :       -12.061    -12.026    -11.960    -11.833    -11.718     -2.377     -0.828     -0.162
 #    :          44         45         46         47         48         49         50         51
 occ. :        0.000      0.000      0.000      0.000      0.000      0.000      0.000      0.000
 eps  :         0.750      1.253      1.730      2.392      2.583      3.754      3.906      5.039


   #   Z            q   n(s)   n(p)   n(d)      C6AA      α(0)
   1  16 S      1.699  1.586  1.775  0.941    88.793    15.860
   2   8 O     -0.738  1.761  4.977  0.000    29.766     7.315
   3   8 O     -0.792  1.780  5.012  0.000    31.339     7.506
   4   8 O     -0.648  1.765  4.883  0.000    26.331     6.927
   5   8 O     -0.723  1.769  4.954  0.000    29.340     7.262
   6   8 O     -0.606  1.736  4.871  0.000    25.334     6.793
   7   1 H      0.314  0.686  0.000  0.000     0.679     1.295
   8   1 H      0.279  0.721  0.000  0.000     0.786     1.393
   9   8 O     -0.610  1.743  4.867  0.000    25.427     6.806
  10   1 H      0.322  0.678  0.000  0.000     0.658     1.274
  11   1 H      0.300  0.700  0.000  0.000     0.721     1.334
  12   8 O     -0.611  1.741  4.871  0.000    25.461     6.810
  13   1 H      0.324  0.676  0.000  0.000     0.652     1.269
  14   1 H      0.286  0.714  0.000  0.000     0.763     1.372
  15   8 O     -0.609  1.746  4.863  0.000    25.396     6.801
  16   1 H      0.319  0.681  0.000  0.000     0.666     1.282
  17   1 H      0.299  0.701  0.000  0.000     0.724     1.337
  18   8 O     -0.612  1.755  4.857  0.000    25.481     6.813
  19   1 H      0.375  0.625  0.000  0.000     0.529     1.140
  20   1 H      0.297  0.703  0.000  0.000     0.731     1.343
  21   1 H      0.338  0.662  0.000  0.000     0.619     1.236
  22   7 N     -0.340  1.266  4.074  0.000    28.722     7.960
  23   1 H      0.284  0.716  0.000  0.000     0.763     1.368
  24   1 H      0.303  0.697  0.000  0.000     0.704     1.314
  25   1 H      0.288  0.712  0.000  0.000     0.751     1.358
  26   1 H      0.261  0.739  0.000  0.000     0.842     1.438

 Mol. C6AA /au·bohr⁶  :       5452.022575
 Mol. C8AA /au·bohr⁸  :     117939.017420
 Mol. α(0) /au        :        106.604575

 
 Wiberg/Mayer (AO) data. WBOs > 0.1 written file <wbo>
 largest (>0.05) Wiberg bond orders for each atom
           total WBO             WBO to atom ...
     1  S   4.833    O    5 1.368    O    2 1.275    O    3 1.219    O    4 0.929
     2  O   1.755    S    1 1.275    H   24 0.122    O    3 0.101    O    5 0.100    O    4 0.064
     3  O   1.682    S    1 1.219    O    5 0.106    O    2 0.101    O    4 0.076    H   10 0.059    H   13 0.052
     4  O   1.939    S    1 0.929    H   19 0.726    O    5 0.085    O    3 0.076    O    2 0.064
     5  O   1.742    S    1 1.368    O    3 0.106    O    2 0.100    O    4 0.085    H   16 0.051
     6  O   1.820    H    8 0.919    H    7 0.873
     7  H   0.901    O    6 0.873
     8  H   0.922    O    6 0.919
     9  O   1.895    H   11 0.902    H   10 0.832    H   25 0.083
    10  H   0.896    O    9 0.832    O    3 0.059
    11  H   0.910    O    9 0.902
    12  O   1.858    H   14 0.912    H   13 0.839    H   23 0.051
    13  H   0.895    O   12 0.839    O    3 0.052
    14  H   0.918    O   12 0.912
    15  O   1.894    H   17 0.895    H   16 0.843    H   21 0.083
    16  H   0.898    O   15 0.843    O    5 0.051
    17  H   0.911    O   15 0.895
    18  O   1.914    H   20 0.910    H   21 0.801    H   19 0.117
    19  H   0.859    O    4 0.726    O   18 0.117
    20  H   0.912    O   18 0.910
    21  H   0.886    O   18 0.801    O   15 0.083
    22  N   3.533    H   26 0.921    H   23 0.864    H   25 0.830    H   24 0.774
    23  H   0.919    N   22 0.864    O   12 0.051
    24  H   0.908    N   22 0.774    O    2 0.122
    25  H   0.917    N   22 0.830    O    9 0.083
    26  H   0.932    N   22 0.921
 MOs/occ written to file <molden.input>
 
molecular dipole:
                 x           y           z       tot (Debye)
 q only:       -1.547       0.242       1.509
   full:       -1.188      -0.052       0.926       3.832
molecular quadrupole (traceless):
                xx          xy          yy          xz          yz          zz
 q only:        3.497      -3.309       3.276      -2.959       7.011      -6.774
  q+dip:        0.461      -0.987       6.278      -0.667       9.499      -6.739
   full:        0.538      -1.008       6.380      -0.800       9.850      -6.918

SCC energy    :     -50.7563319
rep           :       0.2924573
ES            :       0.2662881
AES           :      -0.0747415
AXC           :      -0.0092557
disp          :      -0.0193448
XB            :       0.0000000
fix           :       0.0000000
total E       :     -50.4636816
atomizationE  :       4.9939857     3133.77
(atE without considering molecular charge,
 total energy contains solvation terms)
H-L gap (eV)  :          9.3410
optimized geometry written to: xtbopt.xyz


------------------------------------------------------------------------
 * finished run on 2019/09/16 at 11:23:18.703     
------------------------------------------------------------------------
 total:
 * wall-time:     0 d,  0 h,  0 min,  2.575 sec
 *  cpu-time:     0 d,  0 h,  0 min,  2.541 sec
 * ratio c/w:     0.987 speedup
 SCF:
 * wall-time:     0 d,  0 h,  0 min,  0.158 sec
 *  cpu-time:     0 d,  0 h,  0 min,  0.153 sec
 * ratio c/w:     0.971 speedup
 ANC optimizer:
 * wall-time:     0 d,  0 h,  0 min,  2.389 sec
 *  cpu-time:     0 d,  0 h,  0 min,  2.365 sec
 * ratio c/w:     0.990 speedup

