      -----------------------------------------------------------      
     |                   =====================                   |     
     |                           x T B                           |     
     |                   =====================                   |     
     |                         S. Grimme                         |     
     |          Mulliken Center for Theoretical Chemistry        |     
     |                    University of Bonn                     |     
     |                 Version 6.0.1 (SAW181210)                 |     
      -----------------------------------------------------------      

   This program is distributed in the hope that it will be useful,
   but WITHOUT ANY WARRANTY; without even the implied warranty of
   MERCHANTABILITY or FITNESS FOR A PARTICULAR PURPOSE.
   
   FOR NON-COMMERCIAL, ACADEMIA USE ONLY.
   
   Cite this work as:
   S. Grimme, C. Bannwarth, P. Shushkov, J. Comput. Theory Chem., 2017,
   13, 1989-2009.
   C. Bannwarth, S. Ehlert and S. Grimme., ChemRxiv, 2018, preprint.
   http://doi.org/10.26434/chemrxiv.7246238.v1
   
   for sTDA-xTB:
   S. Grimme and C. Bannwarth, J. Chem. Phys., 2016, 145, 054103.
   
   in the mass-spec context:
   V. Asgeirsson, C. Bauer and S. Grimme, Chem. Sci., 2017, 8, 4879.
   
   if GBSA is used:
   P. Shushkov, F. März and S. Grimme, unpublished.
   
   for ANC optimizer:
   S. Grimme, unpublished.
   Rational Function algorithm used in ANCopt:
   F. Eckert, P. Pulay, H.-J. Werner, J. Comput. Chem., 1997, 18, 1473.
   
   with help from (in alphabetical order)
   C. Bannwarth, F. Bohle, G. Brandenburg, E. Caldeweyher, M. Checinski,
   S. Dohm, S. Ehlert, S. Ehrlich, F. März, H. Neugebauer, J. Pisarek,
   P. Pracht, P. Shushkov, and S. Spicher.
   
 * started run on 2019/09/16 at 12:11:41.120     
========================================================================
 # omp threads = 1
========================================================================
number of atoms            : 26
number of electrons        : 80
charge                     : 0
spin                       : .0
first test random number   : .7085

########################################################################
# WARNING! Please study the warnings concerning your input carefully
#  - XTBPATH is not set, using XTBHOME instead
#  - the use of '-opt' is discouraged, please use '--opt' next time
#  - the use of '-chrg' is discouraged, please use '--chrg' next time
#  - the use of '-uhf' is discouraged, please use '--uhf' next time
########################################################################

           ------------------------------------------------- 
          |                 G F N 2 - x T B                 |
          | Geometry, Frequencies, Noncovalent interactions |
          |            JCTC 2018 parametrisation            |
           ------------------------------------------------- 
      method parameters     
 k(s)        :  1.8500
 k(p)        :  2.2300
 k(d)        :  2.2300
 k(f)        :  2.0000
 kEN (H0ij)  : -2.0000
 D4 a1       :  0.5200
 D4 a2       :  5.0000
 D4 s6       :  1.0000
 D4 s8       :  2.7000
 D4 s9       :  5.0000
 alphaj      :  2.0000


            Z     q(EN)     CN     RAES       Cart. coordinates
     1  S   6.0    0.58    4.28    4.19     0.80670     2.70851    -4.40619
     2  O   6.0   -0.32    1.15    1.80    -1.76896     2.66565    -3.43377
     3  O   6.0   -0.27    1.09    1.80     1.77091     4.72785    -5.96510
     4  O   6.0   -0.25    2.05    1.83     2.68762     2.22990    -2.00235
     5  O   6.0   -0.23    2.05    1.83     1.42210     0.13886    -5.91810
     6  H   1.0    0.16    1.18    1.46     0.67961    -1.28660    -5.02193
     7  H   1.0    0.16    1.18    1.46     1.88558     2.98104    -0.52625
     8  O   6.0   -0.31    2.04    1.83     0.07437    -1.02274     4.38131
     9  H   1.0    0.16    1.03    1.43    -1.17989    -1.81115     3.32308
    10  H   1.0    0.14    0.97    1.43     0.06512    -1.97718     5.93165
    11  O   6.0   -0.29    2.03    1.83    -4.44342     2.08548     0.85484
    12  H   1.0    0.16    0.99    1.43    -3.23857     3.10298     1.76460
    13  H   1.0    0.18    1.02    1.43    -4.04401     2.32477    -0.90523
    14  O   6.0   -0.31    2.07    1.83    -3.69461    -2.80512     1.42223
    15  H   1.0    0.15    0.97    1.43    -5.24340    -3.76212     1.41996
    16  H   1.0    0.16    1.05    1.44    -4.20111    -1.06901     1.21251
    17  O   6.0   -0.30    2.04    1.83     0.49344     3.58970     2.37585
    18  H   1.0    0.15    0.97    1.43     0.96721     4.75542     3.69161
    19  H   1.0    0.16    1.04    1.43     0.43861     1.95577     3.17702
    20  O   6.0   -0.29    2.04    1.83    -0.25498    -3.10197    -2.44785
    21  H   1.0    0.16    1.02    1.43    -1.61789    -3.21711    -1.24625
    22  H   1.0    0.15    1.04    1.43     1.25920    -3.42841    -1.49113
    23  N   5.0   -0.22    3.00    1.93     3.97931    -2.81668     0.65620
    24  H   1.0    0.11    1.01    1.43     3.07787    -2.19945     2.24286
    25  H   1.0    0.11    1.00    1.43     4.41734    -1.23137    -0.34678
    26  H   1.0    0.10    0.99    1.43     5.66185    -3.53703     1.25719

  Z AO/shell   Hii/eV     exponent
  1     Wed Apr 25 08:07:45 CEST 2018   EN: 2.200 GM2: 0.406  GM3: 0.0800  RAES: 1.40
     1s    -10.707211    1.230000
  7     Wed Apr 25 08:07:45 CEST 2018   EN: 3.040 GM2: 0.461  GM3:-0.0640  RAES: 1.90
     2s    -16.686243    2.339881
     2p    -12.523956    2.014332
  8     Wed Apr 25 08:07:45 CEST 2018   EN: 3.440 GM2: 0.452  GM3:-0.0517  RAES: 1.80
     2s    -20.229985    2.439742
     2p    -15.503117    2.137023
 16     Tue Apr 24 11:44:34 CEST 2018   EN: 2.580 GM2: 0.340  GM3:-0.0502  RAES: 3.10
     3s    -20.029654    1.981333
     3p    -11.377694    2.025643
     3d     -0.420282    1.702555
 no old-style atom pair restraining (fixing) potential

molecular fragmentation (1/2 indicates fragments):
11111112222222222222222222
# atoms in fragment 1/2:     7    19
 fragment masses (1/2) :       98.07      107.11
CMA distance (Bohr)    :   6.614
constraining FC (au)   :  0.0500
           ------------------------------------------------- 
          |        Self-Consistent Charge Iterations        |
           ------------------------------------------------- 

 Ncao       : 65
 Nao        : 64
 Nshell     : 38
 Nel        : 80
 T(el)      :   300.0
 intcut     :    25.0
 scfconv/Eh :  0.100E-05
   qconv/e  :  0.100E-03
 intneglect :  0.100E-07
 broydamp   :      0.250
 iter      E             dE          RMSdq      gap      omega  full diag
   1    -50.6339721 -0.506340E+02  0.699E+00    7.95       0.0  T
   2    -50.6828465 -0.488744E-01  0.490E+00    7.20       1.0  T
   3    -50.7196622 -0.368156E-01  0.117E+00    5.95       1.0  T
   4    -50.7235836 -0.392140E-02  0.612E-01    6.20       1.0  T
   5    -50.7248046 -0.122106E-02  0.266E-01    6.22       1.0  T
   6    -50.7251363 -0.331657E-03  0.154E-01    6.15       1.0  T
   7    -50.7252741 -0.137830E-03  0.554E-02    6.13       1.0  T
   8    -50.7252945 -0.203608E-04  0.230E-02    6.14       1.0  T
   9    -50.7252971 -0.262028E-05  0.122E-02    6.15       1.6  T
  10    -50.7252978 -0.749940E-06  0.270E-03    6.15       7.3  T
  11    -50.7252979 -0.218896E-07  0.119E-03    6.15      16.5  T
  12    -50.7252979 -0.697186E-08  0.344E-04    6.15      57.1  T
  13    -50.7252979 -0.535969E-09  0.171E-04    6.15     114.5  T
speedup  0.99
cpu  time for SCC    0.01 s
wall time for SCC    0.02 s

   *** convergence criteria satisfied after 13 iterations ***

          eigenvalues
 #    :          28         29         30         31         32         33         34         35
 occ. :        2.000      2.000      2.000      2.000      2.000      2.000      2.000      2.000
 eps  :       -13.369    -13.151    -12.845    -12.791    -12.684    -12.470    -12.439    -12.423
 #    :          36         37         38         39         40         41         42         43
 occ. :        2.000      2.000      2.000      2.000      2.000      0.000      0.000      0.000
 eps  :       -12.256    -12.058    -11.936    -11.416    -10.721     -4.570     -1.823     -0.915
 #    :          44         45         46         47         48         49         50         51
 occ. :        0.000      0.000      0.000      0.000      0.000      0.000      0.000      0.000
 eps  :        -0.312      0.891      1.385      1.798      2.597      3.651      4.208      4.649


   #   Z            q   n(s)   n(p)   n(d)      C6AA      α(0)
   1  16 S      1.626  1.630  1.812  0.932    90.460    16.008
   2   8 O     -0.666  1.768  4.898  0.000    27.798     7.069
   3   8 O     -0.614  1.770  4.845  0.000    26.474     6.898
   4   8 O     -0.598  1.760  4.837  0.000    25.103     6.764
   5   8 O     -0.570  1.753  4.817  0.000    24.456     6.676
   6   1 H      0.389  0.611  0.000  0.000     0.504     1.114
   7   1 H      0.375  0.625  0.000  0.000     0.531     1.143
   8   8 O     -0.615  1.741  4.874  0.000    25.538     6.820
   9   1 H      0.343  0.657  0.000  0.000     0.606     1.222
  10   1 H      0.287  0.713  0.000  0.000     0.761     1.370
  11   8 O     -0.614  1.740  4.874  0.000    25.525     6.819
  12   1 H      0.307  0.693  0.000  0.000     0.700     1.314
  13   1 H      0.327  0.673  0.000  0.000     0.646     1.262
  14   8 O     -0.623  1.743  4.880  0.000    25.737     6.847
  15   1 H      0.289  0.711  0.000  0.000     0.755     1.365
  16   1 H      0.342  0.658  0.000  0.000     0.607     1.224
  17   8 O     -0.615  1.747  4.868  0.000    25.546     6.822
  18   1 H      0.292  0.708  0.000  0.000     0.746     1.356
  19   1 H      0.345  0.655  0.000  0.000     0.600     1.217
  20   8 O     -0.648  1.748  4.901  0.000    26.374     6.931
  21   1 H      0.316  0.684  0.000  0.000     0.676     1.291
  22   1 H      0.314  0.686  0.000  0.000     0.681     1.297
  23   7 N     -0.464  1.401  4.063  0.000    32.230     8.431
  24   1 H      0.169  0.831  0.000  0.000     1.281     1.773
  25   1 H      0.169  0.831  0.000  0.000     1.281     1.773
  26   1 H      0.139  0.861  0.000  0.000     1.477     1.904

 Mol. C6AA /au·bohr⁶  :       5436.212070
 Mol. C8AA /au·bohr⁸  :     117421.441836
 Mol. α(0) /au        :        106.711771

 
 Wiberg/Mayer (AO) data. WBOs > 0.1 written file <wbo>
 largest (>0.05) Wiberg bond orders for each atom
           total WBO             WBO to atom ...
     1  S   4.791    O    3 1.491    O    2 1.395    O    5 0.972    O    4 0.904
     2  O   1.767    S    1 1.395    O    3 0.141    O    4 0.097    O    5 0.095
     3  O   1.826    S    1 1.491    O    2 0.141    O    4 0.095    O    5 0.084
     4  O   1.973    S    1 0.904    H    7 0.784    O    2 0.097    O    3 0.095    O    5 0.055
     5  O   2.012    S    1 0.972    H    6 0.773    O    2 0.095    O    3 0.084    O    4 0.055
     6  H   0.849    O    5 0.773    O   20 0.057
     7  H   0.859    O    4 0.784    O   17 0.058
     8  O   1.861    H   10 0.907    H    9 0.835
     9  H   0.883    O    8 0.835
    10  H   0.918    O    8 0.907
    11  O   1.878    H   12 0.882    H   13 0.862    H   16 0.069
    12  H   0.906    O   11 0.882
    13  H   0.893    O   11 0.862
    14  O   1.871    H   15 0.906    H   16 0.812
    15  H   0.916    O   14 0.906
    16  H   0.883    O   14 0.812    O   11 0.069
    17  O   1.875    H   18 0.908    H   19 0.831    H    7 0.058
    18  H   0.915    O   17 0.908
    19  H   0.881    O   17 0.831
    20  O   1.833    H   22 0.857    H   21 0.852    H    6 0.057
    21  H   0.900    O   20 0.852
    22  H   0.902    O   20 0.857
    23  N   2.969    H   26 0.974    H   25 0.961    H   24 0.951
    24  H   0.972    N   23 0.951
    25  H   0.972    N   23 0.961
    26  H   0.981    N   23 0.974
 MOs/occ written to file <molden.input>
 
molecular dipole:
                 x           y           z       tot (Debye)
 q only:       -0.328      -0.892       2.647
   full:       -0.248      -0.836       3.443       9.028
molecular quadrupole (traceless):
                xx          xy          yy          xz          yz          zz
 q only:        3.064       2.038       0.925       5.747       9.365      -3.988
  q+dip:        5.246       3.628      -0.749       7.958       9.224      -4.497
   full:        4.920       3.757      -0.765       8.169       9.236      -4.155

SCC energy    :     -50.7252979
rep           :       0.2983249
ES            :       0.2316729
AES           :      -0.0382234
AXC           :      -0.0039626
disp          :      -0.0179045
XB            :       0.0000000
fix           :       0.0000000
total E       :     -50.4265443
atomizationE  :       4.9568484     3110.47
(atE without considering molecular charge,
 total energy contains solvation terms)
H-L gap (eV)  :          6.1512
           ------------------------------------------------- 
          |                 ===============                 |
          |                   A N C O P T                   |
          |                 ===============                 |
          |          Approximate Normal Coordinate          |
          |           Rational Function Optimizer           |
           ------------------------------------------------- 
dumping coords to <xtbopt.coord> and <xtbopt.log>
 optlevel               2
 Maxcycle             520
 Maxmicro              25
 Econv         1.000000000000000E-007
 Gconv         2.000000000000000E-004
 Maxdispl       1.00000000000000     
 Hlow          5.000000000000000E-003
 S6             20.0000000000000     
 Nvar               72

generating ANC from model Hessian ...
 Shifting diagonal of input Hessian by   5.119741378481982E-003
 Lowest  eigenvalues of input Hessian
    0.005000   -0.000000   -0.000000   -0.000000    0.000000    0.000000
    0.000000    0.005124    0.005491    0.005622    0.005990    0.006227
    0.006677    0.006764    0.007294    0.007715    0.008807    0.009010
 Highest eigenvalues
    1.420737    1.423498    1.430111    1.949397    2.767679    3.590397
 
cpu  time for ANC gen    0.02 s
wall time for ANC gen    0.02 s
................................................................................
.............................. CYCLE    1 ......................................
................................................................................
   1    -50.7252979 -0.507253E+02  0.489E-05    6.15       0.0  T
   2    -50.7252979 -0.385114E-11  0.386E-05    6.15     507.5  T
   3    -50.7252979 -0.428457E-11  0.162E-05    6.15    1208.9  T
speedup  0.69
cpu  time for SCC    0.00 s
wall time for SCC    0.00 s
speedup  0.97
cpu  time for grad    0.01 s
wall time for grad    0.01 s
 E :    -50.42654423  G :  0.084091    pred/act E change:  0.000D+00  0.262D-07
Maxdispl :   0.1168   ||displ|| :   0.3149   Lambda : -0.967D-02
Largest |displ|/coords:  0.1168 (  25)  0.0913 (  27)  0.0886 (  30)
................................................................................
.............................. CYCLE    2 ......................................
................................................................................
   1    -50.7285136 -0.507285E+02  0.413E-01    6.72       0.0  T
   2    -50.7285907 -0.771335E-04  0.310E-01    6.71       1.0  T
   3    -50.7286386 -0.479501E-04  0.512E-02    6.70       1.0  T
   4    -50.7286490 -0.104057E-04  0.247E-02    6.72       1.0  T
   5    -50.7286500 -0.928030E-06  0.527E-03    6.72       3.7  T
   6    -50.7286500 -0.425035E-07  0.306E-03    6.72       6.4  T
speedup  1.11
cpu  time for SCC    0.01 s
wall time for SCC    0.01 s
speedup  1.07
cpu  time for grad    0.01 s
wall time for grad    0.01 s
 E :    -50.43367034  G :  0.050985    pred/act E change:  0.000D+00 -0.713D-02
Maxdispl :   0.0970   ||displ|| :   0.2802   Lambda : -0.449D-02
Largest |displ|/coords:  0.0970 (   6)  0.0846 (  10)  0.0840 (  30)
................................................................................
.............................. CYCLE    3 ......................................
................................................................................
   1    -50.7360059 -0.507360E+02  0.248E-01    7.26       0.0  T
   2    -50.7360304 -0.244914E-04  0.184E-01    7.27       1.0  T
   3    -50.7360460 -0.156216E-04  0.291E-02    7.29       1.0  T
   4    -50.7360488 -0.280472E-05  0.147E-02    7.29       1.3  T
   5    -50.7360490 -0.224919E-06  0.289E-03    7.29       6.8  T
   6    -50.7360490 -0.889472E-08  0.193E-03    7.29      10.2  T
speedup  0.93
cpu  time for SCC    0.00 s
wall time for SCC    0.01 s
speedup  0.98
cpu  time for grad    0.01 s
wall time for grad    0.01 s
 E :    -50.43727304  G :  0.035390    pred/act E change: -0.531D-02 -0.360D-02
Maxdispl :   0.1450   ||displ|| :   0.4424   Lambda : -0.480D-02
Largest |displ|/coords:  0.1450 (  25)  0.1409 (  10)  0.1369 (  30)
................................................................................
.............................. CYCLE    4 ......................................
................................................................................
   1    -50.7415044 -0.507415E+02  0.357E-01    8.11       0.0  T
   2    -50.7415766 -0.721916E-04  0.265E-01    8.15       1.0  T
   3    -50.7416200 -0.433941E-04  0.464E-02    8.22       1.0  T
   4    -50.7416288 -0.879048E-05  0.238E-02    8.22       1.0  T
   5    -50.7416296 -0.804662E-06  0.527E-03    8.22       3.7  T
   6    -50.7416297 -0.409913E-07  0.348E-03    8.22       5.6  T
speedup  0.91
cpu  time for SCC    0.01 s
wall time for SCC    0.01 s
speedup  0.97
cpu  time for grad    0.01 s
wall time for grad    0.01 s
 E :    -50.44015877  G :  0.025294    pred/act E change: -0.242D-02 -0.289D-02
Maxdispl :   0.1319   ||displ|| :   0.3293   Lambda : -0.155D-02
Largest |displ|/coords:  0.1319 (   6)  0.1273 (  10)  0.0971 (   5)
................................................................................
.............................. CYCLE    5 ......................................
................................................................................
   1    -50.7422486 -0.507422E+02  0.219E-01    8.33       0.0  T
   2    -50.7422611 -0.125715E-04  0.162E-01    8.36       1.0  T
   3    -50.7422725 -0.113235E-04  0.241E-02    8.43       1.0  T
   4    -50.7422735 -0.108666E-05  0.861E-03    8.43       2.3  T
   5    -50.7422736 -0.868546E-07  0.257E-03    8.42       7.6  T
   6    -50.7422736 -0.629112E-08  0.143E-03    8.42      13.7  T
speedup  0.91
cpu  time for SCC    0.00 s
wall time for SCC    0.01 s
speedup  0.98
cpu  time for grad    0.01 s
wall time for grad    0.01 s
 E :    -50.44107911  G :  0.021784    pred/act E change: -0.287D-02 -0.920D-03
Maxdispl :   0.1574   ||displ|| :   0.3988   Lambda : -0.154D-02
Largest |displ|/coords:  0.1574 (   6)  0.1554 (   5)  0.1513 (   3)
................................................................................
.............................. CYCLE    6 ......................................
................................................................................
   1    -50.7361494 -0.507361E+02  0.256E-01    8.32       0.0  T
   2    -50.7361793 -0.298531E-04  0.190E-01    8.35       1.0  T
   3    -50.7362012 -0.219296E-04  0.354E-02    8.43       1.0  T
   4    -50.7362048 -0.359297E-05  0.107E-02    8.42       1.8  T
   5    -50.7362050 -0.178926E-06  0.420E-03    8.42       4.7  T
   6    -50.7362050 -0.275413E-07  0.240E-03    8.42       8.2  T
speedup  1.11
cpu  time for SCC    0.01 s
wall time for SCC    0.01 s
speedup  1.06
cpu  time for grad    0.01 s
wall time for grad    0.01 s
 E :    -50.44191460  G :  0.019156    pred/act E change: -0.859D-03 -0.835D-03
Maxdispl :   0.1287   ||displ|| :   0.3065   Lambda : -0.118D-02
Largest |displ|/coords:  0.1287 (  10)  0.1090 (   3)  0.1003 (   6)
................................................................................
.............................. CYCLE    7 ......................................
................................................................................
   1    -50.7346363 -0.507346E+02  0.177E-01    8.21       0.0  T
   2    -50.7346502 -0.138702E-04  0.131E-01    8.22       1.0  T
   3    -50.7346578 -0.758508E-05  0.251E-02    8.26       1.0  T
   4    -50.7346597 -0.187649E-05  0.830E-03    8.26       2.4  T
   5    -50.7346598 -0.111100E-06  0.220E-03    8.26       8.9  T
   6    -50.7346598 -0.631650E-08  0.131E-03    8.26      14.9  T
speedup  1.11
cpu  time for SCC    0.01 s
wall time for SCC    0.01 s
speedup  0.98
cpu  time for grad    0.01 s
wall time for grad    0.01 s
 E :    -50.44218948  G :  0.015645    pred/act E change: -0.895D-03 -0.275D-03
Maxdispl :   0.0811   ||displ|| :   0.1760   Lambda : -0.717D-03
Largest |displ|/coords:  0.0811 (   9)  0.0598 (  15)  0.0562 (  11)
................................................................................
.............................. CYCLE    8 ......................................
................................................................................
   1    -50.7319839 -0.507320E+02  0.134E-01    8.17       0.0  T
   2    -50.7319878 -0.389087E-05  0.101E-01    8.17       1.0  T
   3    -50.7319911 -0.324006E-05  0.115E-02    8.16       1.7  T
   4    -50.7319915 -0.424547E-06  0.322E-03    8.16       6.1  T
   5    -50.7319915 -0.116293E-07  0.128E-03    8.16      15.3  T
   6    -50.7319915 -0.162299E-08  0.586E-04    8.17      33.4  T
speedup  0.93
cpu  time for SCC    0.00 s
wall time for SCC    0.01 s
speedup  0.98
cpu  time for grad    0.01 s
wall time for grad    0.01 s
 E :    -50.44253558  G :  0.015902    pred/act E change: -0.647D-03 -0.346D-03
Maxdispl :   0.0926   ||displ|| :   0.2087   Lambda : -0.627D-03
Largest |displ|/coords:  0.0926 (   6)  0.0911 (   3)  0.0763 (   9)
................................................................................
.............................. CYCLE    9 ......................................
................................................................................
   1    -50.7366499 -0.507366E+02  0.184E-01    8.21       0.0  T
   2    -50.7366664 -0.165786E-04  0.138E-01    8.21       1.0  T
   3    -50.7366780 -0.115769E-04  0.231E-02    8.19       1.0  T
   4    -50.7366802 -0.221346E-05  0.805E-03    8.19       2.4  T
   5    -50.7366803 -0.124392E-06  0.272E-03    8.19       7.2  T
   6    -50.7366804 -0.556122E-08  0.146E-03    8.19      13.4  T
speedup  0.93
cpu  time for SCC    0.00 s
wall time for SCC    0.01 s
speedup  0.97
cpu  time for grad    0.01 s
wall time for grad    0.01 s
 E :    -50.44231216  G :  0.025779    pred/act E change: -0.370D-03  0.223D-03
Maxdispl :   0.0936   ||displ|| :   0.1484   Lambda : -0.888D-03
Largest |displ|/coords:  0.0936 (  10)  0.0447 (   2)  0.0382 (  12)
................................................................................
.............................. CYCLE   10 ......................................
................................................................................
   1    -50.7356659 -0.507357E+02  0.150E-01    8.23       0.0  T
   2    -50.7356766 -0.107034E-04  0.113E-01    8.23       1.0  T
   3    -50.7356846 -0.800732E-05  0.178E-02    8.24       1.1  T
   4    -50.7356861 -0.150407E-05  0.425E-03    8.24       4.6  T
   5    -50.7356861 -0.185904E-07  0.213E-03    8.24       9.2  T
speedup  0.87
cpu  time for SCC    0.00 s
wall time for SCC    0.00 s
speedup  0.97
cpu  time for grad    0.01 s
wall time for grad    0.01 s
 E :    -50.44279146  G :  0.008108    pred/act E change: -0.327D-03 -0.479D-03
Maxdispl :   0.0998   ||displ|| :   0.1933   Lambda : -0.350D-03
Largest |displ|/coords:  0.0998 (  10)  0.0580 (  14)  0.0542 (  25)
................................................................................
.............................. CYCLE   11 ......................................
................................................................................
   1    -50.7304775 -0.507305E+02  0.176E-01    8.23       0.0  T
   2    -50.7304879 -0.103519E-04  0.133E-01    8.24       1.0  T
   3    -50.7304964 -0.846714E-05  0.181E-02    8.27       1.1  T
   4    -50.7304977 -0.136025E-05  0.522E-03    8.26       3.8  T
   5    -50.7304978 -0.439605E-07  0.230E-03    8.26       8.5  T
   6    -50.7304978 -0.535157E-08  0.124E-03    8.26      15.8  T
speedup  0.88
cpu  time for SCC    0.00 s
wall time for SCC    0.01 s
speedup  0.88
cpu  time for grad    0.01 s
wall time for grad    0.01 s
 E :    -50.44268826  G :  0.023388    pred/act E change: -0.454D-03  0.103D-03
Maxdispl :   0.0488   ||displ|| :   0.1043   Lambda : -0.643D-03
Largest |displ|/coords:  0.0488 (   3)  0.0376 (  14)  0.0370 (   6)
................................................................................
.............................. CYCLE   12 ......................................
................................................................................
   1    -50.7356563 -0.507357E+02  0.110E-01    8.26       0.0  T
   2    -50.7356676 -0.112289E-04  0.812E-02    8.26       1.0  T
   3    -50.7356745 -0.691024E-05  0.188E-02    8.27       1.0  T
   4    -50.7356757 -0.123140E-05  0.407E-03    8.26       4.8  T
   5    -50.7356757 -0.265077E-07  0.197E-03    8.26      10.0  T
speedup  0.87
cpu  time for SCC    0.00 s
wall time for SCC    0.00 s
speedup  0.96
cpu  time for grad    0.01 s
wall time for grad    0.01 s
 E :    -50.44285510  G :  0.011022    pred/act E change: -0.182D-03 -0.167D-03
Maxdispl :   0.0636   ||displ|| :   0.1523   Lambda : -0.519D-03
Largest |displ|/coords:  0.0636 (   2)  0.0554 (  24)  0.0504 (   3)
................................................................................
.............................. CYCLE   13 ......................................
................................................................................
   1    -50.7375638 -0.507376E+02  0.150E-01    8.29       0.0  T
   2    -50.7375699 -0.610832E-05  0.113E-01    8.28       1.0  T
   3    -50.7375749 -0.501678E-05  0.140E-02    8.26       1.4  T
   4    -50.7375757 -0.792418E-06  0.503E-03    8.26       3.9  T
   5    -50.7375758 -0.428364E-07  0.171E-03    8.26      11.5  T
   6    -50.7375758 -0.252736E-08  0.897E-04    8.26      21.9  T
speedup  0.93
cpu  time for SCC    0.00 s
wall time for SCC    0.01 s
speedup  0.98
cpu  time for grad    0.01 s
wall time for grad    0.01 s
 E :    -50.44291961  G :  0.008433    pred/act E change: -0.325D-03 -0.645D-04
Maxdispl :   0.0484   ||displ|| :   0.1012   Lambda : -0.257D-03
Largest |displ|/coords:  0.0484 (  10)  0.0360 (   7)  0.0330 (  15)
................................................................................
.............................. CYCLE   14 ......................................
................................................................................
   1    -50.7354319 -0.507354E+02  0.908E-02    8.25       0.0  T
   2    -50.7354341 -0.221294E-05  0.685E-02    8.26       1.0  T
   3    -50.7354359 -0.182263E-05  0.826E-03    8.28       2.4  T
   4    -50.7354362 -0.296104E-06  0.256E-03    8.28       7.7  T
   5    -50.7354362 -0.810688E-08  0.103E-03    8.28      19.1  T
speedup  0.87
cpu  time for SCC    0.00 s
wall time for SCC    0.00 s
speedup  0.96
cpu  time for grad    0.01 s
wall time for grad    0.01 s
 E :    -50.44307685  G :  0.005819    pred/act E change: -0.266D-03 -0.157D-03
Maxdispl :   0.0443   ||displ|| :   0.1016   Lambda : -0.104D-03
Largest |displ|/coords:  0.0443 (  12)  0.0430 (   3)  0.0422 (  10)
................................................................................
.............................. CYCLE   15 ......................................
................................................................................
   1    -50.7367920 -0.507368E+02  0.760E-02    8.29       0.0  T
   2    -50.7367935 -0.147830E-05  0.571E-02    8.28       1.0  T
   3    -50.7367945 -0.103876E-05  0.703E-03    8.28       2.8  T
   4    -50.7367947 -0.229008E-06  0.210E-03    8.28       9.3  T
   5    -50.7367948 -0.439975E-08  0.797E-04    8.28      24.6  T
speedup  0.87
cpu  time for SCC    0.00 s
wall time for SCC    0.00 s
speedup  0.96
cpu  time for grad    0.01 s
wall time for grad    0.01 s
 E :    -50.44310341  G :  0.008143    pred/act E change: -0.130D-03 -0.266D-04
Maxdispl :   0.0596   ||displ|| :   0.1386   Lambda : -0.128D-03
Largest |displ|/coords:  0.0596 (   3)  0.0528 (  10)  0.0526 (   7)
................................................................................
.............................. CYCLE   16 ......................................
................................................................................
   1    -50.7354973 -0.507355E+02  0.850E-02    8.27       0.0  T
   2    -50.7354992 -0.187336E-05  0.632E-02    8.27       1.0  T
   3    -50.7355003 -0.110842E-05  0.801E-03    8.29       2.4  T
   4    -50.7355006 -0.299437E-06  0.230E-03    8.29       8.5  T
   5    -50.7355006 -0.416328E-08  0.802E-04    8.29      24.5  T
speedup  0.87
cpu  time for SCC    0.00 s
wall time for SCC    0.00 s
speedup  1.04
cpu  time for grad    0.01 s
wall time for grad    0.01 s
 E :    -50.44318229  G :  0.005724    pred/act E change: -0.525D-04 -0.789D-04
Maxdispl :   0.0385   ||displ|| :   0.0965   Lambda : -0.860D-04
Largest |displ|/coords:  0.0385 (   2)  0.0351 (  12)  0.0343 (  10)
................................................................................
.............................. CYCLE   17 ......................................
................................................................................
   1    -50.7365325 -0.507365E+02  0.643E-02    8.29       0.0  T
   2    -50.7365333 -0.741895E-06  0.484E-02    8.29       1.0  T
   3    -50.7365340 -0.724692E-06  0.570E-03    8.29       3.4  T
   4    -50.7365341 -0.780390E-07  0.173E-03    8.29      11.4  T
   5    -50.7365341 -0.435176E-08  0.647E-04    8.29      30.3  T
speedup  0.87
cpu  time for SCC    0.00 s
wall time for SCC    0.00 s
speedup  0.97
cpu  time for grad    0.01 s
wall time for grad    0.01 s
 E :    -50.44324098  G :  0.004670    pred/act E change: -0.653D-04 -0.587D-04
Maxdispl :   0.0823   ||displ|| :   0.1792   Lambda : -0.106D-03
Largest |displ|/coords:  0.0823 (  12)  0.0610 (   2)  0.0597 (  10)
................................................................................
.............................. CYCLE   18 ......................................
................................................................................
   1    -50.7368721 -0.507369E+02  0.123E-01    8.28       0.0  T
   2    -50.7368739 -0.185439E-05  0.930E-02    8.28       1.0  T
   3    -50.7368761 -0.219381E-05  0.891E-03    8.28       2.2  T
   4    -50.7368763 -0.123251E-06  0.304E-03    8.28       6.5  T
   5    -50.7368763 -0.118818E-07  0.105E-03    8.28      18.7  T
   6    -50.7368763 -0.111310E-08  0.572E-04    8.28      34.3  T
speedup  0.93
cpu  time for SCC    0.00 s
wall time for SCC    0.01 s
speedup  0.98
cpu  time for grad    0.01 s
wall time for grad    0.01 s
 E :    -50.44328672  G :  0.005388    pred/act E change: -0.434D-04 -0.457D-04
Maxdispl :   0.0432   ||displ|| :   0.0863   Lambda : -0.742D-04
Largest |displ|/coords:  0.0432 (  12)  0.0358 (   6)  0.0236 (   2)
................................................................................
.............................. CYCLE   19 ......................................
................................................................................
   1    -50.7382213 -0.507382E+02  0.600E-02    8.29       0.0  T
   2    -50.7382219 -0.661018E-06  0.449E-02    8.29       1.0  T
   3    -50.7382225 -0.573875E-06  0.577E-03    8.29       3.4  T
   4    -50.7382226 -0.750530E-07  0.193E-03    8.29      10.2  T
   5    -50.7382226 -0.423695E-08  0.555E-04    8.29      35.4  T
speedup  0.87
cpu  time for SCC    0.00 s
wall time for SCC    0.00 s
speedup  0.97
cpu  time for grad    0.01 s
wall time for grad    0.01 s
 E :    -50.44332895  G :  0.003806    pred/act E change: -0.549D-04 -0.422D-04
Maxdispl :   0.0329   ||displ|| :   0.0746   Lambda : -0.393D-04
Largest |displ|/coords:  0.0329 (   7)  0.0304 (   3)  0.0271 (  12)
................................................................................
.............................. CYCLE   20 ......................................
................................................................................
   1    -50.7380320 -0.507380E+02  0.517E-02    8.28       0.0  T
   2    -50.7380323 -0.382049E-06  0.386E-02    8.28       1.0  T
   3    -50.7380327 -0.396436E-06  0.452E-03    8.29       4.3  T
   4    -50.7380328 -0.278237E-07  0.100E-03    8.29      19.5  T
   5    -50.7380328 -0.187572E-08  0.461E-04    8.29      42.6  T
   6    -50.7380328 -0.363492E-09  0.253E-04    8.29      77.5  T
speedup  0.91
cpu  time for SCC    0.00 s
wall time for SCC    0.01 s
speedup  1.00
cpu  time for grad    0.01 s
wall time for grad    0.01 s
 E :    -50.44335156  G :  0.004776    pred/act E change: -0.374D-04 -0.226D-04
Maxdispl :   0.0652   ||displ|| :   0.1231   Lambda : -0.630D-04
Largest |displ|/coords:  0.0652 (   3)  0.0457 (  12)  0.0454 (   6)
................................................................................
.............................. CYCLE   21 ......................................
................................................................................
   1    -50.7379937 -0.507380E+02  0.780E-02    8.28       0.0  T
   2    -50.7379944 -0.618273E-06  0.576E-02    8.28       1.0  T
   3    -50.7379950 -0.668197E-06  0.759E-03    8.28       2.6  T
   4    -50.7379951 -0.317825E-07  0.105E-03    8.28      18.6  T
   5    -50.7379951 -0.239891E-08  0.604E-04    8.28      32.5  T
speedup  0.87
cpu  time for SCC    0.00 s
wall time for SCC    0.00 s
speedup  0.96
cpu  time for grad    0.01 s
wall time for grad    0.01 s
 E :    -50.44338820  G :  0.004424    pred/act E change: -0.198D-04 -0.366D-04
Maxdispl :   0.0522   ||displ|| :   0.1084   Lambda : -0.434D-04
Largest |displ|/coords:  0.0522 (   3)  0.0369 (   4)  0.0361 (   1)
................................................................................
.............................. CYCLE   22 ......................................
................................................................................
   1    -50.7369889 -0.507370E+02  0.771E-02    8.28       0.0  T
   2    -50.7369898 -0.930588E-06  0.573E-02    8.28       1.0  T
   3    -50.7369907 -0.826756E-06  0.754E-03    8.29       2.6  T
   4    -50.7369908 -0.832358E-07  0.161E-03    8.29      12.2  T
   5    -50.7369908 -0.373611E-08  0.648E-04    8.29      30.3  T
speedup  0.89
cpu  time for SCC    0.00 s
wall time for SCC    0.00 s
speedup  0.97
cpu  time for grad    0.01 s
wall time for grad    0.01 s
 E :    -50.44340635  G :  0.004781    pred/act E change: -0.320D-04 -0.181D-04
Maxdispl :   0.0662   ||displ|| :   0.0847   Lambda : -0.445D-04
Largest |displ|/coords:  0.0662 (   3)  0.0288 (  10)  0.0161 (  25)
................................................................................
.............................. CYCLE   23 ......................................
................................................................................
   1    -50.7377397 -0.507377E+02  0.446E-02    8.30       0.0  T
   2    -50.7377404 -0.677143E-06  0.329E-02    8.30       1.0  T
   3    -50.7377409 -0.585535E-06  0.505E-03    8.29       3.9  T
   4    -50.7377410 -0.602578E-07  0.168E-03    8.29      11.7  T
   5    -50.7377410 -0.345143E-08  0.591E-04    8.29      33.2  T
speedup  0.87
cpu  time for SCC    0.00 s
wall time for SCC    0.00 s
speedup  0.97
cpu  time for grad    0.01 s
wall time for grad    0.01 s
 E :    -50.44341991  G :  0.003035    pred/act E change: -0.220D-04 -0.136D-04
Maxdispl :   0.0294   ||displ|| :   0.0597   Lambda : -0.316D-04
Largest |displ|/coords:  0.0294 (   5)  0.0209 (  10)  0.0197 (   2)
................................................................................
.............................. CYCLE   24 ......................................
................................................................................
   1    -50.7369604 -0.507370E+02  0.364E-02    8.29       0.0  T
   2    -50.7369607 -0.315322E-06  0.273E-02    8.29       1.0  T
   3    -50.7369609 -0.260964E-06  0.332E-03    8.29       5.9  T
   4    -50.7369610 -0.402422E-07  0.102E-03    8.29      19.3  T
   5    -50.7369610 -0.159601E-08  0.396E-04    8.29      49.6  T
   6    -50.7369610 -0.222236E-09  0.186E-04    8.29     105.3  T
speedup  0.91
cpu  time for SCC    0.00 s
wall time for SCC    0.01 s
speedup  0.99
cpu  time for grad    0.01 s
wall time for grad    0.01 s
 E :    -50.44343148  G :  0.003269    pred/act E change: -0.224D-04 -0.116D-04
Maxdispl :   0.0172   ||displ|| :   0.0443   Lambda : -0.271D-04
Largest |displ|/coords:  0.0172 (  10)  0.0153 (   7)  0.0153 (   1)
................................................................................
.............................. CYCLE   25 ......................................
................................................................................
   1    -50.7374677 -0.507375E+02  0.273E-02    8.30       0.0  T
   2    -50.7374679 -0.151489E-06  0.203E-02    8.30       1.0  T
   3    -50.7374680 -0.161031E-06  0.254E-03    8.30       7.7  T
   4    -50.7374680 -0.859548E-08  0.587E-04    8.30      33.4  T
   5    -50.7374680 -0.756465E-09  0.308E-04    8.30      63.6  T
speedup  0.89
cpu  time for SCC    0.00 s
wall time for SCC    0.00 s
speedup  1.00
cpu  time for grad    0.01 s
wall time for grad    0.01 s
 E :    -50.44344507  G :  0.002701    pred/act E change: -0.159D-04 -0.136D-04
Maxdispl :   0.0285   ||displ|| :   0.0516   Lambda : -0.138D-04
Largest |displ|/coords:  0.0285 (   5)  0.0236 (   1)  0.0177 (   3)

generating ANC from model Hessian ...
 Shifting diagonal of input Hessian by   5.010007352784746E-003
 Lowest  eigenvalues of input Hessian
    0.005000   -0.000000   -0.000000   -0.000000    0.000000    0.000000
    0.000000    0.005104    0.005237    0.005640    0.005855    0.006404
    0.006599    0.006848    0.007514    0.007988    0.008138    0.009650
 Highest eigenvalues
    1.394953    1.405550    1.409394    2.481827    3.301184    3.862150
 
cpu  time for ANC gen    0.02 s
wall time for ANC gen    0.02 s
................................................................................
.............................. CYCLE   26 ......................................
................................................................................
   1    -50.7374393 -0.507374E+02  0.308E-02    8.30       0.0  T
   2    -50.7374395 -0.166719E-06  0.229E-02    8.30       1.0  T
   3    -50.7374396 -0.144734E-06  0.300E-03    8.30       6.5  T
   4    -50.7374396 -0.180010E-07  0.946E-04    8.30      20.7  T
   5    -50.7374396 -0.112209E-08  0.256E-04    8.30      76.6  T
speedup  1.11
cpu  time for SCC    0.01 s
wall time for SCC    0.00 s
speedup  1.01
cpu  time for grad    0.01 s
wall time for grad    0.01 s
 E :    -50.44345535  G :  0.001878    pred/act E change:  0.000D+00 -0.103D-04
Maxdispl :   0.0155   ||displ|| :   0.0389   Lambda : -0.177D-04
Largest |displ|/coords:  0.0155 (  10)  0.0144 (   3)  0.0143 (   1)
................................................................................
.............................. CYCLE   27 ......................................
................................................................................
   1    -50.7373735 -0.507374E+02  0.356E-02    8.30       0.0  T
   2    -50.7373737 -0.141132E-06  0.270E-02    8.30       1.0  T
   3    -50.7373739 -0.187532E-06  0.164E-03    8.30      11.9  T
   4    -50.7373739 -0.453128E-08  0.681E-04    8.30      28.8  T
   5    -50.7373739 -0.399169E-09  0.233E-04    8.30      84.0  T
speedup  1.11
cpu  time for SCC    0.00 s
wall time for SCC    0.00 s
speedup  1.00
cpu  time for grad    0.01 s
wall time for grad    0.01 s
 E :    -50.44346889  G :  0.000737    pred/act E change:  0.000D+00 -0.135D-04
Maxdispl :   0.0360   ||displ|| :   0.0728   Lambda : -0.202D-04
Largest |displ|/coords:  0.0360 (   3)  0.0299 (   1)  0.0211 (  19)
................................................................................
.............................. CYCLE   28 ......................................
................................................................................
   1    -50.7371904 -0.507372E+02  0.625E-02    8.30       0.0  T
   2    -50.7371908 -0.425625E-06  0.473E-02    8.30       1.0  T
   3    -50.7371913 -0.540292E-06  0.302E-03    8.30       6.5  T
   4    -50.7371913 -0.198823E-07  0.116E-03    8.30      16.8  T
   5    -50.7371913 -0.121558E-08  0.454E-04    8.30      43.2  T
   6    -50.7371914 -0.304006E-09  0.175E-04    8.30     111.9  T
speedup  0.94
cpu  time for SCC    0.00 s
wall time for SCC    0.01 s
speedup  1.01
cpu  time for grad    0.01 s
wall time for grad    0.01 s
 E :    -50.44348130  G :  0.000959    pred/act E change: -0.887D-05 -0.124D-04
Maxdispl :   0.0292   ||displ|| :   0.0518   Lambda : -0.739D-05
Largest |displ|/coords:  0.0292 (   3)  0.0248 (   1)  0.0172 (  19)
................................................................................
.............................. CYCLE   29 ......................................
................................................................................
   1    -50.7371885 -0.507372E+02  0.349E-02    8.30       0.0  T
   2    -50.7371887 -0.118205E-06  0.263E-02    8.30       1.0  T
   3    -50.7371888 -0.134021E-06  0.188E-03    8.30      10.4  T
   4    -50.7371888 -0.969479E-08  0.824E-04    8.30      23.8  T
   5    -50.7371888 -0.680060E-09  0.248E-04    8.30      79.0  T
speedup  1.11
cpu  time for SCC    0.00 s
wall time for SCC    0.00 s
speedup  1.01
cpu  time for grad    0.01 s
wall time for grad    0.01 s
 E :    -50.44348423  G :  0.001040    pred/act E change: -0.102D-04 -0.293D-05
Maxdispl :   0.0162   ||displ|| :   0.0268   Lambda : -0.492D-05
Largest |displ|/coords:  0.0162 (   3)  0.0098 (   1)  0.0083 (   4)
................................................................................
.............................. CYCLE   30 ......................................
................................................................................
   1    -50.7373351 -0.507373E+02  0.158E-02    8.30       0.0  T
   2    -50.7373351 -0.387240E-07  0.119E-02    8.30       1.6  T
   3    -50.7373352 -0.400705E-07  0.973E-04    8.30      20.2  T
   4    -50.7373352 -0.355067E-08  0.288E-04    8.30      68.0  T
speedup  1.05
cpu  time for SCC    0.00 s
wall time for SCC    0.00 s
speedup  0.98
cpu  time for grad    0.01 s
wall time for grad    0.01 s
 E :    -50.44348719  G :  0.000484    pred/act E change: -0.371D-05 -0.296D-05
Maxdispl :   0.0107   ||displ|| :   0.0164   Lambda : -0.165D-05
Largest |displ|/coords:  0.0107 (   3)  0.0056 (   4)  0.0049 (  10)
................................................................................
.............................. CYCLE   31 ......................................
................................................................................
   1    -50.7374374 -0.507374E+02  0.683E-03    8.30       0.0  T
   2    -50.7374375 -0.998094E-08  0.512E-03    8.30       3.8  T
   3    -50.7374375 -0.746113E-08  0.583E-04    8.30      33.7  T
   4    -50.7374375 -0.129388E-08  0.210E-04    8.30      93.2  T
speedup  0.86
cpu  time for SCC    0.00 s
wall time for SCC    0.00 s
speedup  0.99
cpu  time for grad    0.01 s
wall time for grad    0.01 s
 E :    -50.44348833  G :  0.000366    pred/act E change: -0.246D-05 -0.114D-05
Maxdispl :   0.0182   ||displ|| :   0.0267   Lambda : -0.130D-05
Largest |displ|/coords:  0.0182 (   3)  0.0097 (   4)  0.0080 (   1)
................................................................................
.............................. CYCLE   32 ......................................
................................................................................
   1    -50.7373924 -0.507374E+02  0.123E-02    8.30       0.0  T
   2    -50.7373924 -0.210772E-07  0.926E-03    8.30       2.1  T
   3    -50.7373925 -0.226357E-07  0.792E-04    8.30      24.8  T
   4    -50.7373925 -0.186664E-08  0.334E-04    8.30      58.7  T
speedup  1.05
cpu  time for SCC    0.00 s
wall time for SCC    0.00 s
speedup  0.98
cpu  time for grad    0.01 s
wall time for grad    0.01 s
 E :    -50.44348907  G :  0.000321    pred/act E change: -0.824D-06 -0.733D-06
Maxdispl :   0.0046   ||displ|| :   0.0092   Lambda : -0.387D-06
Largest |displ|/coords:  0.0046 (   3)  0.0040 (   4)  0.0033 (  10)
................................................................................
.............................. CYCLE   33 ......................................
................................................................................
   1    -50.7373497 -0.507373E+02  0.442E-03    8.30       0.0  T
   2    -50.7373497 -0.185433E-08  0.332E-03    8.30       5.9  T
   3    -50.7373497 -0.177454E-08  0.246E-04    8.30      79.8  T
   4    -50.7373497 -0.188905E-09  0.104E-04    8.30     189.1  T
speedup  1.08
cpu  time for SCC    0.00 s
wall time for SCC    0.00 s
speedup  0.98
cpu  time for grad    0.01 s
wall time for grad    0.01 s
 E :    -50.44348930  G :  0.000225    pred/act E change: -0.650D-06 -0.233D-06
Maxdispl :   0.0028   ||displ|| :   0.0060   Lambda : -0.216D-06
Largest |displ|/coords:  0.0028 (   3)  0.0022 (   4)  0.0021 (   8)
................................................................................
.............................. CYCLE   34 ......................................
................................................................................
   1    -50.7373143 -0.507373E+02  0.287E-03    8.30       0.0  T
   2    -50.7373143 -0.265127E-08  0.217E-03    8.30       9.1  T
   3    -50.7373143 -0.197218E-08  0.290E-04    8.30      67.7  T
   4    -50.7373143 -0.406779E-09  0.950E-05    8.30     206.4  T
speedup  1.08
cpu  time for SCC    0.00 s
wall time for SCC    0.00 s
speedup  0.99
cpu  time for grad    0.01 s
wall time for grad    0.01 s
 E :    -50.44348944  G :  0.000138    pred/act E change: -0.193D-06 -0.140D-06
Maxdispl :   0.0021   ||displ|| :   0.0041   Lambda : -0.120D-06
Largest |displ|/coords:  0.0021 (   4)  0.0018 (   3)  0.0013 (   8)
................................................................................
.............................. CYCLE   35 ......................................
................................................................................
   1    -50.7373018 -0.507373E+02  0.247E-03    8.30       0.0  T
   2    -50.7373018 -0.152648E-08  0.186E-03    8.30      10.6  T
   3    -50.7373018 -0.125860E-08  0.229E-04    8.30      85.7  T
   4    -50.7373018 -0.195840E-09  0.753E-05    8.30     260.5  T
speedup  1.08
cpu  time for SCC    0.00 s
wall time for SCC    0.00 s
speedup  0.99
cpu  time for grad    0.01 s
wall time for grad    0.01 s
 E :    -50.44348952  G :  0.000126    pred/act E change: -0.108D-06 -0.830D-07
Maxdispl :   0.0010   ||displ|| :   0.0027   Lambda : -0.687D-07
Largest |displ|/coords:  0.0010 (   4)  0.0009 (  23)  0.0008 (   8)

   *** GEOMETRY OPTIMIZATION CONVERGED AFTER 35 ITERATIONS ***

------------------------------------------------------------------------
 total energy gain (kcal):     -0.0214
------------------------------------------------------------------------
================
 final structure:
================
$coord
        0.59880954057283        2.36547324938368       -4.23294965174916      S 
       -1.98567899462016        2.15844018937879       -3.40801871079934      O 
        1.27926255260088        4.56306369592600       -5.60488022399077      O 
        2.29313396955968        2.17078242405831       -1.76463840150157      O 
        1.39484455908464       -0.01765080535001       -5.64597701343398      O 
        0.79238160019705       -1.51077373626829       -4.55151670816362      H 
        1.34324510738569        2.77082676064048       -0.28008133068667      H 
        0.18997018964771       -1.20766486945531        4.57596190036443      O 
       -1.00208486361575       -1.86626797054699        3.31478405768574      H 
       -0.61709926846505       -1.40580274333474        6.18653688003059      H 
       -4.66308836155136        2.43508257775285        0.78111509571160      O 
       -3.39709047351449        3.33533088115588        1.73499839367053      H 
       -4.07299008214267        2.54445040581142       -0.96536020565052      H 
       -3.36337204445311       -2.30799045499537        1.13387668427752      O 
       -4.82758918821998       -3.36756594525759        1.03127698883198      H 
       -3.97850941511770       -0.52727002752895        0.97459963127267      H 
        0.26312152143290        3.46359466100989        2.63128950049748      O 
        1.51886806230840        4.49743274689117        3.42956019980435      H 
        0.35088820503405        1.77796015425887        3.42604343310755      H 
        0.09062416135106       -3.48125616453575       -2.64786531925465      O 
       -1.28778864561335       -2.93169472590764       -1.56109870124779      H 
        1.60313301817366       -3.50158187624806       -1.54157943992436      H 
        4.03169528761492       -2.73821877168562        0.46497854449339      N 
        3.38791104311586       -2.50077760451065        2.25250884118791      H 
        4.38546988923818       -1.00237722475416       -0.26712376527832      H 
        5.67193261114000       -3.71554478808562        0.53355928298366      H 
$end
 
 Bond Distances (Angstroems)
 ---------------------------
S1-O2=1.4398         S1-O3=1.4174         S1-O4=1.5876         S1-O5=1.5254         O2-S1=1.4398         O3-S1=1.4174         
O4-S1=1.5876         O4-H7=0.9852         O5-S1=1.5254         O5-H6=1.0302         H6-O5=1.0302         H7-O4=0.9852         
O8-H9=0.9822         O8-H10=0.9590        H9-O8=0.9822         H10-O8=0.9590        O11-H12=0.9647       O11-H13=0.9772       
H12-O11=0.9647       H13-O11=0.9772       O14-H15=0.9580       O14-H16=1.0005       H15-O14=0.9580       H16-O14=1.0005       
O17-H18=0.9588       O17-H19=0.9873       H18-O17=0.9588       H19-O17=0.9873       O20-H21=0.9733       O20-H22=0.9917       
H21-O20=0.9733       H22-O20=0.9917       N23-H24=1.0132       N23-H25=1.0143       N23-H26=1.0110       H24-N23=1.0132       
H25-N23=1.0143       H26-N23=1.0110       
 N  H  Rav=1.0129 sigma=0.0014  Rmin=1.0110  Rmax=1.0143     3
 O  H  Rav=0.9807 sigma=0.0200  Rmin=0.9580  Rmax=1.0302    12
 S  O  Rav=1.4926 sigma=0.0681  Rmin=1.4174  Rmax=1.5876     4
 
 selected bond angles (degree)
 --------------------
O3-S1-O2=117.32                O4-S1-O2=106.38                O4-S1-O3=109.34                O5-S1-O2=110.37                
O5-S1-O3=110.92                O5-S1-O4=101.17                H7-O4-S1=110.30                H6-O5-S1=105.84                
H10-O8-H9=106.20               
 
 selected dihedral angles (degree)
 ---------------------------------
H7-O4-S1-O2=332.72            H7-O4-S1-O3=100.33            H7-O4-S1-O5=217.40            H6-O5-S1-O2=313.23            
H6-O5-S1-O3=181.47            H6-O5-S1-O4= 65.57            
 
 CMA Distance (Angstroems)
 ---------------------------
R(CMA):  3.2636

========================================================================
 FINAL SINGLEPOINT CALCULATION ON OPTIMIZED GEOMETRY
========================================================================

 Ncao       : 65
 Nao        : 64
 Nshell     : 38
 Nel        : 80
 T(el)      :   300.0
 intcut     :    25.0
 scfconv/Eh :  0.100E-05
   qconv/e  :  0.100E-03
 intneglect :  0.100E-07
 broydamp   :      0.250
 iter      E             dE          RMSdq      gap      omega  full diag
   1    -50.7373018 -0.507373E+02  0.319E-05    8.30       0.0  T
   2    -50.7373018 -0.112266E-11  0.202E-05    8.30     968.8  T
   3    -50.7373018 -0.440536E-12  0.447E-06    8.30    4387.0  T
speedup  1.07
cpu  time for SCC    0.00 s
wall time for SCC    0.00 s

   *** convergence criteria satisfied after 3 iterations ***

          eigenvalues
 #    :          28         29         30         31         32         33         34         35
 occ. :        2.000      2.000      2.000      2.000      2.000      2.000      2.000      2.000
 eps  :       -13.632    -13.406    -12.927    -12.870    -12.810    -12.501    -12.359    -12.225
 #    :          36         37         38         39         40         41         42         43
 occ. :        2.000      2.000      2.000      2.000      2.000      0.000      0.000      0.000
 eps  :       -12.157    -12.012    -11.852    -11.766    -11.084     -2.783     -0.824     -0.595
 #    :          44         45         46         47         48         49         50         51
 occ. :        0.000      0.000      0.000      0.000      0.000      0.000      0.000      0.000
 eps  :         0.174      0.944      1.377      1.676      2.444      3.343      4.531      5.536


   #   Z            q   n(s)   n(p)   n(d)      C6AA      α(0)
   1  16 S      1.658  1.581  1.802  0.959    89.734    15.943
   2   8 O     -0.710  1.756  4.954  0.000    28.983     7.218
   3   8 O     -0.640  1.752  4.889  0.000    27.127     6.983
   4   8 O     -0.627  1.754  4.873  0.000    25.801     6.857
   5   8 O     -0.597  1.756  4.841  0.000    25.082     6.761
   6   1 H      0.395  0.605  0.000  0.000     0.488     1.094
   7   1 H      0.377  0.623  0.000  0.000     0.527     1.139
   8   8 O     -0.613  1.749  4.864  0.000    25.498     6.815
   9   1 H      0.342  0.658  0.000  0.000     0.607     1.224
  10   1 H      0.288  0.712  0.000  0.000     0.759     1.368
  11   8 O     -0.609  1.751  4.858  0.000    25.399     6.802
  12   1 H      0.309  0.691  0.000  0.000     0.695     1.309
  13   1 H      0.334  0.666  0.000  0.000     0.628     1.245
  14   8 O     -0.637  1.751  4.886  0.000    26.095     6.894
  15   1 H      0.289  0.711  0.000  0.000     0.756     1.366
  16   1 H      0.343  0.657  0.000  0.000     0.606     1.223
  17   8 O     -0.617  1.752  4.865  0.000    25.603     6.829
  18   1 H      0.295  0.705  0.000  0.000     0.737     1.349
  19   1 H      0.342  0.658  0.000  0.000     0.609     1.226
  20   8 O     -0.621  1.760  4.861  0.000    25.693     6.842
  21   1 H      0.324  0.676  0.000  0.000     0.653     1.270
  22   1 H      0.325  0.675  0.000  0.000     0.651     1.267
  23   7 N     -0.453  1.367  4.086  0.000    31.912     8.390
  24   1 H      0.176  0.824  0.000  0.000     1.237     1.743
  25   1 H      0.176  0.824  0.000  0.000     1.237     1.742
  26   1 H      0.153  0.847  0.000  0.000     1.384     1.843

 Mol. C6AA /au·bohr⁶  :       5444.907221
 Mol. C8AA /au·bohr⁸  :     117629.697199
 Mol. α(0) /au        :        106.740429

 
 Wiberg/Mayer (AO) data. WBOs > 0.1 written file <wbo>
 largest (>0.05) Wiberg bond orders for each atom
           total WBO             WBO to atom ...
     1  S   4.888    O    3 1.506    O    2 1.375    O    5 1.054    O    4 0.919
     2  O   1.739    S    1 1.375    O    3 0.126    O    5 0.090    O    4 0.087
     3  O   1.816    S    1 1.506    O    2 0.126    O    4 0.086    O    5 0.082
     4  O   1.953    S    1 0.919    H    7 0.757    O    2 0.087    O    3 0.086    O    5 0.055
     5  O   2.001    S    1 1.054    H    6 0.655    O    2 0.090    O    3 0.082    O    4 0.055    O   20 0.053
     6  H   0.844    O    5 0.655    O   20 0.171
     7  H   0.858    O    4 0.757    O   17 0.084
     8  O   1.882    H   10 0.912    H    9 0.825    H   19 0.071
     9  H   0.883    O    8 0.825    O   14 0.055
    10  H   0.917    O    8 0.912
    11  O   1.911    H   12 0.885    H   13 0.841    H   16 0.101
    12  H   0.905    O   11 0.885
    13  H   0.889    O   11 0.841
    14  O   1.872    H   15 0.908    H   16 0.779    H    9 0.055
    15  H   0.917    O   14 0.908
    16  H   0.883    O   14 0.779    O   11 0.101
    17  O   1.896    H   18 0.908    H   19 0.811    H    7 0.084
    18  H   0.913    O   17 0.908
    19  H   0.883    O   17 0.811    O    8 0.071
    20  O   1.951    H   21 0.850    H   22 0.807    H    6 0.171    O    5 0.053
    21  H   0.895    O   20 0.850
    22  H   0.894    O   20 0.807    N   23 0.086
    23  N   3.031    H   26 0.973    H   24 0.959    H   25 0.957    H   22 0.086
    24  H   0.969    N   23 0.959
    25  H   0.969    N   23 0.957
    26  H   0.977    N   23 0.973
 MOs/occ written to file <molden.input>
 
molecular dipole:
                 x           y           z       tot (Debye)
 q only:        0.171      -1.094       2.734
   full:        0.406      -0.998       3.383       9.025
molecular quadrupole (traceless):
                xx          xy          yy          xz          yz          zz
 q only:        5.630       2.568      -0.795       3.178      10.005      -4.834
  q+dip:        8.140       4.893      -3.409       4.219       9.635      -4.731
   full:        7.955       4.971      -3.502       4.288       9.788      -4.453

SCC energy    :     -50.7373018
rep           :       0.2933868
ES            :       0.2335587
AES           :      -0.0472893
AXC           :      -0.0064493
disp          :      -0.0185691
XB            :       0.0000000
fix           :       0.0000000
total E       :     -50.4434895
atomizationE  :       4.9737937     3121.10
(atE without considering molecular charge,
 total energy contains solvation terms)
H-L gap (eV)  :          8.3012
optimized geometry written to: xtbopt.xyz


------------------------------------------------------------------------
 * finished run on 2019/09/16 at 12:11:42.130     
------------------------------------------------------------------------
 total:
 * wall-time:     0 d,  0 h,  0 min,  1.008 sec
 *  cpu-time:     0 d,  0 h,  0 min,  0.995 sec
 * ratio c/w:     0.987 speedup
 SCF:
 * wall-time:     0 d,  0 h,  0 min,  0.149 sec
 *  cpu-time:     0 d,  0 h,  0 min,  0.145 sec
 * ratio c/w:     0.974 speedup
 ANC optimizer:
 * wall-time:     0 d,  0 h,  0 min,  0.832 sec
 *  cpu-time:     0 d,  0 h,  0 min,  0.826 sec
 * ratio c/w:     0.992 speedup

