      -----------------------------------------------------------      
     |                   =====================                   |     
     |                           x T B                           |     
     |                   =====================                   |     
     |                         S. Grimme                         |     
     |          Mulliken Center for Theoretical Chemistry        |     
     |                    University of Bonn                     |     
     |                 Version 6.0.1 (SAW181210)                 |     
      -----------------------------------------------------------      

   This program is distributed in the hope that it will be useful,
   but WITHOUT ANY WARRANTY; without even the implied warranty of
   MERCHANTABILITY or FITNESS FOR A PARTICULAR PURPOSE.
   
   FOR NON-COMMERCIAL, ACADEMIA USE ONLY.
   
   Cite this work as:
   S. Grimme, C. Bannwarth, P. Shushkov, J. Comput. Theory Chem., 2017,
   13, 1989-2009.
   C. Bannwarth, S. Ehlert and S. Grimme., ChemRxiv, 2018, preprint.
   http://doi.org/10.26434/chemrxiv.7246238.v1
   
   for sTDA-xTB:
   S. Grimme and C. Bannwarth, J. Chem. Phys., 2016, 145, 054103.
   
   in the mass-spec context:
   V. Asgeirsson, C. Bauer and S. Grimme, Chem. Sci., 2017, 8, 4879.
   
   if GBSA is used:
   P. Shushkov, F. März and S. Grimme, unpublished.
   
   for ANC optimizer:
   S. Grimme, unpublished.
   Rational Function algorithm used in ANCopt:
   F. Eckert, P. Pulay, H.-J. Werner, J. Comput. Chem., 1997, 18, 1473.
   
   with help from (in alphabetical order)
   C. Bannwarth, F. Bohle, G. Brandenburg, E. Caldeweyher, M. Checinski,
   S. Dohm, S. Ehlert, S. Ehrlich, F. März, H. Neugebauer, J. Pisarek,
   P. Pracht, P. Shushkov, and S. Spicher.
   
 * started run on 2019/09/16 at 12:13:36.384     
========================================================================
 # omp threads = 1
========================================================================
number of atoms            : 26
number of electrons        : 80
charge                     : 0
spin                       : .0
first test random number   : .5160

########################################################################
# WARNING! Please study the warnings concerning your input carefully
#  - XTBPATH is not set, using XTBHOME instead
#  - the use of '-opt' is discouraged, please use '--opt' next time
#  - the use of '-chrg' is discouraged, please use '--chrg' next time
#  - the use of '-uhf' is discouraged, please use '--uhf' next time
########################################################################

           ------------------------------------------------- 
          |                 G F N 2 - x T B                 |
          | Geometry, Frequencies, Noncovalent interactions |
          |            JCTC 2018 parametrisation            |
           ------------------------------------------------- 
      method parameters     
 k(s)        :  1.8500
 k(p)        :  2.2300
 k(d)        :  2.2300
 k(f)        :  2.0000
 kEN (H0ij)  : -2.0000
 D4 a1       :  0.5200
 D4 a2       :  5.0000
 D4 s6       :  1.0000
 D4 s8       :  2.7000
 D4 s9       :  5.0000
 alphaj      :  2.0000


            Z     q(EN)     CN     RAES       Cart. coordinates
     1  S   6.0    0.58    4.28    4.20    -2.97647     1.86194    -3.21459
     2  O   6.0   -0.32    1.12    1.80    -0.94873     0.30086    -4.23082
     3  O   6.0   -0.27    1.09    1.80    -5.19330     2.53612    -4.65291
     4  O   6.0   -0.26    2.09    1.84    -3.80156     0.62118    -0.50809
     5  O   6.0   -0.23    2.05    1.83    -1.86918     4.48440    -2.13554
     6  H   1.0    0.16    1.18    1.46    -0.27937     4.16154    -1.26686
     7  H   1.0    0.16    1.20    1.46    -3.56136    -1.19791    -0.64799
     8  O   6.0   -0.31    2.06    1.83     1.79895     0.40235     4.76901
     9  H   1.0    0.15    0.97    1.43     2.68497     1.17960     6.15663
    10  H   1.0    0.16    1.04    1.43     0.07658     0.97340     4.91724
    11  O   6.0   -0.29    2.01    1.83    -2.92222     2.12068     4.47455
    12  H   1.0    0.16    1.01    1.43    -3.46596     1.49897     2.85207
    13  H   1.0    0.15    0.97    1.43    -4.17747     3.34411     4.96667
    14  O   6.0   -0.29    2.04    1.83    -2.73978    -4.25715    -0.75090
    15  H   1.0    0.15    0.97    1.43    -2.82899    -5.96477    -1.37594
    16  H   1.0    0.16    1.05    1.44    -1.13619    -4.14023     0.10317
    17  O   6.0   -0.29    2.04    1.83     2.20069     2.54993     0.11729
    18  H   1.0    0.15    1.04    1.43     3.13342     1.40673    -0.94934
    19  H   1.0    0.16    1.03    1.43     2.27062     1.81924     1.78337
    20  O   6.0   -0.30    2.02    1.83     1.69246    -3.50019     1.45060
    21  H   1.0    0.16    1.02    1.43     1.82429    -2.38683     2.88506
    22  H   1.0    0.14    0.98    1.43     3.22086    -3.23910     0.49643
    23  N   5.0   -0.23    3.00    1.93     4.31046    -1.01303    -3.26469
    24  H   1.0    0.11    0.99    1.43     5.33733     0.12611    -4.43043
    25  H   1.0    0.13    1.02    1.43     2.48728    -0.87501    -3.87135
    26  H   1.0    0.10    0.99    1.43     4.86268    -2.81295    -3.67263

  Z AO/shell   Hii/eV     exponent
  1     Wed Apr 25 08:07:45 CEST 2018   EN: 2.200 GM2: 0.406  GM3: 0.0800  RAES: 1.40
     1s    -10.707211    1.230000
  7     Wed Apr 25 08:07:45 CEST 2018   EN: 3.040 GM2: 0.461  GM3:-0.0640  RAES: 1.90
     2s    -16.686243    2.339881
     2p    -12.523956    2.014332
  8     Wed Apr 25 08:07:45 CEST 2018   EN: 3.440 GM2: 0.452  GM3:-0.0517  RAES: 1.80
     2s    -20.229985    2.439742
     2p    -15.503117    2.137023
 16     Tue Apr 24 11:44:34 CEST 2018   EN: 2.580 GM2: 0.340  GM3:-0.0502  RAES: 3.10
     3s    -20.029654    1.981333
     3p    -11.377694    2.025643
     3d     -0.420282    1.702555
 no old-style atom pair restraining (fixing) potential

molecular fragmentation (1/2 indicates fragments):
11111112222222222222222222
# atoms in fragment 1/2:     7    19
 fragment masses (1/2) :       98.07      107.11
CMA distance (Bohr)    :   6.063
constraining FC (au)   :  0.0500
           ------------------------------------------------- 
          |        Self-Consistent Charge Iterations        |
           ------------------------------------------------- 

 Ncao       : 65
 Nao        : 64
 Nshell     : 38
 Nel        : 80
 T(el)      :   300.0
 intcut     :    25.0
 scfconv/Eh :  0.100E-05
   qconv/e  :  0.100E-03
 intneglect :  0.100E-07
 broydamp   :      0.250
 iter      E             dE          RMSdq      gap      omega  full diag
   1    -50.6320769 -0.506321E+02  0.700E+00    7.94       0.0  T
   2    -50.6805503 -0.484734E-01  0.492E+00    7.30       1.0  T
   3    -50.7175563 -0.370060E-01  0.116E+00    6.23       1.0  T
   4    -50.7214331 -0.387686E-02  0.630E-01    6.43       1.0  T
   5    -50.7227930 -0.135988E-02  0.252E-01    6.45       1.0  T
   6    -50.7230984 -0.305412E-03  0.142E-01    6.36       1.0  T
   7    -50.7232190 -0.120596E-03  0.510E-02    6.36       1.0  T
   8    -50.7232354 -0.163749E-04  0.225E-02    6.37       1.0  T
   9    -50.7232381 -0.271535E-05  0.108E-02    6.38       1.8  T
  10    -50.7232387 -0.571129E-06  0.250E-03    6.38       7.8  T
  11    -50.7232387 -0.161083E-07  0.115E-03    6.38      17.1  T
  12    -50.7232387 -0.637921E-08  0.307E-04    6.38      63.9  T
  13    -50.7232387 -0.276209E-09  0.181E-04    6.38     108.5  T
speedup  0.99
cpu  time for SCC    0.01 s
wall time for SCC    0.02 s

   *** convergence criteria satisfied after 13 iterations ***

          eigenvalues
 #    :          28         29         30         31         32         33         34         35
 occ. :        2.000      2.000      2.000      2.000      2.000      2.000      2.000      2.000
 eps  :       -13.303    -13.170    -12.889    -12.500    -12.438    -12.419    -12.311    -12.284
 #    :          36         37         38         39         40         41         42         43
 occ. :        2.000      2.000      2.000      2.000      2.000      0.000      0.000      0.000
 eps  :       -12.051    -12.035    -11.974    -11.614    -10.977     -4.597     -1.828     -0.888
 #    :          44         45         46         47         48         49         50         51
 occ. :        0.000      0.000      0.000      0.000      0.000      0.000      0.000      0.000
 eps  :        -0.101      0.878      1.177      1.817      2.653      3.628      4.122      4.754


   #   Z            q   n(s)   n(p)   n(d)      C6AA      α(0)
   1  16 S      1.632  1.631  1.808  0.929    90.318    15.995
   2   8 O     -0.660  1.771  4.889  0.000    27.638     7.049
   3   8 O     -0.616  1.770  4.846  0.000    26.512     6.903
   4   8 O     -0.609  1.758  4.852  0.000    25.384     6.801
   5   8 O     -0.577  1.753  4.823  0.000    24.602     6.696
   6   1 H      0.388  0.612  0.000  0.000     0.505     1.115
   7   1 H      0.391  0.609  0.000  0.000     0.500     1.109
   8   8 O     -0.607  1.740  4.867  0.000    25.362     6.797
   9   1 H      0.289  0.711  0.000  0.000     0.754     1.364
  10   1 H      0.345  0.655  0.000  0.000     0.599     1.216
  11   8 O     -0.605  1.733  4.872  0.000    25.300     6.789
  12   1 H      0.325  0.675  0.000  0.000     0.650     1.266
  13   1 H      0.289  0.711  0.000  0.000     0.754     1.364
  14   8 O     -0.629  1.744  4.885  0.000    25.888     6.867
  15   1 H      0.291  0.709  0.000  0.000     0.749     1.359
  16   1 H      0.339  0.661  0.000  0.000     0.615     1.232
  17   8 O     -0.652  1.749  4.903  0.000    26.454     6.942
  18   1 H      0.314  0.686  0.000  0.000     0.680     1.295
  19   1 H      0.320  0.680  0.000  0.000     0.665     1.281
  20   8 O     -0.615  1.743  4.872  0.000    25.543     6.821
  21   1 H      0.326  0.674  0.000  0.000     0.648     1.264
  22   1 H      0.299  0.701  0.000  0.000     0.723     1.335
  23   7 N     -0.467  1.395  4.071  0.000    32.320     8.443
  24   1 H      0.146  0.854  0.000  0.000     1.431     1.874
  25   1 H      0.198  0.802  0.000  0.000     1.116     1.655
  26   1 H      0.143  0.857  0.000  0.000     1.450     1.886

 Mol. C6AA /au·bohr⁶  :       5437.287419
 Mol. C8AA /au·bohr⁸  :     117437.218428
 Mol. α(0) /au        :        106.718705

 
 Wiberg/Mayer (AO) data. WBOs > 0.1 written file <wbo>
 largest (>0.05) Wiberg bond orders for each atom
           total WBO             WBO to atom ...
     1  S   4.782    O    3 1.490    O    2 1.402    O    5 0.969    O    4 0.892
     2  O   1.770    S    1 1.402    O    3 0.143    O    5 0.098    O    4 0.095
     3  O   1.822    S    1 1.490    O    2 0.143    O    4 0.093    O    5 0.084
     4  O   1.972    S    1 0.892    H    7 0.770    O    2 0.095    O    3 0.093    O    5 0.054
     5  O   2.006    S    1 0.969    H    6 0.769    O    2 0.098    O    3 0.084    O    4 0.054
     6  H   0.849    O    5 0.769    O   17 0.062
     7  H   0.847    O    4 0.770    O   14 0.058
     8  O   1.883    H    9 0.907    H   10 0.833
     9  H   0.916    O    8 0.907
    10  H   0.881    O    8 0.833
    11  O   1.846    H   13 0.906    H   12 0.862
    12  H   0.894    O   11 0.862
    13  H   0.916    O   11 0.906
    14  O   1.836    H   15 0.902    H   16 0.829    H    7 0.058
    15  H   0.915    O   14 0.902
    16  H   0.885    O   14 0.829    O   20 0.055
    17  O   1.836    H   18 0.858    H   19 0.844    H    6 0.062
    18  H   0.901    O   17 0.858
    19  H   0.898    O   17 0.844
    20  O   1.856    H   22 0.898    H   21 0.853    H   16 0.055
    21  H   0.894    O   20 0.853
    22  H   0.910    O   20 0.898
    23  N   2.958    H   24 0.975    H   26 0.971    H   25 0.935
    24  H   0.979    N   23 0.975
    25  H   0.961    N   23 0.935
    26  H   0.980    N   23 0.971
 MOs/occ written to file <molden.input>
 
molecular dipole:
                 x           y           z       tot (Debye)
 q only:        1.265      -0.712       1.534
   full:        1.513      -0.931       1.456       5.838
molecular quadrupole (traceless):
                xx          xy          yy          xz          yz          zz
 q only:       -1.589       3.487       1.383      -9.931      10.391       0.206
  q+dip:       -2.203       2.481      -0.046     -13.644      14.454       2.249
   full:       -2.292       2.530       0.100     -13.582      14.821       2.192

SCC energy    :     -50.7232387
rep           :       0.2982857
ES            :       0.2324948
AES           :      -0.0393183
AXC           :      -0.0035759
disp          :      -0.0175665
XB            :       0.0000000
fix           :       0.0000000
total E       :     -50.4245413
atomizationE  :       4.9548455     3109.21
(atE without considering molecular charge,
 total energy contains solvation terms)
H-L gap (eV)  :          6.3800
           ------------------------------------------------- 
          |                 ===============                 |
          |                   A N C O P T                   |
          |                 ===============                 |
          |          Approximate Normal Coordinate          |
          |           Rational Function Optimizer           |
           ------------------------------------------------- 
dumping coords to <xtbopt.coord> and <xtbopt.log>
 optlevel               2
 Maxcycle             520
 Maxmicro              25
 Econv         1.000000000000000E-007
 Gconv         2.000000000000000E-004
 Maxdispl       1.00000000000000     
 Hlow          5.000000000000000E-003
 S6             20.0000000000000     
 Nvar               72

generating ANC from model Hessian ...
 Shifting diagonal of input Hessian by   5.087348664275221E-003
 Lowest  eigenvalues of input Hessian
    0.005000   -0.000000   -0.000000    0.000000    0.000000    0.000000
    0.000000    0.005208    0.005380    0.005477    0.005599    0.005826
    0.005928    0.006111    0.006373    0.007063    0.007347    0.007494
 Highest eigenvalues
    1.420522    1.426505    1.430587    1.950736    2.768395    3.589628
 
cpu  time for ANC gen    0.02 s
wall time for ANC gen    0.02 s
................................................................................
.............................. CYCLE    1 ......................................
................................................................................
   1    -50.7232387 -0.507232E+02  0.528E-05    6.38       0.0  T
   2    -50.7232387 -0.513012E-11  0.408E-05    6.38     481.0  T
   3    -50.7232387 -0.552092E-11  0.178E-05    6.38    1101.5  T
speedup  0.74
cpu  time for SCC    0.00 s
wall time for SCC    0.00 s
speedup  1.00
cpu  time for grad    0.01 s
wall time for grad    0.01 s
 E :    -50.42454130  G :  0.074978    pred/act E change:  0.000D+00  0.263D-07
Maxdispl :   0.1712   ||displ|| :   0.4227   Lambda : -0.108D-01
Largest |displ|/coords:  0.1712 (  23)  0.1675 (  28)  0.1071 (  25)
................................................................................
.............................. CYCLE    2 ......................................
................................................................................
   1    -50.7227971 -0.507228E+02  0.659E-01    6.94       0.0  T
   2    -50.7229120 -0.114904E-03  0.500E-01    6.93       1.0  T
   3    -50.7230025 -0.904312E-04  0.600E-02    6.92       1.0  T
   4    -50.7230176 -0.151108E-04  0.234E-02    6.93       1.0  T
   5    -50.7230186 -0.983214E-06  0.620E-03    6.93       3.2  T
   6    -50.7230186 -0.388754E-07  0.365E-03    6.93       5.4  T
   7    -50.7230186 -0.235891E-07  0.125E-03    6.93      15.7  T
speedup  0.98
cpu  time for SCC    0.01 s
wall time for SCC    0.01 s
speedup  0.94
cpu  time for grad    0.01 s
wall time for grad    0.01 s
 E :    -50.43163242  G :  0.054024    pred/act E change:  0.000D+00 -0.709D-02
Maxdispl :   0.1292   ||displ|| :   0.2837   Lambda : -0.489D-02
Largest |displ|/coords:  0.1292 (  12)  0.0951 (  18)  0.0835 (   4)
................................................................................
.............................. CYCLE    3 ......................................
................................................................................
   1    -50.7368009 -0.507368E+02  0.299E-01    7.44       0.0  T
   2    -50.7368459 -0.450199E-04  0.223E-01    7.45       1.0  T
   3    -50.7368726 -0.267560E-04  0.389E-02    7.49       1.0  T
   4    -50.7368783 -0.563729E-05  0.145E-02    7.49       1.4  T
   5    -50.7368786 -0.356538E-06  0.373E-03    7.49       5.3  T
   6    -50.7368786 -0.127349E-07  0.216E-03    7.48       9.1  T
speedup  0.94
cpu  time for SCC    0.00 s
wall time for SCC    0.01 s
speedup  1.00
cpu  time for grad    0.01 s
wall time for grad    0.01 s
 E :    -50.43465469  G :  0.032381    pred/act E change: -0.639D-02 -0.302D-02
Maxdispl :   0.2140   ||displ|| :   0.4878   Lambda : -0.527D-02
Largest |displ|/coords:  0.2140 (   7)  0.1859 (   4)  0.1095 (  31)
................................................................................
.............................. CYCLE    4 ......................................
................................................................................
   1    -50.7405547 -0.507406E+02  0.496E-01    8.45       0.0  T
   2    -50.7406374 -0.827009E-04  0.373E-01    8.46       1.0  T
   3    -50.7406976 -0.602082E-04  0.525E-02    8.51       1.0  T
   4    -50.7407084 -0.107852E-04  0.240E-02    8.51       1.0  T
   5    -50.7407092 -0.802842E-06  0.558E-03    8.51       3.5  T
   6    -50.7407093 -0.332137E-07  0.356E-03    8.51       5.5  T
speedup  1.15
cpu  time for SCC    0.01 s
wall time for SCC    0.01 s
speedup  1.01
cpu  time for grad    0.01 s
wall time for grad    0.01 s
 E :    -50.43730258  G :  0.040961    pred/act E change: -0.264D-02 -0.265D-02
Maxdispl :   0.1358   ||displ|| :   0.3187   Lambda : -0.219D-02
Largest |displ|/coords:  0.1358 (  10)  0.1101 (  11)  0.0813 (  23)
................................................................................
.............................. CYCLE    5 ......................................
................................................................................
   1    -50.7381680 -0.507382E+02  0.363E-01    8.57       0.0  T
   2    -50.7382223 -0.542994E-04  0.274E-01    8.58       1.0  T
   3    -50.7382622 -0.398959E-04  0.408E-02    8.60       1.0  T
   4    -50.7382697 -0.750401E-05  0.119E-02    8.61       1.6  T
   5    -50.7382699 -0.219360E-06  0.453E-03    8.60       4.3  T
   6    -50.7382699 -0.158061E-07  0.236E-03    8.60       8.3  T
speedup  0.94
cpu  time for SCC    0.00 s
wall time for SCC    0.01 s
speedup  1.00
cpu  time for grad    0.01 s
wall time for grad    0.01 s
 E :    -50.43770675  G :  0.040496    pred/act E change: -0.326D-02 -0.404D-03
Maxdispl :   0.1259   ||displ|| :   0.3144   Lambda : -0.346D-02
Largest |displ|/coords:  0.1259 (  12)  0.1169 (   4)  0.1017 (  16)
................................................................................
.............................. CYCLE    6 ......................................
................................................................................
   1    -50.7447764 -0.507448E+02  0.375E-01    8.39       0.0  T
   2    -50.7448473 -0.708883E-04  0.281E-01    8.40       1.0  T
   3    -50.7448929 -0.455518E-04  0.487E-02    8.42       1.0  T
   4    -50.7449026 -0.977447E-05  0.908E-03    8.43       2.2  T
   5    -50.7449027 -0.110612E-06  0.454E-03    8.43       4.3  T
   6    -50.7449028 -0.121057E-07  0.195E-03    8.42      10.0  T
speedup  0.94
cpu  time for SCC    0.00 s
wall time for SCC    0.01 s
speedup  1.00
cpu  time for grad    0.01 s
wall time for grad    0.01 s
 E :    -50.43858498  G :  0.027692    pred/act E change: -0.120D-02 -0.878D-03
Maxdispl :   0.2526   ||displ|| :   0.4100   Lambda : -0.338D-02
Largest |displ|/coords:  0.2526 (   7)  0.1522 (  18)  0.1336 (   4)
................................................................................
.............................. CYCLE    7 ......................................
................................................................................
   1    -50.7273228 -0.507273E+02  0.545E-01    8.22       0.0  T
   2    -50.7274577 -0.134841E-03  0.408E-01    8.23       1.0  T
   3    -50.7275369 -0.792063E-04  0.662E-02    8.25       1.0  T
   4    -50.7275568 -0.198858E-04  0.163E-02    8.25       1.2  T
   5    -50.7275572 -0.486569E-06  0.691E-03    8.25       2.8  T
   6    -50.7275573 -0.629614E-07  0.367E-03    8.25       5.4  T
   7    -50.7275573 -0.268248E-07  0.869E-04    8.25      22.6  T
speedup  0.97
cpu  time for SCC    0.01 s
wall time for SCC    0.01 s
speedup  1.00
cpu  time for grad    0.01 s
wall time for grad    0.01 s
 E :    -50.43761332  G :  0.062997    pred/act E change: -0.190D-02  0.972D-03
Maxdispl :   0.2023   ||displ|| :   0.4923   Lambda : -0.117D-01
Largest |displ|/coords:  0.2023 (  18)  0.1702 (  14)  0.1540 (   7)
................................................................................
.............................. CYCLE    8 ......................................
................................................................................
   1    -50.7372985 -0.507373E+02  0.807E-01    8.45       0.0  T
   2    -50.7376526 -0.354094E-03  0.606E-01    8.46       1.0  T
   3    -50.7378831 -0.230507E-03  0.110E-01    8.47       1.0  T
   4    -50.7379297 -0.466409E-04  0.259E-02    8.45       1.0  T
   5    -50.7379315 -0.177921E-05  0.111E-02    8.45       1.8  T
   6    -50.7379316 -0.603186E-07  0.556E-03    8.45       3.5  T
   7    -50.7379316 -0.688805E-07  0.126E-03    8.45      15.6  T
speedup  0.98
cpu  time for SCC    0.01 s
wall time for SCC    0.01 s
speedup  1.01
cpu  time for grad    0.01 s
wall time for grad    0.01 s
 E :    -50.43660852  G :  0.068336    pred/act E change: -0.197D-02  0.100D-02
Maxdispl :   0.1358   ||displ|| :   0.3879   Lambda : -0.772D-02
Largest |displ|/coords:  0.1358 (  13)  0.1165 (  16)  0.1084 (  14)
................................................................................
.............................. CYCLE    9 ......................................
................................................................................
   1    -50.7385696 -0.507386E+02  0.591E-01    8.38       0.0  T
   2    -50.7387183 -0.148722E-03  0.446E-01    8.36       1.0  T
   3    -50.7388163 -0.979407E-04  0.700E-02    8.32       1.0  T
   4    -50.7388372 -0.209776E-04  0.169E-02    8.34       1.2  T
   5    -50.7388380 -0.734962E-06  0.673E-03    8.34       2.9  T
   6    -50.7388380 -0.285343E-07  0.364E-03    8.34       5.4  T
   7    -50.7388380 -0.230701E-07  0.778E-04    8.34      25.2  T
speedup  0.97
cpu  time for SCC    0.01 s
wall time for SCC    0.01 s
speedup  1.01
cpu  time for grad    0.01 s
wall time for grad    0.01 s
 E :    -50.43924872  G :  0.026058    pred/act E change: -0.726D-02 -0.264D-02
Maxdispl :   0.0877   ||displ|| :   0.2085   Lambda : -0.137D-02
Largest |displ|/coords:  0.0877 (   1)  0.0682 (   7)  0.0541 (   8)
................................................................................
.............................. CYCLE   10 ......................................
................................................................................
   1    -50.7366285 -0.507366E+02  0.209E-01    8.28       0.0  T
   2    -50.7366416 -0.130604E-04  0.157E-01    8.29       1.0  T
   3    -50.7366526 -0.110387E-04  0.192E-02    8.31       1.0  T
   4    -50.7366542 -0.156563E-05  0.629E-03    8.31       3.1  T
   5    -50.7366542 -0.470444E-07  0.263E-03    8.31       7.4  T
   6    -50.7366542 -0.805777E-08  0.112E-03    8.31      17.6  T
speedup  0.96
cpu  time for SCC    0.01 s
wall time for SCC    0.01 s
speedup  0.98
cpu  time for grad    0.01 s
wall time for grad    0.01 s
 E :    -50.43976002  G :  0.024404    pred/act E change: -0.444D-02 -0.511D-03
Maxdispl :   0.0745   ||displ|| :   0.1696   Lambda : -0.917D-03
Largest |displ|/coords:  0.0745 (  10)  0.0567 (   7)  0.0438 (   4)
................................................................................
.............................. CYCLE   11 ......................................
................................................................................
   1    -50.7350461 -0.507350E+02  0.169E-01    8.36       0.0  T
   2    -50.7350564 -0.103244E-04  0.127E-01    8.36       1.0  T
   3    -50.7350643 -0.786048E-05  0.178E-02    8.37       1.1  T
   4    -50.7350657 -0.139716E-05  0.489E-03    8.37       4.0  T
   5    -50.7350657 -0.385503E-07  0.197E-03    8.37      10.0  T
speedup  1.14
cpu  time for SCC    0.00 s
wall time for SCC    0.00 s
speedup  1.07
cpu  time for grad    0.01 s
wall time for grad    0.01 s
 E :    -50.44034007  G :  0.013603    pred/act E change: -0.716D-03 -0.580D-03
Maxdispl :   0.1078   ||displ|| :   0.2279   Lambda : -0.742D-03
Largest |displ|/coords:  0.1078 (  10)  0.0961 (   8)  0.0798 (   7)
................................................................................
.............................. CYCLE   12 ......................................
................................................................................
   1    -50.7336678 -0.507337E+02  0.242E-01    8.43       0.0  T
   2    -50.7336868 -0.189596E-04  0.182E-01    8.43       1.0  T
   3    -50.7336994 -0.126385E-04  0.244E-02    8.43       1.0  T
   4    -50.7337022 -0.282434E-05  0.696E-03    8.44       2.8  T
   5    -50.7337024 -0.121558E-06  0.264E-03    8.44       7.4  T
   6    -50.7337024 -0.428484E-08  0.148E-03    8.44      13.2  T
speedup  0.96
cpu  time for SCC    0.00 s
wall time for SCC    0.01 s
speedup  1.00
cpu  time for grad    0.01 s
wall time for grad    0.01 s
 E :    -50.44070512  G :  0.020548    pred/act E change: -0.472D-03 -0.365D-03
Maxdispl :   0.0623   ||displ|| :   0.1602   Lambda : -0.486D-03
Largest |displ|/coords:  0.0623 (  10)  0.0577 (   6)  0.0503 (  17)
................................................................................
.............................. CYCLE   13 ......................................
................................................................................
   1    -50.7335187 -0.507335E+02  0.107E-01    8.42       0.0  T
   2    -50.7335223 -0.356590E-05  0.802E-02    8.42       1.0  T
   3    -50.7335255 -0.326713E-05  0.116E-02    8.43       1.7  T
   4    -50.7335259 -0.391938E-06  0.381E-03    8.43       5.1  T
   5    -50.7335259 -0.208416E-07  0.130E-03    8.42      15.0  T
speedup  1.14
cpu  time for SCC    0.00 s
wall time for SCC    0.00 s
speedup  1.07
cpu  time for grad    0.01 s
wall time for grad    0.01 s
 E :    -50.44107913  G :  0.017179    pred/act E change: -0.390D-03 -0.374D-03
Maxdispl :   0.2139   ||displ|| :   0.4638   Lambda : -0.136D-02
Largest |displ|/coords:  0.2139 (   5)  0.1712 (   7)  0.1629 (  17)
................................................................................
.............................. CYCLE   14 ......................................
................................................................................
   1    -50.7333411 -0.507333E+02  0.324E-01    8.31       0.0  T
   2    -50.7333593 -0.181746E-04  0.243E-01    8.32       1.0  T
   3    -50.7333747 -0.154015E-04  0.285E-02    8.34       1.0  T
   4    -50.7333767 -0.196329E-05  0.895E-03    8.34       2.2  T
   5    -50.7333768 -0.113643E-06  0.322E-03    8.34       6.1  T
   6    -50.7333768 -0.111870E-07  0.182E-03    8.34      10.8  T
   7    -50.7333768 -0.583209E-08  0.511E-04    8.34      38.4  T
speedup  0.98
cpu  time for SCC    0.01 s
wall time for SCC    0.01 s
speedup  1.01
cpu  time for grad    0.01 s
wall time for grad    0.01 s
 E :    -50.44161984  G :  0.024914    pred/act E change: -0.249D-03 -0.541D-03
Maxdispl :   0.0995   ||displ|| :   0.2187   Lambda : -0.965D-03
Largest |displ|/coords:  0.0995 (   8)  0.0834 (   1)  0.0767 (   6)
................................................................................
.............................. CYCLE   15 ......................................
................................................................................
   1    -50.7385834 -0.507386E+02  0.151E-01    8.38       0.0  T
   2    -50.7385925 -0.907392E-05  0.113E-01    8.38       1.0  T
   3    -50.7386006 -0.809142E-05  0.186E-02    8.39       1.1  T
   4    -50.7386016 -0.100668E-05  0.685E-03    8.39       2.9  T
   5    -50.7386017 -0.704223E-07  0.216E-03    8.39       9.1  T
   6    -50.7386017 -0.462549E-08  0.124E-03    8.39      15.8  T
speedup  1.13
cpu  time for SCC    0.01 s
wall time for SCC    0.01 s
speedup  0.99
cpu  time for grad    0.01 s
wall time for grad    0.01 s
 E :    -50.44207821  G :  0.012215    pred/act E change: -0.826D-03 -0.458D-03
Maxdispl :   0.1570   ||displ|| :   0.3560   Lambda : -0.820D-03
Largest |displ|/coords:  0.1570 (  10)  0.1328 (   8)  0.1271 (   7)
................................................................................
.............................. CYCLE   16 ......................................
................................................................................
   1    -50.7290666 -0.507291E+02  0.327E-01    8.43       0.0  T
   2    -50.7291060 -0.394478E-04  0.245E-01    8.44       1.0  T
   3    -50.7291298 -0.237634E-04  0.369E-02    8.45       1.0  T
   4    -50.7291355 -0.576977E-05  0.912E-03    8.45       2.2  T
   5    -50.7291357 -0.209435E-06  0.404E-03    8.45       4.9  T
   6    -50.7291358 -0.134706E-07  0.230E-03    8.45       8.5  T
   7    -50.7291358 -0.908315E-08  0.491E-04    8.45      40.0  T
speedup  0.98
cpu  time for SCC    0.01 s
wall time for SCC    0.01 s
speedup  1.00
cpu  time for grad    0.01 s
wall time for grad    0.01 s
 E :    -50.44193294  G :  0.030695    pred/act E change: -0.506D-03  0.145D-03
Maxdispl :   0.0761   ||displ|| :   0.1534   Lambda : -0.121D-02
Largest |displ|/coords:  0.0761 (  10)  0.0674 (   1)  0.0662 (   5)
................................................................................
.............................. CYCLE   17 ......................................
................................................................................
   1    -50.7369667 -0.507370E+02  0.160E-01    8.42       0.0  T
   2    -50.7369832 -0.164891E-04  0.119E-01    8.42       1.0  T
   3    -50.7369944 -0.111674E-04  0.228E-02    8.41       1.0  T
   4    -50.7369965 -0.207591E-05  0.580E-03    8.41       3.4  T
   5    -50.7369965 -0.573022E-07  0.268E-03    8.41       7.3  T
speedup  1.09
cpu  time for SCC    0.00 s
wall time for SCC    0.00 s
speedup  1.05
cpu  time for grad    0.01 s
wall time for grad    0.01 s
 E :    -50.44246589  G :  0.011681    pred/act E change: -0.462D-03 -0.533D-03
Maxdispl :   0.0654   ||displ|| :   0.1651   Lambda : -0.470D-03
Largest |displ|/coords:  0.0654 (   2)  0.0515 (  13)  0.0484 (   9)
................................................................................
.............................. CYCLE   18 ......................................
................................................................................
   1    -50.7365192 -0.507365E+02  0.165E-01    8.40       0.0  T
   2    -50.7365345 -0.153291E-04  0.123E-01    8.40       1.0  T
   3    -50.7365445 -0.100081E-04  0.221E-02    8.39       1.0  T
   4    -50.7365466 -0.206617E-05  0.545E-03    8.39       3.6  T
   5    -50.7365466 -0.496941E-07  0.245E-03    8.39       8.0  T
   6    -50.7365466 -0.551986E-08  0.118E-03    8.39      16.6  T
speedup  0.93
cpu  time for SCC    0.01 s
wall time for SCC    0.01 s
speedup  0.98
cpu  time for grad    0.01 s
wall time for grad    0.01 s
 E :    -50.44231956  G :  0.023557    pred/act E change: -0.621D-03  0.146D-03
Maxdispl :   0.0304   ||displ|| :   0.0966   Lambda : -0.718D-03
Largest |displ|/coords:  0.0304 (   2)  0.0294 (   8)  0.0254 (  16)
................................................................................
.............................. CYCLE   19 ......................................
................................................................................
   1    -50.7380271 -0.507380E+02  0.113E-01    8.40       0.0  T
   2    -50.7380350 -0.788486E-05  0.845E-02    8.40       1.0  T
   3    -50.7380404 -0.541751E-05  0.160E-02    8.41       1.2  T
   4    -50.7380415 -0.100896E-05  0.364E-03    8.41       5.4  T
   5    -50.7380415 -0.212743E-07  0.178E-03    8.41      11.0  T
speedup  0.89
cpu  time for SCC    0.00 s
wall time for SCC    0.00 s
speedup  0.98
cpu  time for grad    0.01 s
wall time for grad    0.01 s
 E :    -50.44270578  G :  0.008204    pred/act E change: -0.241D-03 -0.386D-03
Maxdispl :   0.0610   ||displ|| :   0.1211   Lambda : -0.235D-03
Largest |displ|/coords:  0.0610 (   2)  0.0314 (   7)  0.0294 (  31)
................................................................................
.............................. CYCLE   20 ......................................
................................................................................
   1    -50.7353087 -0.507353E+02  0.115E-01    8.43       0.0  T
   2    -50.7353145 -0.581659E-05  0.853E-02    8.44       1.0  T
   3    -50.7353181 -0.361717E-05  0.150E-02    8.45       1.3  T
   4    -50.7353189 -0.747539E-06  0.422E-03    8.45       4.7  T
   5    -50.7353189 -0.388145E-07  0.154E-03    8.45      12.8  T
   6    -50.7353189 -0.238219E-08  0.825E-04    8.45      23.8  T
speedup  0.96
cpu  time for SCC    0.01 s
wall time for SCC    0.01 s
speedup  0.99
cpu  time for grad    0.01 s
wall time for grad    0.01 s
 E :    -50.44275316  G :  0.009918    pred/act E change: -0.362D-03 -0.474D-04
Maxdispl :   0.1225   ||displ|| :   0.1674   Lambda : -0.308D-03
Largest |displ|/coords:  0.1225 (   2)  0.0476 (   3)  0.0423 (   6)
................................................................................
.............................. CYCLE   21 ......................................
................................................................................
   1    -50.7369822 -0.507370E+02  0.119E-01    8.47       0.0  T
   2    -50.7369847 -0.243805E-05  0.888E-02    8.46       1.0  T
   3    -50.7369867 -0.199938E-05  0.108E-02    8.46       1.8  T
   4    -50.7369869 -0.273973E-06  0.283E-03    8.46       6.9  T
   5    -50.7369870 -0.106706E-07  0.120E-03    8.46      16.4  T
speedup  1.14
cpu  time for SCC    0.00 s
wall time for SCC    0.00 s
speedup  1.07
cpu  time for grad    0.01 s
wall time for grad    0.01 s
 E :    -50.44294701  G :  0.012576    pred/act E change: -0.119D-03 -0.194D-03
Maxdispl :   0.1485   ||displ|| :   0.2405   Lambda : -0.399D-03
Largest |displ|/coords:  0.1485 (   2)  0.0829 (   9)  0.0799 (   6)
................................................................................
.............................. CYCLE   22 ......................................
................................................................................
   1    -50.7399180 -0.507399E+02  0.144E-01    8.48       0.0  T
   2    -50.7399240 -0.603569E-05  0.106E-01    8.48       1.0  T
   3    -50.7399283 -0.429866E-05  0.148E-02    8.47       1.3  T
   4    -50.7399290 -0.634677E-06  0.353E-03    8.47       5.6  T
   5    -50.7399290 -0.175867E-07  0.161E-03    8.47      12.1  T
   6    -50.7399290 -0.367309E-08  0.695E-04    8.47      28.2  T
speedup  0.96
cpu  time for SCC    0.01 s
wall time for SCC    0.01 s
speedup  0.99
cpu  time for grad    0.01 s
wall time for grad    0.01 s
 E :    -50.44306669  G :  0.012053    pred/act E change: -0.158D-03 -0.120D-03
Maxdispl :   0.1709   ||displ|| :   0.2258   Lambda : -0.396D-03
Largest |displ|/coords:  0.1709 (   2)  0.0527 (   7)  0.0474 (  13)
................................................................................
.............................. CYCLE   23 ......................................
................................................................................
   1    -50.7386862 -0.507387E+02  0.159E-01    8.45       0.0  T
   2    -50.7386907 -0.445924E-05  0.119E-01    8.45       1.0  T
   3    -50.7386945 -0.379508E-05  0.134E-02    8.46       1.5  T
   4    -50.7386950 -0.524549E-06  0.449E-03    8.46       4.4  T
   5    -50.7386950 -0.218364E-07  0.154E-03    8.46      12.7  T
   6    -50.7386950 -0.179231E-08  0.801E-04    8.46      24.5  T
speedup  0.94
cpu  time for SCC    0.00 s
wall time for SCC    0.01 s
speedup  0.99
cpu  time for grad    0.01 s
wall time for grad    0.01 s
 E :    -50.44329417  G :  0.013982    pred/act E change: -0.211D-03 -0.227D-03
Maxdispl :   0.1448   ||displ|| :   0.2390   Lambda : -0.377D-03
Largest |displ|/coords:  0.1448 (   2)  0.0873 (   5)  0.0857 (   4)
................................................................................
.............................. CYCLE   24 ......................................
................................................................................
   1    -50.7389207 -0.507389E+02  0.121E-01    8.50       0.0  T
   2    -50.7389246 -0.384776E-05  0.902E-02    8.50       1.0  T
   3    -50.7389272 -0.259500E-05  0.118E-02    8.50       1.7  T
   4    -50.7389277 -0.525801E-06  0.359E-03    8.50       5.5  T
   5    -50.7389277 -0.202781E-07  0.135E-03    8.50      14.5  T
   6    -50.7389277 -0.227494E-08  0.739E-04    8.50      26.5  T
speedup  0.93
cpu  time for SCC    0.00 s
wall time for SCC    0.01 s
speedup  0.98
cpu  time for grad    0.01 s
wall time for grad    0.01 s
 E :    -50.44345568  G :  0.014091    pred/act E change: -0.208D-03 -0.162D-03
Maxdispl :   0.1887   ||displ|| :   0.2886   Lambda : -0.472D-03
Largest |displ|/coords:  0.1887 (   2)  0.0944 (   7)  0.0771 (   9)
................................................................................
.............................. CYCLE   25 ......................................
................................................................................
   1    -50.7355043 -0.507355E+02  0.200E-01    8.51       0.0  T
   2    -50.7355174 -0.130825E-04  0.149E-01    8.51       1.0  T
   3    -50.7355266 -0.922675E-05  0.217E-02    8.51       1.0  T
   4    -50.7355282 -0.166887E-05  0.725E-03    8.51       2.7  T
   5    -50.7355284 -0.103841E-06  0.278E-03    8.51       7.1  T
   6    -50.7355284 -0.837053E-08  0.150E-03    8.51      13.1  T
speedup  0.96
cpu  time for SCC    0.00 s
wall time for SCC    0.01 s
speedup  1.00
cpu  time for grad    0.01 s
wall time for grad    0.01 s
 E :    -50.44361938  G :  0.020376    pred/act E change: -0.199D-03 -0.164D-03
Maxdispl :   0.0660   ||displ|| :   0.1347   Lambda : -0.496D-03
Largest |displ|/coords:  0.0660 (   5)  0.0626 (   2)  0.0425 (   4)

generating ANC from model Hessian ...
 Shifting diagonal of input Hessian by   4.924287965427844E-003
 Lowest  eigenvalues of input Hessian
   -0.000000   -0.000000   -0.000000    0.000000    0.000000    0.000000
    0.005000    0.005191    0.005463    0.005925    0.006105    0.006772
    0.007151    0.007568    0.007780    0.008285    0.009192    0.009481
 Highest eigenvalues
    1.412946    1.417787    1.420901    2.499599    3.218398    3.884073
 
cpu  time for ANC gen    0.02 s
wall time for ANC gen    0.02 s
................................................................................
.............................. CYCLE   26 ......................................
................................................................................
   1    -50.7355008 -0.507355E+02  0.957E-02    8.48       0.0  T
   2    -50.7355046 -0.378600E-05  0.701E-02    8.48       1.0  T
   3    -50.7355072 -0.265207E-05  0.136E-02    8.48       1.4  T
   4    -50.7355076 -0.392591E-06  0.350E-03    8.48       5.6  T
   5    -50.7355076 -0.206978E-07  0.128E-03    8.48      15.3  T
   6    -50.7355076 -0.205233E-08  0.700E-04    8.48      28.0  T
   7    -50.7355076 -0.821977E-09  0.199E-04    8.48      98.3  T
speedup  0.98
cpu  time for SCC    0.01 s
wall time for SCC    0.01 s
speedup  0.96
cpu  time for grad    0.01 s
wall time for grad    0.01 s
 E :    -50.44394899  G :  0.011401    pred/act E change:  0.000D+00 -0.330D-03
Maxdispl :   0.1058   ||displ|| :   0.1922   Lambda : -0.496D-03
Largest |displ|/coords:  0.1058 (   3)  0.0753 (   9)  0.0665 (   8)
................................................................................
.............................. CYCLE   27 ......................................
................................................................................
   1    -50.7364813 -0.507365E+02  0.164E-01    8.49       0.0  T
   2    -50.7364852 -0.386464E-05  0.124E-01    8.49       1.0  T
   3    -50.7364896 -0.443228E-05  0.109E-02    8.49       1.8  T
   4    -50.7364899 -0.328784E-06  0.386E-03    8.49       5.1  T
   5    -50.7364900 -0.168006E-07  0.152E-03    8.49      12.9  T
   6    -50.7364900 -0.286792E-08  0.556E-04    8.49      35.3  T
speedup  0.94
cpu  time for SCC    0.00 s
wall time for SCC    0.01 s
speedup  0.98
cpu  time for grad    0.01 s
wall time for grad    0.01 s
 E :    -50.44431154  G :  0.006758    pred/act E change:  0.000D+00 -0.363D-03
Maxdispl :   0.1581   ||displ|| :   0.3316   Lambda : -0.553D-03
Largest |displ|/coords:  0.1581 (   3)  0.1539 (   2)  0.1017 (   1)
................................................................................
.............................. CYCLE   28 ......................................
................................................................................
   1    -50.7356838 -0.507357E+02  0.253E-01    8.49       0.0  T
   2    -50.7356926 -0.875983E-05  0.191E-01    8.48       1.0  T
   3    -50.7357030 -0.103477E-04  0.169E-02    8.47       1.2  T
   4    -50.7357036 -0.662266E-06  0.588E-03    8.47       3.3  T
   5    -50.7357037 -0.417184E-07  0.258E-03    8.47       7.6  T
   6    -50.7357037 -0.103563E-07  0.100E-03    8.47      19.6  T
speedup  1.15
cpu  time for SCC    0.01 s
wall time for SCC    0.01 s
speedup  1.07
cpu  time for grad    0.01 s
wall time for grad    0.01 s
 E :    -50.44466123  G :  0.013084    pred/act E change: -0.257D-03 -0.350D-03
Maxdispl :   0.1025   ||displ|| :   0.2006   Lambda : -0.320D-03
Largest |displ|/coords:  0.1025 (   2)  0.0974 (   3)  0.0701 (   1)
................................................................................
.............................. CYCLE   29 ......................................
................................................................................
   1    -50.7367232 -0.507367E+02  0.112E-01    8.47       0.0  T
   2    -50.7367249 -0.172235E-05  0.844E-02    8.47       1.0  T
   3    -50.7367268 -0.185040E-05  0.904E-03    8.47       2.2  T
   4    -50.7367269 -0.165458E-06  0.292E-03    8.47       6.7  T
   5    -50.7367269 -0.111592E-07  0.103E-03    8.47      19.1  T
speedup  0.89
cpu  time for SCC    0.00 s
wall time for SCC    0.00 s
speedup  1.03
cpu  time for grad    0.01 s
wall time for grad    0.01 s
 E :    -50.44491570  G :  0.009240    pred/act E change: -0.307D-03 -0.254D-03
Maxdispl :   0.2414   ||displ|| :   0.4213   Lambda : -0.491D-03
Largest |displ|/coords:  0.2414 (   3)  0.1645 (   2)  0.1514 (   8)
................................................................................
.............................. CYCLE   30 ......................................
................................................................................
   1    -50.7350923 -0.507351E+02  0.232E-01    8.46       0.0  T
   2    -50.7351023 -0.999217E-05  0.175E-01    8.46       1.0  T
   3    -50.7351147 -0.124876E-04  0.190E-02    8.46       1.0  T
   4    -50.7351154 -0.691733E-06  0.633E-03    8.46       3.1  T
   5    -50.7351155 -0.600548E-07  0.275E-03    8.46       7.1  T
   6    -50.7351155 -0.131179E-07  0.130E-03    8.46      15.1  T
speedup  1.15
cpu  time for SCC    0.01 s
wall time for SCC    0.01 s
speedup  1.05
cpu  time for grad    0.01 s
wall time for grad    0.01 s
 E :    -50.44520551  G :  0.013732    pred/act E change: -0.166D-03 -0.290D-03
Maxdispl :   0.2140   ||displ|| :   0.3353   Lambda : -0.648D-03
Largest |displ|/coords:  0.2140 (   3)  0.1743 (   2)  0.0983 (   1)
................................................................................
.............................. CYCLE   31 ......................................
................................................................................
   1    -50.7374426 -0.507374E+02  0.159E-01    8.45       0.0  T
   2    -50.7374513 -0.871377E-05  0.119E-01    8.46       1.0  T
   3    -50.7374592 -0.788922E-05  0.185E-02    8.47       1.1  T
   4    -50.7374601 -0.909082E-06  0.630E-03    8.47       3.1  T
   5    -50.7374602 -0.627234E-07  0.215E-03    8.47       9.1  T
   6    -50.7374602 -0.563257E-08  0.124E-03    8.47      15.8  T
speedup  0.93
cpu  time for SCC    0.01 s
wall time for SCC    0.01 s
speedup  0.98
cpu  time for grad    0.01 s
wall time for grad    0.01 s
 E :    -50.44531043  G :  0.017920    pred/act E change: -0.289D-03 -0.105D-03
Maxdispl :   0.1685   ||displ|| :   0.2999   Lambda : -0.568D-03
Largest |displ|/coords:  0.1685 (   3)  0.1638 (   2)  0.0960 (   1)
................................................................................
.............................. CYCLE   32 ......................................
................................................................................
   1    -50.7326798 -0.507327E+02  0.177E-01    8.45       0.0  T
   2    -50.7326892 -0.944614E-05  0.134E-01    8.45       1.0  T
   3    -50.7326997 -0.104582E-04  0.164E-02    8.44       1.2  T
   4    -50.7327006 -0.901282E-06  0.634E-03    8.44       3.1  T
   5    -50.7327006 -0.466341E-07  0.260E-03    8.44       7.5  T
   6    -50.7327006 -0.105205E-07  0.119E-03    8.44      16.5  T
speedup  0.96
cpu  time for SCC    0.00 s
wall time for SCC    0.01 s
speedup  0.98
cpu  time for grad    0.01 s
wall time for grad    0.01 s
 E :    -50.44557712  G :  0.014822    pred/act E change: -0.360D-03 -0.267D-03
Maxdispl :   0.0896   ||displ|| :   0.1979   Lambda : -0.611D-03
Largest |displ|/coords:  0.0896 (  11)  0.0652 (   4)  0.0635 (   3)
................................................................................
.............................. CYCLE   33 ......................................
................................................................................
   1    -50.7376966 -0.507377E+02  0.186E-01    8.48       0.0  T
   2    -50.7377238 -0.271360E-04  0.139E-01    8.48       1.0  T
   3    -50.7377440 -0.201875E-04  0.293E-02    8.47       1.0  T
   4    -50.7377472 -0.319456E-05  0.694E-03    8.47       2.8  T
   5    -50.7377472 -0.541712E-07  0.348E-03    8.47       5.6  T
   6    -50.7377472 -0.821638E-08  0.139E-03    8.47      14.1  T
   7    -50.7377472 -0.338911E-08  0.303E-04    8.47      64.7  T
speedup  1.13
cpu  time for SCC    0.01 s
wall time for SCC    0.01 s
speedup  1.06
cpu  time for grad    0.01 s
wall time for grad    0.01 s
 E :    -50.44482323  G :  0.040072    pred/act E change: -0.309D-03  0.754D-03
Maxdispl :   0.0686   ||displ|| :   0.1476   Lambda : -0.168D-02
Largest |displ|/coords:  0.0686 (   3)  0.0549 (   4)  0.0493 (   1)
................................................................................
.............................. CYCLE   34 ......................................
................................................................................
   1    -50.7366281 -0.507366E+02  0.143E-01    8.47       0.0  T
   2    -50.7366426 -0.145104E-04  0.107E-01    8.48       1.0  T
   3    -50.7366540 -0.113400E-04  0.213E-02    8.48       1.0  T
   4    -50.7366557 -0.174912E-05  0.607E-03    8.48       3.2  T
   5    -50.7366558 -0.565633E-07  0.263E-03    8.48       7.4  T
   6    -50.7366558 -0.646699E-08  0.124E-03    8.48      15.8  T
speedup  0.96
cpu  time for SCC    0.00 s
wall time for SCC    0.01 s
speedup  0.99
cpu  time for grad    0.01 s
wall time for grad    0.01 s
 E :    -50.44575518  G :  0.004949    pred/act E change: -0.317D-03 -0.932D-03
Maxdispl :   0.2462   ||displ|| :   0.3474   Lambda : -0.231D-03
Largest |displ|/coords:  0.2462 (   3)  0.1780 (   2)  0.0864 (   1)
................................................................................
.............................. CYCLE   35 ......................................
................................................................................
   1    -50.7323526 -0.507324E+02  0.181E-01    8.46       0.0  T
   2    -50.7323603 -0.767476E-05  0.136E-01    8.46       1.0  T
   3    -50.7323694 -0.910553E-05  0.155E-02    8.45       1.3  T
   4    -50.7323701 -0.645951E-06  0.518E-03    8.45       3.8  T
   5    -50.7323701 -0.343789E-07  0.251E-03    8.45       7.8  T
   6    -50.7323701 -0.109115E-07  0.112E-03    8.46      17.5  T
speedup  0.94
cpu  time for SCC    0.00 s
wall time for SCC    0.01 s
speedup  0.98
cpu  time for grad    0.01 s
wall time for grad    0.01 s
 E :    -50.44581515  G :  0.015561    pred/act E change: -0.857D-03 -0.600D-04
Maxdispl :   0.0294   ||displ|| :   0.0603   Lambda : -0.205D-03
Largest |displ|/coords:  0.0294 (   1)  0.0269 (  11)  0.0230 (  10)
................................................................................
.............................. CYCLE   36 ......................................
................................................................................
   1    -50.7352770 -0.507353E+02  0.390E-02    8.48       0.0  T
   2    -50.7352788 -0.180007E-05  0.282E-02    8.48       1.0  T
   3    -50.7352798 -0.103984E-05  0.797E-03    8.49       2.5  T
   4    -50.7352800 -0.152521E-06  0.216E-03    8.49       9.1  T
   5    -50.7352800 -0.872993E-08  0.772E-04    8.49      25.4  T
speedup  1.09
cpu  time for SCC    0.00 s
wall time for SCC    0.00 s
speedup  1.03
cpu  time for grad    0.01 s
wall time for grad    0.01 s
 E :    -50.44595845  G :  0.007454    pred/act E change: -0.129D-03 -0.143D-03
Maxdispl :   0.1969   ||displ|| :   0.2922   Lambda : -0.243D-03
Largest |displ|/coords:  0.1969 (   3)  0.1497 (   2)  0.0678 (  11)
................................................................................
.............................. CYCLE   37 ......................................
................................................................................
   1    -50.7369516 -0.507370E+02  0.122E-01    8.52       0.0  T
   2    -50.7369565 -0.485732E-05  0.918E-02    8.52       1.0  T
   3    -50.7369600 -0.348234E-05  0.142E-02    8.52       1.4  T
   4    -50.7369606 -0.690276E-06  0.514E-03    8.52       3.8  T
   5    -50.7369607 -0.359731E-07  0.146E-03    8.52      13.4  T
   6    -50.7369607 -0.271818E-08  0.916E-04    8.52      21.4  T
speedup  1.13
cpu  time for SCC    0.01 s
wall time for SCC    0.01 s
speedup  0.98
cpu  time for grad    0.01 s
wall time for grad    0.01 s
 E :    -50.44614082  G :  0.003245    pred/act E change: -0.103D-03 -0.182D-03
Maxdispl :   0.3565   ||displ|| :   0.4968   Lambda : -0.261D-03
Largest |displ|/coords:  0.3565 (   3)  0.2598 (   2)  0.0793 (  12)
................................................................................
.............................. CYCLE   38 ......................................
................................................................................
   1    -50.7357604 -0.507358E+02  0.221E-01    8.51       0.0  T
   2    -50.7357692 -0.881838E-05  0.166E-01    8.51       1.0  T
   3    -50.7357794 -0.101353E-04  0.191E-02    8.51       1.0  T
   4    -50.7357801 -0.737169E-06  0.768E-03    8.51       2.6  T
   5    -50.7357802 -0.773068E-07  0.260E-03    8.51       7.5  T
   6    -50.7357802 -0.933960E-08  0.163E-03    8.51      12.0  T
   7    -50.7357802 -0.455882E-08  0.315E-04    8.51      62.3  T
   8    -50.7357802 -0.449823E-09  0.166E-04    8.51     118.1  T
speedup  1.00
cpu  time for SCC    0.01 s
wall time for SCC    0.01 s
speedup  1.03
cpu  time for grad    0.02 s
wall time for grad    0.02 s
 E :    -50.44628313  G :  0.007472    pred/act E change: -0.132D-03 -0.142D-03
Maxdispl :   0.0666   ||displ|| :   0.1058   Lambda : -0.121D-03
Largest |displ|/coords:  0.0666 (   3)  0.0357 (  24)  0.0306 (   4)
................................................................................
.............................. CYCLE   39 ......................................
................................................................................
   1    -50.7369988 -0.507370E+02  0.586E-02    8.53       0.0  T
   2    -50.7369999 -0.109721E-05  0.441E-02    8.53       1.0  T
   3    -50.7370007 -0.839468E-06  0.644E-03    8.52       3.0  T
   4    -50.7370009 -0.138475E-06  0.213E-03    8.52       9.2  T
   5    -50.7370009 -0.665175E-08  0.662E-04    8.52      29.6  T
speedup  1.14
cpu  time for SCC    0.00 s
wall time for SCC    0.00 s
speedup  1.05
cpu  time for grad    0.01 s
wall time for grad    0.01 s
 E :    -50.44633567  G :  0.007957    pred/act E change: -0.163D-03 -0.525D-04
Maxdispl :   0.0275   ||displ|| :   0.0872   Lambda : -0.147D-03
Largest |displ|/coords:  0.0275 (  23)  0.0267 (   8)  0.0261 (   2)
................................................................................
.............................. CYCLE   40 ......................................
................................................................................
   1    -50.7386259 -0.507386E+02  0.593E-02    8.54       0.0  T
   2    -50.7386278 -0.183110E-05  0.442E-02    8.54       1.0  T
   3    -50.7386288 -0.108634E-05  0.809E-03    8.54       2.4  T
   4    -50.7386291 -0.219023E-06  0.262E-03    8.54       7.5  T
   5    -50.7386291 -0.143033E-07  0.819E-04    8.54      23.9  T
speedup  1.14
cpu  time for SCC    0.00 s
wall time for SCC    0.00 s
speedup  1.05
cpu  time for grad    0.01 s
wall time for grad    0.01 s
 E :    -50.44637422  G :  0.007250    pred/act E change: -0.610D-04 -0.386D-04
Maxdispl :   0.0697   ||displ|| :   0.1075   Lambda : -0.124D-03
Largest |displ|/coords:  0.0697 (   3)  0.0334 (   5)  0.0329 (   2)
................................................................................
.............................. CYCLE   41 ......................................
................................................................................
   1    -50.7378975 -0.507379E+02  0.762E-02    8.52       0.0  T
   2    -50.7378987 -0.123194E-05  0.574E-02    8.52       1.0  T
   3    -50.7379002 -0.145186E-05  0.666E-03    8.52       2.9  T
   4    -50.7379003 -0.934926E-07  0.213E-03    8.52       9.2  T
   5    -50.7379003 -0.712088E-08  0.939E-04    8.52      20.9  T
speedup  1.11
cpu  time for SCC    0.00 s
wall time for SCC    0.00 s
speedup  1.04
cpu  time for grad    0.01 s
wall time for grad    0.01 s
 E :    -50.44645307  G :  0.004246    pred/act E change: -0.741D-04 -0.788D-04
Maxdispl :   0.0362   ||displ|| :   0.0823   Lambda : -0.771D-04
Largest |displ|/coords:  0.0362 (   5)  0.0307 (  11)  0.0233 (   8)
................................................................................
.............................. CYCLE   42 ......................................
................................................................................
   1    -50.7379326 -0.507379E+02  0.555E-02    8.52       0.0  T
   2    -50.7379333 -0.720628E-06  0.417E-02    8.52       1.0  T
   3    -50.7379339 -0.604126E-06  0.507E-03    8.52       3.9  T
   4    -50.7379340 -0.948120E-07  0.191E-03    8.52      10.3  T
   5    -50.7379340 -0.426053E-08  0.632E-04    8.52      31.0  T
speedup  0.89
cpu  time for SCC    0.00 s
wall time for SCC    0.00 s
speedup  0.97
cpu  time for grad    0.01 s
wall time for grad    0.01 s
 E :    -50.44650170  G :  0.006703    pred/act E change: -0.625D-04 -0.486D-04
Maxdispl :   0.0611   ||displ|| :   0.1303   Lambda : -0.885D-04
Largest |displ|/coords:  0.0611 (   5)  0.0594 (   3)  0.0399 (  11)
................................................................................
.............................. CYCLE   43 ......................................
................................................................................
   1    -50.7371945 -0.507372E+02  0.831E-02    8.51       0.0  T
   2    -50.7371955 -0.100320E-05  0.625E-02    8.51       1.0  T
   3    -50.7371966 -0.109027E-05  0.614E-03    8.51       3.2  T
   4    -50.7371967 -0.927237E-07  0.255E-03    8.51       7.7  T
   5    -50.7371967 -0.766269E-08  0.790E-04    8.51      24.8  T
speedup  1.11
cpu  time for SCC    0.01 s
wall time for SCC    0.00 s
speedup  1.04
cpu  time for grad    0.01 s
wall time for grad    0.01 s
 E :    -50.44655065  G :  0.007438    pred/act E change: -0.388D-04 -0.490D-04
Maxdispl :   0.0720   ||displ|| :   0.1118   Lambda : -0.789D-04
Largest |displ|/coords:  0.0720 (   2)  0.0348 (   8)  0.0342 (  11)
................................................................................
.............................. CYCLE   44 ......................................
................................................................................
   1    -50.7384876 -0.507385E+02  0.410E-02    8.51       0.0  T
   2    -50.7384881 -0.521638E-06  0.307E-02    8.51       1.0  T
   3    -50.7384884 -0.323911E-06  0.433E-03    8.51       4.5  T
   4    -50.7384885 -0.778917E-07  0.168E-03    8.51      11.6  T
   5    -50.7384885 -0.420826E-08  0.466E-04    8.51      42.1  T
speedup  1.11
cpu  time for SCC    0.00 s
wall time for SCC    0.00 s
speedup  1.04
cpu  time for grad    0.01 s
wall time for grad    0.01 s
 E :    -50.44659483  G :  0.003285    pred/act E change: -0.450D-04 -0.442D-04
Maxdispl :   0.1340   ||displ|| :   0.1803   Lambda : -0.772D-04
Largest |displ|/coords:  0.1340 (   3)  0.0502 (   5)  0.0411 (  25)
................................................................................
.............................. CYCLE   45 ......................................
................................................................................
   1    -50.7373015 -0.507373E+02  0.116E-01    8.50       0.0  T
   2    -50.7373046 -0.310039E-05  0.874E-02    8.50       1.0  T
   3    -50.7373071 -0.246993E-05  0.102E-02    8.50       1.9  T
   4    -50.7373075 -0.447994E-06  0.352E-03    8.50       5.6  T
   5    -50.7373076 -0.211353E-07  0.139E-03    8.50      14.1  T
   6    -50.7373076 -0.232340E-08  0.750E-04    8.50      26.1  T
   7    -50.7373076 -0.155605E-08  0.177E-04    8.50     110.5  T
speedup  0.97
cpu  time for SCC    0.01 s
wall time for SCC    0.01 s
speedup  0.95
cpu  time for grad    0.01 s
wall time for grad    0.01 s
 E :    -50.44660529  G :  0.007128    pred/act E change: -0.399D-04 -0.105D-04
Maxdispl :   0.0330   ||displ|| :   0.0476   Lambda : -0.709D-04
Largest |displ|/coords:  0.0330 (   3)  0.0163 (   2)  0.0129 (   5)
................................................................................
.............................. CYCLE   46 ......................................
................................................................................
   1    -50.7382776 -0.507383E+02  0.306E-02    8.50       0.0  T
   2    -50.7382781 -0.469895E-06  0.228E-02    8.50       1.0  T
   3    -50.7382784 -0.313382E-06  0.428E-03    8.50       4.6  T
   4    -50.7382784 -0.589582E-07  0.130E-03    8.50      15.1  T
   5    -50.7382784 -0.282955E-08  0.500E-04    8.50      39.2  T
speedup  0.91
cpu  time for SCC    0.00 s
wall time for SCC    0.00 s
speedup  0.97
cpu  time for grad    0.01 s
wall time for grad    0.01 s
 E :    -50.44664249  G :  0.001983    pred/act E change: -0.399D-04 -0.372D-04
Maxdispl :   0.0197   ||displ|| :   0.0396   Lambda : -0.153D-04
Largest |displ|/coords:  0.0197 (   3)  0.0172 (  11)  0.0101 (   2)
................................................................................
.............................. CYCLE   47 ......................................
................................................................................
   1    -50.7381787 -0.507382E+02  0.290E-02    8.49       0.0  T
   2    -50.7381789 -0.191762E-06  0.218E-02    8.49       1.0  T
   3    -50.7381790 -0.164917E-06  0.319E-03    8.49       6.2  T
   4    -50.7381790 -0.254388E-07  0.102E-03    8.49      19.2  T
   5    -50.7381790 -0.151032E-08  0.323E-04    8.49      60.8  T
   6    -50.7381790 -0.169997E-09  0.195E-04    8.49     100.5  T
speedup  0.94
cpu  time for SCC    0.00 s
wall time for SCC    0.01 s
speedup  1.01
cpu  time for grad    0.01 s
wall time for grad    0.01 s
 E :    -50.44665279  G :  0.001967    pred/act E change: -0.355D-04 -0.103D-04
Maxdispl :   0.0250   ||displ|| :   0.0563   Lambda : -0.168D-04
Largest |displ|/coords:  0.0250 (  11)  0.0217 (   1)  0.0197 (   3)
................................................................................
.............................. CYCLE   48 ......................................
................................................................................
   1    -50.7378762 -0.507379E+02  0.408E-02    8.49       0.0  T
   2    -50.7378765 -0.336133E-06  0.304E-02    8.49       1.0  T
   3    -50.7378768 -0.285225E-06  0.481E-03    8.49       4.1  T
   4    -50.7378768 -0.410005E-07  0.154E-03    8.49      12.7  T
   5    -50.7378768 -0.315710E-08  0.470E-04    8.49      41.7  T
   6    -50.7378768 -0.285134E-09  0.290E-04    8.49      67.6  T
speedup  1.13
cpu  time for SCC    0.01 s
wall time for SCC    0.01 s
speedup  1.01
cpu  time for grad    0.01 s
wall time for grad    0.01 s
 E :    -50.44666254  G :  0.001752    pred/act E change: -0.768D-05 -0.974D-05
Maxdispl :   0.0140   ||displ|| :   0.0279   Lambda : -0.678D-05
Largest |displ|/coords:  0.0140 (   5)  0.0112 (   1)  0.0088 (   3)
................................................................................
.............................. CYCLE   49 ......................................
................................................................................
   1    -50.7376395 -0.507376E+02  0.160E-02    8.48       0.0  T
   2    -50.7376396 -0.624065E-07  0.116E-02    8.48       1.7  T
   3    -50.7376396 -0.433823E-07  0.228E-03    8.49       8.6  T
   4    -50.7376396 -0.610375E-08  0.678E-04    8.49      28.9  T
   5    -50.7376396 -0.777774E-09  0.179E-04    8.49     109.7  T
speedup  0.91
cpu  time for SCC    0.00 s
wall time for SCC    0.00 s
speedup  0.99
cpu  time for grad    0.01 s
wall time for grad    0.01 s
 E :    -50.44666665  G :  0.001660    pred/act E change: -0.842D-05 -0.411D-05
Maxdispl :   0.0145   ||displ|| :   0.0241   Lambda : -0.513D-05
Largest |displ|/coords:  0.0145 (   5)  0.0082 (  13)  0.0077 (  11)
................................................................................
.............................. CYCLE   50 ......................................
................................................................................
   1    -50.7375741 -0.507376E+02  0.132E-02    8.49       0.0  T
   2    -50.7375741 -0.312298E-07  0.960E-03    8.49       2.0  T
   3    -50.7375741 -0.267387E-07  0.152E-03    8.49      12.9  T
   4    -50.7375741 -0.178926E-08  0.408E-04    8.49      48.1  T
   5    -50.7375741 -0.337401E-09  0.108E-04    8.49     181.9  T
speedup  0.91
cpu  time for SCC    0.00 s
wall time for SCC    0.00 s
speedup  1.01
cpu  time for grad    0.01 s
wall time for grad    0.01 s
 E :    -50.44667037  G :  0.001310    pred/act E change: -0.339D-05 -0.372D-05
Maxdispl :   0.0188   ||displ|| :   0.0309   Lambda : -0.518D-05
Largest |displ|/coords:  0.0188 (   5)  0.0120 (  13)  0.0104 (  12)
................................................................................
.............................. CYCLE   51 ......................................
................................................................................
   1    -50.7375783 -0.507376E+02  0.168E-02    8.49       0.0  T
   2    -50.7375784 -0.444293E-07  0.124E-02    8.49       1.6  T
   3    -50.7375784 -0.341767E-07  0.166E-03    8.49      11.8  T
   4    -50.7375784 -0.411624E-08  0.474E-04    8.49      41.4  T
   5    -50.7375784 -0.339021E-09  0.121E-04    8.49     162.4  T
speedup  0.91
cpu  time for SCC    0.00 s
wall time for SCC    0.00 s
speedup  1.00
cpu  time for grad    0.01 s
wall time for grad    0.01 s
 E :    -50.44667393  G :  0.001257    pred/act E change: -0.256D-05 -0.356D-05
Maxdispl :   0.0170   ||displ|| :   0.0276   Lambda : -0.388D-05
Largest |displ|/coords:  0.0170 (   5)  0.0106 (   4)  0.0100 (  12)
................................................................................
.............................. CYCLE   52 ......................................
................................................................................
   1    -50.7375413 -0.507375E+02  0.156E-02    8.50       0.0  T
   2    -50.7375413 -0.395724E-07  0.116E-02    8.50       1.7  T
   3    -50.7375413 -0.315388E-07  0.132E-03    8.50      14.9  T
   4    -50.7375413 -0.447410E-08  0.278E-04    8.50      70.5  T
   5    -50.7375413 -0.144901E-09  0.109E-04    8.50     179.7  T
speedup  1.11
cpu  time for SCC    0.01 s
wall time for SCC    0.00 s
speedup  1.00
cpu  time for grad    0.01 s
wall time for grad    0.01 s
 E :    -50.44667666  G :  0.001261    pred/act E change: -0.259D-05 -0.273D-05
Maxdispl :   0.0173   ||displ|| :   0.0338   Lambda : -0.482D-05
Largest |displ|/coords:  0.0173 (   5)  0.0121 (  11)  0.0116 (  12)

generating ANC from model Hessian ...
 Shifting diagonal of input Hessian by   4.958518261084077E-003
 Lowest  eigenvalues of input Hessian
   -0.000000   -0.000000   -0.000000   -0.000000   -0.000000    0.000000
    0.005000    0.005674    0.006039    0.006176    0.006650    0.006907
    0.007068    0.007745    0.008125    0.009392    0.009534    0.009720
 Highest eigenvalues
    1.398832    1.406825    1.410743    2.534545    3.233266    3.876762
 
cpu  time for ANC gen    0.03 s
wall time for ANC gen    0.03 s
................................................................................
.............................. CYCLE   53 ......................................
................................................................................
   1    -50.7376829 -0.507377E+02  0.216E-02    8.50       0.0  T
   2    -50.7376830 -0.452671E-07  0.162E-02    8.50       1.2  T
   3    -50.7376830 -0.481274E-07  0.135E-03    8.50      14.5  T
   4    -50.7376830 -0.382772E-08  0.496E-04    8.50      39.5  T
   5    -50.7376830 -0.275250E-09  0.158E-04    8.50     124.4  T
speedup  0.89
cpu  time for SCC    0.00 s
wall time for SCC    0.00 s
speedup  1.00
cpu  time for grad    0.01 s
wall time for grad    0.01 s
 E :    -50.44667965  G :  0.001371    pred/act E change:  0.000D+00 -0.299D-05
Maxdispl :   0.0117   ||displ|| :   0.0260   Lambda : -0.966D-05
Largest |displ|/coords:  0.0117 (   2)  0.0105 (   5)  0.0091 (  10)
................................................................................
.............................. CYCLE   54 ......................................
................................................................................
   1    -50.7376265 -0.507376E+02  0.221E-02    8.50       0.0  T
   2    -50.7376266 -0.792189E-07  0.167E-02    8.50       1.2  T
   3    -50.7376267 -0.100575E-06  0.148E-03    8.50      13.3  T
   4    -50.7376267 -0.478887E-08  0.535E-04    8.50      36.7  T
   5    -50.7376267 -0.434291E-09  0.203E-04    8.50      96.5  T
speedup  0.91
cpu  time for SCC    0.00 s
wall time for SCC    0.00 s
speedup  1.01
cpu  time for grad    0.01 s
wall time for grad    0.01 s
 E :    -50.44668702  G :  0.000857    pred/act E change:  0.000D+00 -0.737D-05
Maxdispl :   0.0251   ||displ|| :   0.0594   Lambda : -0.138D-04
Largest |displ|/coords:  0.0251 (   2)  0.0243 (   1)  0.0205 (   5)
................................................................................
.............................. CYCLE   55 ......................................
................................................................................
   1    -50.7374548 -0.507375E+02  0.444E-02    8.50       0.0  T
   2    -50.7374551 -0.266121E-06  0.335E-02    8.50       1.0  T
   3    -50.7374554 -0.300153E-06  0.266E-03    8.50       7.4  T
   4    -50.7374554 -0.232997E-07  0.105E-03    8.50      18.7  T
   5    -50.7374554 -0.138459E-08  0.427E-04    8.50      45.9  T
   6    -50.7374554 -0.319247E-09  0.214E-04    8.50      91.6  T
speedup  0.94
cpu  time for SCC    0.01 s
wall time for SCC    0.01 s
speedup  0.94
cpu  time for grad    0.01 s
wall time for grad    0.01 s
 E :    -50.44669590  G :  0.001266    pred/act E change: -0.483D-05 -0.888D-05
Maxdispl :   0.0235   ||displ|| :   0.0430   Lambda : -0.568D-05
Largest |displ|/coords:  0.0235 (   2)  0.0184 (   1)  0.0121 (   5)
................................................................................
.............................. CYCLE   56 ......................................
................................................................................
   1    -50.7374254 -0.507374E+02  0.290E-02    8.50       0.0  T
   2    -50.7374255 -0.853898E-07  0.218E-02    8.50       1.0  T
   3    -50.7374256 -0.103754E-06  0.153E-03    8.50      12.8  T
   4    -50.7374256 -0.624378E-08  0.685E-04    8.50      28.6  T
   5    -50.7374256 -0.592124E-09  0.256E-04    8.50      76.6  T
speedup  1.14
cpu  time for SCC    0.00 s
wall time for SCC    0.00 s
speedup  1.00
cpu  time for grad    0.01 s
wall time for grad    0.01 s
 E :    -50.44669989  G :  0.001157    pred/act E change: -0.692D-05 -0.399D-05
Maxdispl :   0.0234   ||displ|| :   0.0414   Lambda : -0.412D-05
Largest |displ|/coords:  0.0234 (   2)  0.0228 (   1)  0.0080 (   4)
................................................................................
.............................. CYCLE   57 ......................................
................................................................................
   1    -50.7375140 -0.507375E+02  0.232E-02    8.50       0.0  T
   2    -50.7375141 -0.599008E-07  0.174E-02    8.50       1.1  T
   3    -50.7375141 -0.640178E-07  0.134E-03    8.50      14.6  T
   4    -50.7375142 -0.573727E-08  0.629E-04    8.50      31.2  T
   5    -50.7375142 -0.534463E-09  0.193E-04    8.50     101.7  T
speedup  0.89
cpu  time for SCC    0.00 s
wall time for SCC    0.00 s
speedup  0.99
cpu  time for grad    0.01 s
wall time for grad    0.01 s
 E :    -50.44670242  G :  0.000580    pred/act E change: -0.285D-05 -0.253D-05
Maxdispl :   0.0127   ||displ|| :   0.0197   Lambda : -0.136D-05
Largest |displ|/coords:  0.0127 (   2)  0.0093 (   1)  0.0056 (   3)
................................................................................
.............................. CYCLE   58 ......................................
................................................................................
   1    -50.7376251 -0.507376E+02  0.912E-03    8.50       0.0  T
   2    -50.7376251 -0.138073E-07  0.680E-03    8.50       2.9  T
   3    -50.7376251 -0.989581E-08  0.814E-04    8.50      24.1  T
   4    -50.7376251 -0.202302E-08  0.294E-04    8.50      66.7  T
speedup  0.86
cpu  time for SCC    0.00 s
wall time for SCC    0.00 s
speedup  1.00
cpu  time for grad    0.01 s
wall time for grad    0.01 s
 E :    -50.44670328  G :  0.000393    pred/act E change: -0.207D-05 -0.858D-06
Maxdispl :   0.0116   ||displ|| :   0.0178   Lambda : -0.806D-06
Largest |displ|/coords:  0.0116 (   2)  0.0089 (   1)  0.0056 (   6)
................................................................................
.............................. CYCLE   59 ......................................
................................................................................
   1    -50.7376798 -0.507377E+02  0.748E-03    8.50       0.0  T
   2    -50.7376798 -0.113550E-07  0.558E-03    8.50       3.5  T
   3    -50.7376798 -0.101483E-07  0.747E-04    8.50      26.2  T
   4    -50.7376798 -0.135289E-08  0.302E-04    8.50      65.0  T
speedup  0.86
cpu  time for SCC    0.00 s
wall time for SCC    0.00 s
speedup  1.00
cpu  time for grad    0.01 s
wall time for grad    0.01 s
 E :    -50.44670388  G :  0.000370    pred/act E change: -0.680D-06 -0.600D-06
Maxdispl :   0.0135   ||displ|| :   0.0203   Lambda : -0.764D-06
Largest |displ|/coords:  0.0135 (   2)  0.0085 (   1)  0.0068 (   3)
................................................................................
.............................. CYCLE   60 ......................................
................................................................................
   1    -50.7377137 -0.507377E+02  0.894E-03    8.50       0.0  T
   2    -50.7377137 -0.131902E-07  0.666E-03    8.50       2.9  T
   3    -50.7377137 -0.108267E-07  0.845E-04    8.50      23.2  T
   4    -50.7377137 -0.168394E-08  0.337E-04    8.50      58.2  T
speedup  1.14
cpu  time for SCC    0.00 s
wall time for SCC    0.00 s
speedup  1.00
cpu  time for grad    0.01 s
wall time for grad    0.01 s
 E :    -50.44670441  G :  0.000325    pred/act E change: -0.403D-06 -0.531D-06
Maxdispl :   0.0095   ||displ|| :   0.0136   Lambda : -0.393D-06
Largest |displ|/coords:  0.0095 (   2)  0.0050 (   1)  0.0041 (   6)
................................................................................
.............................. CYCLE   61 ......................................
................................................................................
   1    -50.7377251 -0.507377E+02  0.638E-03    8.50       0.0  T
   2    -50.7377252 -0.674378E-08  0.476E-03    8.50       4.1  T
   3    -50.7377252 -0.578901E-08  0.621E-04    8.50      31.6  T
   4    -50.7377252 -0.808249E-09  0.214E-04    8.50      91.5  T
speedup  1.11
cpu  time for SCC    0.00 s
wall time for SCC    0.00 s
speedup  1.06
cpu  time for grad    0.01 s
wall time for grad    0.01 s
 E :    -50.44670470  G :  0.000280    pred/act E change: -0.382D-06 -0.293D-06
Maxdispl :   0.0109   ||displ|| :   0.0147   Lambda : -0.351D-06
Largest |displ|/coords:  0.0109 (   2)  0.0050 (   1)  0.0041 (  11)
................................................................................
.............................. CYCLE   62 ......................................
................................................................................
   1    -50.7377281 -0.507377E+02  0.695E-03    8.50       0.0  T
   2    -50.7377281 -0.771187E-08  0.517E-03    8.50       3.8  T
   3    -50.7377281 -0.708042E-08  0.685E-04    8.50      28.6  T
   4    -50.7377281 -0.734694E-09  0.183E-04    8.50     107.3  T
speedup  1.11
cpu  time for SCC    0.00 s
wall time for SCC    0.00 s
speedup  0.99
cpu  time for grad    0.01 s
wall time for grad    0.01 s
 E :    -50.44670495  G :  0.000246    pred/act E change: -0.197D-06 -0.245D-06
Maxdispl :   0.0080   ||displ|| :   0.0102   Lambda : -0.215D-06
Largest |displ|/coords:  0.0080 (   2)  0.0029 (   1)  0.0026 (  11)
................................................................................
.............................. CYCLE   63 ......................................
................................................................................
   1    -50.7377261 -0.507377E+02  0.501E-03    8.50       0.0  T
   2    -50.7377261 -0.465119E-08  0.371E-03    8.50       5.3  T
   3    -50.7377261 -0.425492E-08  0.510E-04    8.50      38.5  T
   4    -50.7377261 -0.360430E-09  0.128E-04    8.50     153.0  T
speedup  1.11
cpu  time for SCC    0.00 s
wall time for SCC    0.00 s
speedup  0.99
cpu  time for grad    0.01 s
wall time for grad    0.01 s
 E :    -50.44670510  G :  0.000191    pred/act E change: -0.175D-06 -0.151D-06
Maxdispl :   0.0063   ||displ|| :   0.0078   Lambda : -0.144D-06
Largest |displ|/coords:  0.0063 (   2)  0.0016 (   9)  0.0015 (   1)
................................................................................
.............................. CYCLE   64 ......................................
................................................................................
   1    -50.7377159 -0.507377E+02  0.379E-03    8.50       0.0  T
   2    -50.7377159 -0.327864E-08  0.280E-03    8.50       7.0  T
   3    -50.7377159 -0.255039E-08  0.384E-04    8.50      51.1  T
   4    -50.7377159 -0.314216E-09  0.142E-04    8.50     137.9  T
speedup  1.08
cpu  time for SCC    0.00 s
wall time for SCC    0.00 s
speedup  0.98
cpu  time for grad    0.01 s
wall time for grad    0.01 s
 E :    -50.44670520  G :  0.000133    pred/act E change: -0.108D-06 -0.989D-07
Maxdispl :   0.0040   ||displ|| :   0.0051   Lambda : -0.810D-07
Largest |displ|/coords:  0.0040 (   2)  0.0015 (   7)  0.0009 (   9)

   *** GEOMETRY OPTIMIZATION CONVERGED AFTER 64 ITERATIONS ***

------------------------------------------------------------------------
 total energy gain (kcal):     -0.0160
------------------------------------------------------------------------
================
 final structure:
================
$coord
       -3.18593359520892        1.43078141895188       -2.43927027214422      S 
       -1.28685839400627       -0.07284841331748       -3.69664849536368      O 
       -5.28156628764002        2.25488829711925       -3.87787413519178      O 
       -4.08760791128363       -0.08567589119882       -0.07154629095468      O 
       -1.90773652840937        3.74083036939651       -1.18991958736698      O 
       -0.08107657536610        3.35131639325382       -0.72031899842747      H 
       -3.51412755081133       -1.93155254085334       -0.32065162344833      H 
        1.33840157955654        0.50379726980983        4.63332584557526      O 
        1.95610416051860        0.65902180522653        6.32808273059364      H 
       -0.36732779392828        1.27679912626162        4.61260093695474      H 
       -3.07379046153360        2.77972642489635        4.09049930767616      O 
       -3.85129827776478        1.67953346720763        2.84333497701940      H 
       -2.83340271999924        4.36755139843499        3.23940339671853      H 
       -2.24268044204412       -4.32478392235281       -1.06674434734153      O 
       -1.73026895911782       -3.65921625919538       -2.69002538618641      H 
       -0.69160816052143       -4.35098001928391       -0.02008319932869      H 
        2.58435786354198        2.68616073781546        0.17648341118080      O 
        3.24008652649217        1.34957644338605       -0.90473112287472      H 
        2.40060227881755        1.97316655355244        1.86860237302143      H 
        2.05571639004551       -3.55514697123172        1.38806490447191      O 
        1.77788885829873       -2.32231708060192        2.71694973851680      H 
        3.05808595982022       -2.73020579671214        0.10047070235780      H 
        3.97593908057093       -1.16743743403293       -3.21520685663962      N 
        5.11372031585011       -0.01386079134660       -4.23957015425553      H 
        2.17493355271018       -0.87970591851371       -3.84890826578234      H 
        4.45944709141891       -2.95941864778069       -3.69631958878160      H 
$end
 
 Bond Distances (Angstroems)
 ---------------------------
S1-O2=1.4442         S1-O3=1.4140         S1-O4=1.5625         S1-O5=1.5456         O2-S1=1.4442         O3-S1=1.4140         
O4-S1=1.5625         O4-H7=1.0313         O5-S1=1.5456         O5-H6=1.0191         H6-O5=1.0191         H7-O4=1.0313         
O8-H9=0.9581         O8-H10=0.9911        H9-O8=0.9581         H10-O8=0.9911        O11-H12=0.9715       O11-H13=0.9618       
H12-O11=0.9715       H13-O11=0.9618       O14-H15=0.9672       O14-H16=0.9903       H15-O14=0.9672       H16-O14=0.9903       
O17-H18=0.9737       O17-H19=0.9765       H18-O17=0.9737       H19-O17=0.9765       O20-H21=0.9704       O20-H22=0.9676       
H21-O20=0.9704       H22-O20=0.9676       N23-H24=1.0144       N23-H25=1.0217       N23-H26=1.0146       H24-N23=1.0144       
H25-N23=1.0217       H26-N23=1.0146       
 N  H  Rav=1.0169 sigma=0.0034  Rmin=1.0144  Rmax=1.0217     3
 O  H  Rav=0.9815 sigma=0.0218  Rmin=0.9581  Rmax=1.0313    12
 S  O  Rav=1.4916 sigma=0.0637  Rmin=1.4140  Rmax=1.5625     4
 
 selected bond angles (degree)
 --------------------
O3-S1-O2=117.88                O4-S1-O2=107.40                O4-S1-O3=110.52                O5-S1-O2=109.17                
O5-S1-O3=109.24                O5-S1-O4=101.35                H7-O4-S1=107.10                H6-O5-S1=111.06                
H10-O8-H9=106.60               
 
 selected dihedral angles (degree)
 ---------------------------------
H7-O4-S1-O2=343.25            H7-O4-S1-O3=113.08            H7-O4-S1-O5=228.81            H6-O5-S1-O2=331.84            
H6-O5-S1-O3=201.62            H6-O5-S1-O4= 84.95            
 
 CMA Distance (Angstroems)
 ---------------------------
R(CMA):  2.8727

========================================================================
 FINAL SINGLEPOINT CALCULATION ON OPTIMIZED GEOMETRY
========================================================================

 Ncao       : 65
 Nao        : 64
 Nshell     : 38
 Nel        : 80
 T(el)      :   300.0
 intcut     :    25.0
 scfconv/Eh :  0.100E-05
   qconv/e  :  0.100E-03
 intneglect :  0.100E-07
 broydamp   :      0.250
 iter      E             dE          RMSdq      gap      omega  full diag
   1    -50.7377159 -0.507377E+02  0.546E-05    8.50       0.0  T
   2    -50.7377159 -0.174794E-11  0.345E-05    8.50     568.4  T
   3    -50.7377159 -0.100897E-11  0.432E-06    8.50    4536.3  T
speedup  0.74
cpu  time for SCC    0.00 s
wall time for SCC    0.00 s

   *** convergence criteria satisfied after 3 iterations ***

          eigenvalues
 #    :          28         29         30         31         32         33         34         35
 occ. :        2.000      2.000      2.000      2.000      2.000      2.000      2.000      2.000
 eps  :       -13.739    -13.632    -13.307    -12.819    -12.778    -12.706    -12.639    -12.533
 #    :          36         37         38         39         40         41         42         43
 occ. :        2.000      2.000      2.000      2.000      2.000      0.000      0.000      0.000
 eps  :       -12.482    -12.361    -12.261    -12.164    -11.646     -3.147     -1.048     -0.719
 #    :          44         45         46         47         48         49         50         51
 occ. :        0.000      0.000      0.000      0.000      0.000      0.000      0.000      0.000
 eps  :        -0.351      0.742      0.917      1.561      2.626      3.520      4.271      4.835


   #   Z            q   n(s)   n(p)   n(d)      C6AA      α(0)
   1  16 S      1.684  1.580  1.789  0.947    89.137    15.890
   2   8 O     -0.729  1.760  4.969  0.000    29.515     7.284
   3   8 O     -0.643  1.756  4.887  0.000    27.210     6.994
   4   8 O     -0.648  1.764  4.884  0.000    26.351     6.929
   5   8 O     -0.620  1.755  4.865  0.000    25.638     6.835
   6   1 H      0.394  0.606  0.000  0.000     0.494     1.103
   7   1 H      0.392  0.608  0.000  0.000     0.496     1.104
   8   8 O     -0.628  1.745  4.882  0.000    25.868     6.864
   9   1 H      0.291  0.709  0.000  0.000     0.747     1.358
  10   1 H      0.340  0.660  0.000  0.000     0.614     1.231
  11   8 O     -0.597  1.740  4.857  0.000    25.126     6.765
  12   1 H      0.323  0.677  0.000  0.000     0.657     1.273
  13   1 H      0.305  0.695  0.000  0.000     0.707     1.321
  14   8 O     -0.602  1.758  4.844  0.000    25.226     6.779
  15   1 H      0.314  0.686  0.000  0.000     0.681     1.296
  16   1 H      0.347  0.653  0.000  0.000     0.596     1.213
  17   8 O     -0.620  1.757  4.863  0.000    25.663     6.838
  18   1 H      0.323  0.677  0.000  0.000     0.655     1.271
  19   1 H      0.333  0.667  0.000  0.000     0.629     1.246
  20   8 O     -0.619  1.752  4.867  0.000    25.641     6.834
  21   1 H      0.320  0.680  0.000  0.000     0.664     1.280
  22   1 H      0.307  0.693  0.000  0.000     0.700     1.314
  23   7 N     -0.478  1.383  4.094  0.000    32.644     8.485
  24   1 H      0.156  0.844  0.000  0.000     1.360     1.827
  25   1 H      0.198  0.802  0.000  0.000     1.118     1.656
  26   1 H      0.159  0.841  0.000  0.000     1.341     1.814

 Mol. C6AA /au·bohr⁶  :       5453.793208
 Mol. C8AA /au·bohr⁸  :     117814.533227
 Mol. α(0) /au        :        106.805494

 
 Wiberg/Mayer (AO) data. WBOs > 0.1 written file <wbo>
 largest (>0.05) Wiberg bond orders for each atom
           total WBO             WBO to atom ...
     1  S   4.861    O    3 1.505    O    2 1.350    O    5 1.009    O    4 0.960
     2  O   1.719    S    1 1.350    O    3 0.123    O    5 0.089    O    4 0.088
     3  O   1.816    S    1 1.505    O    2 0.123    O    4 0.089    O    5 0.080
     4  O   1.951    S    1 0.960    H    7 0.651    O    3 0.089    O    2 0.088    O    5 0.057    O   14 0.056
     5  O   1.976    S    1 1.009    H    6 0.677    O    2 0.089    O    3 0.080    O    4 0.057
     6  H   0.845    O    5 0.677    O   17 0.150
     7  H   0.846    O    4 0.651    O   14 0.178
     8  O   1.871    H    9 0.907    H   10 0.801    H   19 0.051
     9  H   0.915    O    8 0.907
    10  H   0.885    O    8 0.801    O   11 0.080
    11  O   1.898    H   13 0.900    H   12 0.858    H   10 0.080
    12  H   0.896    O   11 0.858
    13  H   0.907    O   11 0.900
    14  O   1.972    H   15 0.879    H   16 0.805    H    7 0.178    O    4 0.056
    15  H   0.901    O   14 0.879
    16  H   0.880    O   14 0.805    O   20 0.074
    17  O   1.939    H   18 0.845    H   19 0.834    H    6 0.150
    18  H   0.895    O   17 0.845
    19  H   0.889    O   17 0.834    O    8 0.051
    20  O   1.879    H   22 0.874    H   21 0.858    H   16 0.074
    21  H   0.898    O   20 0.858
    22  H   0.906    O   20 0.874
    23  N   2.988    H   24 0.969    H   26 0.965    H   25 0.931
    24  H   0.976    N   23 0.969
    25  H   0.961    N   23 0.931
    26  H   0.975    N   23 0.965
 MOs/occ written to file <molden.input>
 
molecular dipole:
                 x           y           z       tot (Debye)
 q only:        1.819      -0.264       0.997
   full:        2.059      -0.111       0.692       5.527
molecular quadrupole (traceless):
                xx          xy          yy          xz          yz          zz
 q only:       -3.592       2.930      -1.270      -8.650       7.300       4.862
  q+dip:       -4.148       1.007      -4.730     -10.773       9.726       8.878
   full:       -4.467       1.172      -4.504     -10.836       9.628       8.971

SCC energy    :     -50.7377159
rep           :       0.2906157
ES            :       0.2329821
AES           :      -0.0516569
AXC           :      -0.0063862
disp          :      -0.0191614
XB            :       0.0000000
fix           :       0.0000000
total E       :     -50.4467052
atomizationE  :       4.9770094     3123.12
(atE without considering molecular charge,
 total energy contains solvation terms)
H-L gap (eV)  :          8.4987
optimized geometry written to: xtbopt.xyz


------------------------------------------------------------------------
 * finished run on 2019/09/16 at 12:13:37.954     
------------------------------------------------------------------------
 total:
 * wall-time:     0 d,  0 h,  0 min,  1.567 sec
 *  cpu-time:     0 d,  0 h,  0 min,  1.552 sec
 * ratio c/w:     0.990 speedup
 SCF:
 * wall-time:     0 d,  0 h,  0 min,  0.151 sec
 *  cpu-time:     0 d,  0 h,  0 min,  0.148 sec
 * ratio c/w:     0.981 speedup
 ANC optimizer:
 * wall-time:     0 d,  0 h,  0 min,  1.393 sec
 *  cpu-time:     0 d,  0 h,  0 min,  1.383 sec
 * ratio c/w:     0.993 speedup

