      -----------------------------------------------------------      
     |                   =====================                   |     
     |                           x T B                           |     
     |                   =====================                   |     
     |                         S. Grimme                         |     
     |          Mulliken Center for Theoretical Chemistry        |     
     |                    University of Bonn                     |     
     |                 Version 6.0.1 (SAW181210)                 |     
      -----------------------------------------------------------      

   This program is distributed in the hope that it will be useful,
   but WITHOUT ANY WARRANTY; without even the implied warranty of
   MERCHANTABILITY or FITNESS FOR A PARTICULAR PURPOSE.
   
   FOR NON-COMMERCIAL, ACADEMIA USE ONLY.
   
   Cite this work as:
   S. Grimme, C. Bannwarth, P. Shushkov, J. Comput. Theory Chem., 2017,
   13, 1989-2009.
   C. Bannwarth, S. Ehlert and S. Grimme., ChemRxiv, 2018, preprint.
   http://doi.org/10.26434/chemrxiv.7246238.v1
   
   for sTDA-xTB:
   S. Grimme and C. Bannwarth, J. Chem. Phys., 2016, 145, 054103.
   
   in the mass-spec context:
   V. Asgeirsson, C. Bauer and S. Grimme, Chem. Sci., 2017, 8, 4879.
   
   if GBSA is used:
   P. Shushkov, F. März and S. Grimme, unpublished.
   
   for ANC optimizer:
   S. Grimme, unpublished.
   Rational Function algorithm used in ANCopt:
   F. Eckert, P. Pulay, H.-J. Werner, J. Comput. Chem., 1997, 18, 1473.
   
   with help from (in alphabetical order)
   C. Bannwarth, F. Bohle, G. Brandenburg, E. Caldeweyher, M. Checinski,
   S. Dohm, S. Ehlert, S. Ehrlich, F. März, H. Neugebauer, J. Pisarek,
   P. Pracht, P. Shushkov, and S. Spicher.
   
 * started run on 2019/09/16 at 11:20:44.136     
========================================================================
 # omp threads = 1
========================================================================
number of atoms            : 26
number of electrons        : 80
charge                     : 0
spin                       : .0
first test random number   : .2376

########################################################################
# WARNING! Please study the warnings concerning your input carefully
#  - XTBPATH is not set, using XTBHOME instead
#  - the use of '-opt' is discouraged, please use '--opt' next time
#  - the use of '-chrg' is discouraged, please use '--chrg' next time
#  - the use of '-uhf' is discouraged, please use '--uhf' next time
########################################################################

           ------------------------------------------------- 
          |                 G F N 2 - x T B                 |
          | Geometry, Frequencies, Noncovalent interactions |
          |            JCTC 2018 parametrisation            |
           ------------------------------------------------- 
      method parameters     
 k(s)        :  1.8500
 k(p)        :  2.2300
 k(d)        :  2.2300
 k(f)        :  2.0000
 kEN (H0ij)  : -2.0000
 D4 a1       :  0.5200
 D4 a2       :  5.0000
 D4 s6       :  1.0000
 D4 s8       :  2.7000
 D4 s9       :  5.0000
 alphaj      :  2.0000


            Z     q(EN)     CN     RAES       Cart. coordinates
     1  S   6.0    0.58    4.28    4.20     3.77232    -3.00470    -1.54451
     2  O   6.0   -0.31    1.11    1.80     1.74948    -2.69748    -3.38711
     3  O   6.0   -0.30    1.13    1.80     5.32435    -0.93324    -0.68549
     4  O   6.0   -0.24    2.06    1.83     2.57120    -4.50740     0.87305
     5  O   6.0   -0.22    2.04    1.83     5.71569    -5.16988    -2.44062
     6  H   1.0    0.14    1.11    1.45     4.77197    -6.56531    -3.18125
     7  H   1.0    0.18    1.31    1.50     0.80886    -3.99588     1.01041
     8  O   6.0   -0.40    1.65    1.81    -1.66219    -2.71603     1.29040
     9  H   1.0    0.18    0.95    1.42    -2.94128    -4.02744     1.64798
    10  O   6.0   -0.29    2.01    1.83     0.42728     3.88015    -2.19516
    11  H   1.0    0.16    1.03    1.43    -0.74845     2.49495    -2.31125
    12  H   1.0    0.15    0.97    1.43     0.16529     4.86190    -3.70584
    13  O   6.0   -0.29    2.00    1.83    -5.24015     3.08736     0.68111
    14  H   1.0    0.15    1.03    1.43    -4.61081     1.92523    -0.57109
    15  H   1.0    0.14    0.97    1.43    -6.86872     3.62141     0.06696
    16  O   6.0   -0.31    2.11    1.84    -2.74571    -0.11865    -2.39967
    17  H   1.0    0.18    1.15    1.45    -2.50463    -1.14667    -0.91655
    18  H   1.0    0.17    0.99    1.43    -1.81949    -0.95828    -3.72321
    19  O   6.0   -0.29    2.04    1.83     3.24117     3.14408     1.89673
    20  H   1.0    0.17    1.00    1.43     4.56221     2.01861     1.34647
    21  H   1.0    0.17    1.03    1.43     2.47297     3.76829     0.36871
    22  N   5.0   -0.15    3.96    2.76    -1.28827     1.40779     3.57599
    23  H   1.0    0.10    1.04    1.43    -2.70589     2.50743     2.82392
    24  H   1.0    0.13    1.18    1.46    -1.36950    -0.37448     2.80052
    25  H   1.0    0.11    1.06    1.44     0.43748     2.21130     3.17522
    26  H   1.0    0.08    0.99    1.43    -1.51516     1.28692     5.50429

  Z AO/shell   Hii/eV     exponent
  1     Wed Apr 25 08:07:45 CEST 2018   EN: 2.200 GM2: 0.406  GM3: 0.0800  RAES: 1.40
     1s    -10.707211    1.230000
  7     Wed Apr 25 08:07:45 CEST 2018   EN: 3.040 GM2: 0.461  GM3:-0.0640  RAES: 1.90
     2s    -16.686243    2.339881
     2p    -12.523956    2.014332
  8     Wed Apr 25 08:07:45 CEST 2018   EN: 3.440 GM2: 0.452  GM3:-0.0517  RAES: 1.80
     2s    -20.229985    2.439742
     2p    -15.503117    2.137023
 16     Tue Apr 24 11:44:34 CEST 2018   EN: 2.580 GM2: 0.340  GM3:-0.0502  RAES: 3.10
     3s    -20.029654    1.981333
     3p    -11.377694    2.025643
     3d     -0.420282    1.702555
 no old-style atom pair restraining (fixing) potential

molecular fragmentation (1/2 indicates fragments):
11111112222222222222222222
# atoms in fragment 1/2:     7    19
 fragment masses (1/2) :       98.07      107.11
CMA distance (Bohr)    :   7.130
constraining FC (au)   :  0.0500
           ------------------------------------------------- 
          |        Self-Consistent Charge Iterations        |
           ------------------------------------------------- 

 Ncao       : 65
 Nao        : 64
 Nshell     : 38
 Nel        : 80
 T(el)      :   300.0
 intcut     :    25.0
 scfconv/Eh :  0.100E-05
   qconv/e  :  0.100E-03
 intneglect :  0.100E-07
 broydamp   :      0.250
 iter      E             dE          RMSdq      gap      omega  full diag
   1    -50.5992189 -0.505992E+02  0.702E+00    8.14       0.0  T
   2    -50.6497706 -0.505517E-01  0.495E+00    7.24       1.0  T
   3    -50.6903565 -0.405859E-01  0.117E+00    4.96       1.0  T
   4    -50.6939439 -0.358739E-02  0.672E-01    5.16       1.0  T
   5    -50.6954946 -0.155078E-02  0.261E-01    5.24       1.0  T
   6    -50.6958094 -0.314782E-03  0.153E-01    5.25       1.0  T
   7    -50.6959551 -0.145669E-03  0.491E-02    5.25       1.0  T
   8    -50.6959674 -0.122923E-04  0.267E-02    5.25       1.0  T
   9    -50.6959716 -0.420554E-05  0.815E-03    5.26       2.4  T
  10    -50.6959719 -0.274962E-06  0.239E-03    5.26       8.2  T
  11    -50.6959719 -0.137796E-07  0.113E-03    5.26      17.3  T
  12    -50.6959719 -0.646722E-08  0.350E-04    5.26      56.0  T
  13    -50.6959719 -0.408896E-09  0.183E-04    5.26     107.0  T
speedup  1.01
cpu  time for SCC    0.01 s
wall time for SCC    0.01 s

   *** convergence criteria satisfied after 13 iterations ***

          eigenvalues
 #    :          28         29         30         31         32         33         34         35
 occ. :        2.000      2.000      2.000      2.000      2.000      2.000      2.000      2.000
 eps  :       -12.982    -12.691    -12.465    -12.397    -12.297    -12.229    -12.110    -12.089
 #    :          36         37         38         39         40         41         42         43
 occ. :        2.000      2.000      2.000      2.000      2.000      0.000      0.000      0.000
 eps  :       -11.693    -11.481    -11.355     -9.977     -9.790     -4.529     -1.906     -0.774
 #    :          44         45         46         47         48         49         50         51
 occ. :        0.000      0.000      0.000      0.000      0.000      0.000      0.000      0.000
 eps  :        -0.561      0.766      1.821      2.209      2.773      3.043      3.972      4.664


   #   Z            q   n(s)   n(p)   n(d)      C6AA      α(0)
   1  16 S      1.642  1.629  1.803  0.926    90.095    15.975
   2   8 O     -0.659  1.772  4.887  0.000    27.616     7.046
   3   8 O     -0.630  1.762  4.867  0.000    26.853     6.948
   4   8 O     -0.624  1.772  4.852  0.000    25.747     6.850
   5   8 O     -0.562  1.753  4.809  0.000    24.268     6.650
   6   1 H      0.348  0.652  0.000  0.000     0.590     1.205
   7   1 H      0.382  0.618  0.000  0.000     0.513     1.123
   8   8 O     -0.862  1.842  5.021  0.000    33.525     7.764
   9   1 H      0.207  0.793  0.000  0.000     1.082     1.635
  10   8 O     -0.623  1.745  4.879  0.000    25.747     6.848
  11   1 H      0.329  0.671  0.000  0.000     0.640     1.257
  12   1 H      0.276  0.724  0.000  0.000     0.797     1.402
  13   8 O     -0.613  1.735  4.878  0.000    25.504     6.816
  14   1 H      0.337  0.663  0.000  0.000     0.619     1.235
  15   1 H      0.278  0.722  0.000  0.000     0.791     1.397
  16   8 O     -0.672  1.748  4.924  0.000    26.975     7.010
  17   1 H      0.340  0.660  0.000  0.000     0.610     1.226
  18   1 H      0.300  0.700  0.000  0.000     0.722     1.335
  19   8 O     -0.622  1.736  4.887  0.000    25.721     6.845
  20   1 H      0.312  0.688  0.000  0.000     0.686     1.301
  21   1 H      0.329  0.671  0.000  0.000     0.641     1.257
  22   7 N     -0.324  1.265  4.059  0.000    28.305     7.902
  23   1 H      0.285  0.715  0.000  0.000     0.759     1.365
  24   1 H      0.315  0.685  0.000  0.000     0.668     1.280
  25   1 H      0.291  0.709  0.000  0.000     0.741     1.349
  26   1 H      0.220  0.780  0.000  0.000     1.009     1.574

 Mol. C6AA /au·bohr⁶  :       5445.657283
 Mol. C8AA /au·bohr⁸  :     117833.828790
 Mol. α(0) /au        :        106.592283

 
 Wiberg/Mayer (AO) data. WBOs > 0.1 written file <wbo>
 largest (>0.05) Wiberg bond orders for each atom
           total WBO             WBO to atom ...
     1  S   4.771    O    3 1.456    O    2 1.412    O    4 0.952    O    5 0.921
     2  O   1.769    S    1 1.412    O    3 0.143    O    4 0.107    O    5 0.090
     3  O   1.814    S    1 1.456    O    2 0.143    O    4 0.103    O    5 0.072
     4  O   1.946    S    1 0.952    H    7 0.671    O    2 0.107    O    3 0.103    O    5 0.055    O    8 0.053
     5  O   2.005    S    1 0.921    H    6 0.860    O    2 0.090    O    3 0.072    O    4 0.055
     6  H   0.878    O    5 0.860
     7  H   0.854    O    4 0.671    O    8 0.168
     8  O   1.592    H    9 0.948    H    7 0.168    H   24 0.161    H   17 0.128    N   22 0.068    O    4 0.053    O   16 0.053
     9  H   0.957    O    8 0.948
    10  O   1.829    H   12 0.915    H   11 0.827
    11  H   0.892    O   10 0.827    O   16 0.060
    12  H   0.924    O   10 0.915
    13  O   1.837    H   15 0.912    H   14 0.845
    14  H   0.886    O   13 0.845
    15  H   0.923    O   13 0.912
    16  O   1.842    H   18 0.886    H   17 0.752    H   11 0.060    O    8 0.053
    17  H   0.885    O   16 0.752    O    8 0.128
    18  H   0.910    O   16 0.886
    19  O   1.880    H   20 0.877    H   21 0.849    H   25 0.077
    20  H   0.903    O   19 0.877
    21  H   0.892    O   19 0.849
    22  N   3.532    H   26 0.947    H   23 0.873    H   25 0.833    H   24 0.734    O    8 0.068
    23  H   0.919    N   22 0.873
    24  H   0.901    N   22 0.734    O    8 0.161
    25  H   0.915    N   22 0.833    O   19 0.077
    26  H   0.952    N   22 0.947
 MOs/occ written to file <molden.input>
 
molecular dipole:
                 x           y           z       tot (Debye)
 q only:       -1.374       0.738       0.665
   full:       -1.688       0.073       0.046       4.297
molecular quadrupole (traceless):
                xx          xy          yy          xz          yz          zz
 q only:       -9.347      -5.991       0.793      -5.516       4.908       8.554
  q+dip:       -9.679      -6.628       1.481      -6.400       3.306       8.198
   full:       -9.693      -6.963       1.456      -6.689       3.260       8.237

SCC energy    :     -50.6959719
rep           :       0.2907257
ES            :       0.2814851
AES           :      -0.0563332
AXC           :      -0.0052608
disp          :      -0.0183261
XB            :       0.0000000
fix           :       0.0000000
total E       :     -50.4049161
atomizationE  :       4.9352203     3096.90
(atE without considering molecular charge,
 total energy contains solvation terms)
H-L gap (eV)  :          5.2609
           ------------------------------------------------- 
          |                 ===============                 |
          |                   A N C O P T                   |
          |                 ===============                 |
          |          Approximate Normal Coordinate          |
          |           Rational Function Optimizer           |
           ------------------------------------------------- 
dumping coords to <xtbopt.coord> and <xtbopt.log>
 optlevel               2
 Maxcycle             520
 Maxmicro              25
 Econv         1.000000000000000E-007
 Gconv         2.000000000000000E-004
 Maxdispl       1.00000000000000     
 Hlow          5.000000000000000E-003
 S6             20.0000000000000     
 Nvar               72

generating ANC from model Hessian ...
 Shifting diagonal of input Hessian by   4.955372101279732E-003
 Lowest  eigenvalues of input Hessian
   -0.000000   -0.000000   -0.000000    0.000000    0.000000    0.000000
    0.005000    0.005239    0.005527    0.005782    0.005921    0.006283
    0.006803    0.006869    0.007176    0.007360    0.007732    0.008123
 Highest eigenvalues
    1.429164    1.447241    1.448539    1.951711    2.767230    3.588336
 
cpu  time for ANC gen    0.02 s
wall time for ANC gen    0.02 s
................................................................................
.............................. CYCLE    1 ......................................
................................................................................
   1    -50.6959719 -0.506960E+02  0.469E-05    5.26       0.0  T
   2    -50.6959719 -0.369482E-11  0.350E-05    5.26     560.6  T
   3    -50.6959719 -0.311218E-11  0.149E-05    5.26    1315.2  T
speedup  1.03
cpu  time for SCC    0.00 s
wall time for SCC    0.00 s
speedup  0.97
cpu  time for grad    0.01 s
wall time for grad    0.01 s
 E :    -50.40491612  G :  0.155718    pred/act E change:  0.000D+00  0.234D-07
Maxdispl :   0.1061   ||displ|| :   0.2773   Lambda : -0.221D-01
Largest |displ|/coords:  0.1061 (  17)  0.0937 (  23)  0.0688 (  34)
................................................................................
.............................. CYCLE    2 ......................................
................................................................................
   1    -50.7041230 -0.507041E+02  0.349E-01    6.02       0.0  T
   2    -50.7042775 -0.154413E-03  0.257E-01    6.10       1.0  T
   3    -50.7043442 -0.667386E-04  0.674E-02    6.26       1.0  T
   4    -50.7043606 -0.164359E-04  0.256E-02    6.25       1.0  T
   5    -50.7043616 -0.947177E-06  0.555E-03    6.24       3.5  T
   6    -50.7043616 -0.585663E-07  0.325E-03    6.24       6.0  T
speedup  1.07
cpu  time for SCC    0.01 s
wall time for SCC    0.01 s
speedup  1.04
cpu  time for grad    0.01 s
wall time for grad    0.01 s
 E :    -50.42135200  G :  0.084027    pred/act E change:  0.000D+00 -0.164D-01
Maxdispl :   0.1025   ||displ|| :   0.2701   Lambda : -0.834D-02
Largest |displ|/coords:  0.1025 (  17)  0.0829 (  21)  0.0717 (  19)
................................................................................
.............................. CYCLE    3 ......................................
................................................................................
   1    -50.7097686 -0.507098E+02  0.276E-01    6.87       0.0  T
   2    -50.7098971 -0.128542E-03  0.200E-01    6.96       1.0  T
   3    -50.7099480 -0.508402E-04  0.572E-02    7.13       1.0  T
   4    -50.7099583 -0.103481E-04  0.183E-02    7.11       1.1  T
   5    -50.7099589 -0.588182E-06  0.407E-03    7.10       4.8  T
   6    -50.7099589 -0.269051E-07  0.256E-03    7.10       7.7  T
speedup  0.94
cpu  time for SCC    0.01 s
wall time for SCC    0.01 s
speedup  0.99
cpu  time for grad    0.01 s
wall time for grad    0.01 s
 E :    -50.42803387  G :  0.056396    pred/act E change: -0.119D-01 -0.668D-02
Maxdispl :   0.0857   ||displ|| :   0.2301   Lambda : -0.440D-02
Largest |displ|/coords:  0.0857 (  19)  0.0807 (  29)  0.0719 (   4)
................................................................................
.............................. CYCLE    4 ......................................
................................................................................
   1    -50.7147364 -0.507147E+02  0.211E-01    7.59       0.0  T
   2    -50.7148256 -0.891668E-04  0.150E-01    7.67       1.0  T
   3    -50.7148629 -0.372843E-04  0.443E-02    7.81       1.0  T
   4    -50.7148686 -0.569847E-05  0.132E-02    7.80       1.5  T
   5    -50.7148689 -0.370965E-06  0.355E-03    7.79       5.5  T
   6    -50.7148689 -0.192292E-07  0.224E-03    7.79       8.8  T
speedup  0.93
cpu  time for SCC    0.00 s
wall time for SCC    0.01 s
speedup  0.98
cpu  time for grad    0.01 s
wall time for grad    0.01 s
 E :    -50.43167299  G :  0.040238    pred/act E change: -0.447D-02 -0.364D-02
Maxdispl :   0.1549   ||displ|| :   0.4917   Lambda : -0.670D-02
Largest |displ|/coords:  0.1549 (   7)  0.1439 (  29)  0.1366 (   4)
................................................................................
.............................. CYCLE    5 ......................................
................................................................................
   1    -50.7117390 -0.507117E+02  0.593E-01    8.55       0.0  T
   2    -50.7121688 -0.429888E-03  0.434E-01    8.73       1.0  T
   3    -50.7123715 -0.202670E-03  0.110E-01    9.05       1.0  T
   4    -50.7124141 -0.425353E-04  0.291E-02    9.02       1.0  T
   5    -50.7124159 -0.181200E-05  0.883E-03    9.00       2.2  T
   6    -50.7124160 -0.115022E-06  0.525E-03    9.00       3.7  T
   7    -50.7124160 -0.687428E-07  0.178E-03    9.00      11.0  T
speedup  1.08
cpu  time for SCC    0.01 s
wall time for SCC    0.01 s
speedup  1.04
cpu  time for grad    0.01 s
wall time for grad    0.01 s
 E :    -50.43510320  G :  0.047798    pred/act E change: -0.232D-02 -0.343D-02
Maxdispl :   0.2282   ||displ|| :   0.6017   Lambda : -0.880D-02
Largest |displ|/coords:  0.2282 (  11)  0.1840 (  19)  0.1784 (   3)
................................................................................
.............................. CYCLE    6 ......................................
................................................................................
   1    -50.7265219 -0.507265E+02  0.866E-01    9.59       0.0  T
   2    -50.7273489 -0.827059E-03  0.640E-01    9.62       1.0  T
   3    -50.7277793 -0.430376E-03  0.156E-01    9.52       1.0  T
   4    -50.7278699 -0.905537E-04  0.348E-02    9.52       1.0  T
   5    -50.7278727 -0.289942E-05  0.153E-02    9.53       1.3  T
   6    -50.7278731 -0.323951E-06  0.798E-03    9.53       2.5  T
   7    -50.7278732 -0.114726E-06  0.248E-03    9.53       7.9  T
   8    -50.7278732 -0.854723E-08  0.644E-04    9.53      30.4  T
speedup  0.99
cpu  time for SCC    0.01 s
wall time for SCC    0.01 s
speedup  1.01
cpu  time for grad    0.01 s
wall time for grad    0.01 s
 E :    -50.43255450  G :  0.094073    pred/act E change: -0.416D-02  0.255D-02
Maxdispl :   0.1267   ||displ|| :   0.4161   Lambda : -0.138D-01
Largest |displ|/coords:  0.1267 (  29)  0.1195 (   8)  0.1183 (  33)
................................................................................
.............................. CYCLE    7 ......................................
................................................................................
   1    -50.7162413 -0.507162E+02  0.611E-01    8.98       0.0  T
   2    -50.7168810 -0.639671E-03  0.444E-01    8.93       1.0  T
   3    -50.7171881 -0.307158E-03  0.127E-01    8.69       1.0  T
   4    -50.7172400 -0.518779E-04  0.329E-02    8.73       1.0  T
   5    -50.7172426 -0.254320E-05  0.122E-02    8.74       1.6  T
   6    -50.7172427 -0.161110E-06  0.556E-03    8.74       3.5  T
   7    -50.7172428 -0.783662E-07  0.229E-03    8.74       8.6  T
speedup  0.97
cpu  time for SCC    0.01 s
wall time for SCC    0.01 s
speedup  1.00
cpu  time for grad    0.01 s
wall time for grad    0.01 s
 E :    -50.43769412  G :  0.032172    pred/act E change: -0.599D-02 -0.514D-02
Maxdispl :   0.1341   ||displ|| :   0.2788   Lambda : -0.290D-02
Largest |displ|/coords:  0.1341 (   7)  0.0771 (  27)  0.0712 (   6)
................................................................................
.............................. CYCLE    8 ......................................
................................................................................
   1    -50.7205008 -0.507205E+02  0.285E-01    8.96       0.0  T
   2    -50.7206156 -0.114846E-03  0.209E-01    9.02       1.0  T
   3    -50.7206784 -0.628113E-04  0.579E-02    9.12       1.0  T
   4    -50.7206887 -0.102878E-04  0.164E-02    9.11       1.2  T
   5    -50.7206893 -0.603303E-06  0.598E-03    9.10       3.3  T
   6    -50.7206894 -0.595553E-07  0.362E-03    9.11       5.4  T
speedup  1.09
cpu  time for SCC    0.01 s
wall time for SCC    0.01 s
speedup  0.97
cpu  time for grad    0.01 s
wall time for grad    0.01 s
 E :    -50.44007014  G :  0.029225    pred/act E change: -0.808D-02 -0.238D-02
Maxdispl :   0.1878   ||displ|| :   0.6204   Lambda : -0.683D-02
Largest |displ|/coords:  0.1878 (  27)  0.1834 (   4)  0.1809 (  29)
................................................................................
.............................. CYCLE    9 ......................................
................................................................................
   1    -50.7328521 -0.507329E+02  0.635E-01    9.48       0.0  T
   2    -50.7334441 -0.591990E-03  0.463E-01    9.43       1.0  T
   3    -50.7338670 -0.422859E-03  0.137E-01    9.29       1.0  T
   4    -50.7339115 -0.444885E-04  0.343E-02    9.28       1.0  T
   5    -50.7339135 -0.200578E-05  0.152E-02    9.29       1.3  T
   6    -50.7339139 -0.425386E-06  0.910E-03    9.29       2.2  T
   7    -50.7339140 -0.116030E-06  0.229E-03    9.29       8.6  T
   8    -50.7339140 -0.825565E-08  0.466E-04    9.29      42.0  T
speedup  1.00
cpu  time for SCC    0.01 s
wall time for SCC    0.01 s
speedup  1.01
cpu  time for grad    0.01 s
wall time for grad    0.01 s
 E :    -50.44305067  G :  0.055614    pred/act E change: -0.156D-02 -0.298D-02
Maxdispl :   0.1791   ||displ|| :   0.4158   Lambda : -0.976D-02
Largest |displ|/coords:  0.1791 (   9)  0.1313 (  29)  0.1279 (   7)
................................................................................
.............................. CYCLE   10 ......................................
................................................................................
   1    -50.7110960 -0.507111E+02  0.552E-01    9.05       0.0  T
   2    -50.7115576 -0.461554E-03  0.406E-01    9.08       1.0  T
   3    -50.7118228 -0.265237E-03  0.110E-01    9.13       1.0  T
   4    -50.7118650 -0.421823E-04  0.264E-02    9.13       1.0  T
   5    -50.7118668 -0.184571E-05  0.125E-02    9.13       1.6  T
   6    -50.7118671 -0.252932E-06  0.637E-03    9.13       3.1  T
   7    -50.7118671 -0.518278E-07  0.182E-03    9.13      10.7  T
   8    -50.7118671 -0.557023E-08  0.453E-04    9.13      43.3  T
speedup  1.11
cpu  time for SCC    0.01 s
wall time for SCC    0.01 s
speedup  1.00
cpu  time for grad    0.01 s
wall time for grad    0.01 s
 E :    -50.44152881  G :  0.067152    pred/act E change: -0.473D-02  0.152D-02
Maxdispl :   0.2817   ||displ|| :   0.5500   Lambda : -0.191D-01
Largest |displ|/coords:  0.2817 (   8)  0.2549 (   9)  0.2172 (   7)
................................................................................
.............................. CYCLE   11 ......................................
................................................................................
   1    -50.7411584 -0.507412E+02  0.893E-01    9.31       0.0  T
   2    -50.7416397 -0.481230E-03  0.676E-01    9.29       1.0  T
   3    -50.7419579 -0.318198E-03  0.126E-01    9.23       1.0  T
   4    -50.7420273 -0.694183E-04  0.234E-02    9.23       1.0  T
   5    -50.7420284 -0.115321E-05  0.131E-02    9.23       1.5  T
   6    -50.7420285 -0.895768E-07  0.663E-03    9.24       3.0  T
   7    -50.7420286 -0.624615E-07  0.144E-03    9.24      13.6  T
   8    -50.7420286 -0.354111E-08  0.321E-04    9.24      61.1  T
speedup  0.99
cpu  time for SCC    0.01 s
wall time for SCC    0.01 s
speedup  1.01
cpu  time for grad    0.01 s
wall time for grad    0.01 s
 E :    -50.44467814  G :  0.054748    pred/act E change: -0.572D-02 -0.315D-02
Maxdispl :   0.1369   ||displ|| :   0.3877   Lambda : -0.544D-02
Largest |displ|/coords:  0.1369 (  19)  0.1248 (  11)  0.1224 (   9)
................................................................................
.............................. CYCLE   12 ......................................
................................................................................
   1    -50.7312611 -0.507313E+02  0.423E-01    9.16       0.0  T
   2    -50.7313289 -0.677829E-04  0.322E-01    9.16       1.0  T
   3    -50.7313910 -0.621259E-04  0.470E-02    9.15       1.0  T
   4    -50.7313992 -0.827109E-05  0.184E-02    9.15       1.1  T
   5    -50.7313997 -0.493150E-06  0.551E-03    9.15       3.6  T
   6    -50.7313998 -0.340869E-07  0.338E-03    9.15       5.8  T
speedup  0.94
cpu  time for SCC    0.00 s
wall time for SCC    0.01 s
speedup  0.99
cpu  time for grad    0.01 s
wall time for grad    0.01 s
 E :    -50.44671889  G :  0.043534    pred/act E change: -0.124D-01 -0.204D-02
Maxdispl :   0.1097   ||displ|| :   0.3166   Lambda : -0.519D-02
Largest |displ|/coords:  0.1097 (   6)  0.0938 (  16)  0.0920 (  29)
................................................................................
.............................. CYCLE   13 ......................................
................................................................................
   1    -50.7261968 -0.507262E+02  0.345E-01    9.03       0.0  T
   2    -50.7262918 -0.949421E-04  0.259E-01    9.03       1.0  T
   3    -50.7263424 -0.506818E-04  0.529E-02    9.04       1.0  T
   4    -50.7263559 -0.134903E-04  0.160E-02    9.04       1.2  T
   5    -50.7263565 -0.594502E-06  0.447E-03    9.04       4.4  T
   6    -50.7263565 -0.174038E-07  0.255E-03    9.04       7.7  T
speedup  1.09
cpu  time for SCC    0.01 s
wall time for SCC    0.01 s
speedup  0.98
cpu  time for grad    0.01 s
wall time for grad    0.01 s
 E :    -50.44855739  G :  0.039960    pred/act E change: -0.313D-02 -0.184D-02
Maxdispl :   0.1833   ||displ|| :   0.3519   Lambda : -0.362D-02
Largest |displ|/coords:  0.1833 (   2)  0.1097 (  14)  0.1090 (   4)
................................................................................
.............................. CYCLE   14 ......................................
................................................................................
   1    -50.7403214 -0.507403E+02  0.327E-01    9.14       0.0  T
   2    -50.7403919 -0.705392E-04  0.242E-01    9.13       1.0  T
   3    -50.7404420 -0.501534E-04  0.515E-02    9.10       1.0  T
   4    -50.7404494 -0.737613E-05  0.169E-02    9.10       1.2  T
   5    -50.7404500 -0.534067E-06  0.595E-03    9.11       3.3  T
   6    -50.7404500 -0.303731E-07  0.301E-03    9.11       6.5  T
speedup  1.11
cpu  time for SCC    0.01 s
wall time for SCC    0.01 s
speedup  0.99
cpu  time for grad    0.01 s
wall time for grad    0.01 s
 E :    -50.44941232  G :  0.042211    pred/act E change: -0.286D-02 -0.855D-03
Maxdispl :   0.2178   ||displ|| :   0.3474   Lambda : -0.293D-02
Largest |displ|/coords:  0.2178 (   4)  0.1076 (  11)  0.0972 (   5)
................................................................................
.............................. CYCLE   15 ......................................
................................................................................
   1    -50.7436599 -0.507437E+02  0.306E-01    9.14       0.0  T
   2    -50.7436990 -0.391084E-04  0.229E-01    9.14       1.0  T
   3    -50.7437320 -0.330236E-04  0.377E-02    9.13       1.0  T
   4    -50.7437366 -0.462617E-05  0.133E-02    9.13       1.5  T
   5    -50.7437369 -0.282050E-06  0.478E-03    9.13       4.1  T
   6    -50.7437369 -0.226889E-07  0.243E-03    9.13       8.1  T
speedup  0.91
cpu  time for SCC    0.00 s
wall time for SCC    0.01 s
speedup  0.98
cpu  time for grad    0.01 s
wall time for grad    0.01 s
 E :    -50.45042394  G :  0.031835    pred/act E change: -0.203D-02 -0.101D-02
Maxdispl :   0.0921   ||displ|| :   0.2360   Lambda : -0.228D-02
Largest |displ|/coords:  0.0921 (  14)  0.0890 (  12)  0.0673 (   6)
................................................................................
.............................. CYCLE   16 ......................................
................................................................................
   1    -50.7343684 -0.507344E+02  0.198E-01    9.08       0.0  T
   2    -50.7343926 -0.242669E-04  0.150E-01    9.09       1.0  T
   3    -50.7344144 -0.218208E-04  0.300E-02    9.11       1.0  T
   4    -50.7344168 -0.231033E-05  0.124E-02    9.11       1.6  T
   5    -50.7344170 -0.199200E-06  0.308E-03    9.11       6.4  T
   6    -50.7344170 -0.107247E-07  0.171E-03    9.11      11.5  T
speedup  0.94
cpu  time for SCC    0.01 s
wall time for SCC    0.01 s
speedup  0.99
cpu  time for grad    0.01 s
wall time for grad    0.01 s
 E :    -50.45100555  G :  0.027050    pred/act E change: -0.164D-02 -0.582D-03
Maxdispl :   0.0774   ||displ|| :   0.2100   Lambda : -0.163D-02
Largest |displ|/coords:  0.0774 (   6)  0.0736 (   7)  0.0706 (  17)
................................................................................
.............................. CYCLE   17 ......................................
................................................................................
   1    -50.7356828 -0.507357E+02  0.199E-01    9.09       0.0  T
   2    -50.7357098 -0.270345E-04  0.151E-01    9.08       1.0  T
   3    -50.7357265 -0.167293E-04  0.318E-02    9.07       1.0  T
   4    -50.7357303 -0.380078E-05  0.119E-02    9.07       1.7  T
   5    -50.7357305 -0.228390E-06  0.285E-03    9.07       6.9  T
   6    -50.7357306 -0.865408E-08  0.170E-03    9.07      11.5  T
speedup  1.11
cpu  time for SCC    0.01 s
wall time for SCC    0.01 s
speedup  0.99
cpu  time for grad    0.01 s
wall time for grad    0.01 s
 E :    -50.45143542  G :  0.025306    pred/act E change: -0.120D-02 -0.430D-03
Maxdispl :   0.0783   ||displ|| :   0.2017   Lambda : -0.156D-02
Largest |displ|/coords:  0.0783 (  11)  0.0687 (  14)  0.0617 (  18)
................................................................................
.............................. CYCLE   18 ......................................
................................................................................
   1    -50.7451393 -0.507451E+02  0.211E-01    9.09       0.0  T
   2    -50.7451624 -0.231184E-04  0.159E-01    9.09       1.0  T
   3    -50.7451771 -0.146524E-04  0.291E-02    9.08       1.0  T
   4    -50.7451802 -0.312534E-05  0.553E-03    9.08       3.5  T
   5    -50.7451803 -0.537208E-07  0.261E-03    9.08       7.5  T
speedup  0.87
cpu  time for SCC    0.00 s
wall time for SCC    0.00 s
speedup  0.97
cpu  time for grad    0.01 s
wall time for grad    0.01 s
 E :    -50.45188396  G :  0.017204    pred/act E change: -0.850D-03 -0.449D-03
Maxdispl :   0.1257   ||displ|| :   0.2469   Lambda : -0.977D-03
Largest |displ|/coords:  0.1257 (  14)  0.1141 (   4)  0.0894 (   1)
................................................................................
.............................. CYCLE   19 ......................................
................................................................................
   1    -50.7407958 -0.507408E+02  0.202E-01    9.13       0.0  T
   2    -50.7408152 -0.194193E-04  0.151E-01    9.13       1.0  T
   3    -50.7408261 -0.109559E-04  0.283E-02    9.12       1.0  T
   4    -50.7408289 -0.279980E-05  0.869E-03    9.12       2.3  T
   5    -50.7408291 -0.188437E-06  0.281E-03    9.13       7.0  T
   6    -50.7408291 -0.629561E-08  0.169E-03    9.13      11.6  T
speedup  0.94
cpu  time for SCC    0.00 s
wall time for SCC    0.01 s
speedup  0.99
cpu  time for grad    0.01 s
wall time for grad    0.01 s
 E :    -50.45221704  G :  0.020559    pred/act E change: -0.813D-03 -0.333D-03
Maxdispl :   0.0691   ||displ|| :   0.1657   Lambda : -0.858D-03
Largest |displ|/coords:  0.0691 (   1)  0.0580 (  12)  0.0569 (  11)
................................................................................
.............................. CYCLE   20 ......................................
................................................................................
   1    -50.7381847 -0.507382E+02  0.123E-01    9.13       0.0  T
   2    -50.7381933 -0.860181E-05  0.926E-02    9.13       1.0  T
   3    -50.7381993 -0.601231E-05  0.177E-02    9.13       1.1  T
   4    -50.7382004 -0.106640E-05  0.611E-03    9.13       3.2  T
   5    -50.7382004 -0.626255E-07  0.162E-03    9.13      12.1  T
   6    -50.7382004 -0.273774E-08  0.885E-04    9.13      22.2  T
speedup  1.11
cpu  time for SCC    0.01 s
wall time for SCC    0.01 s
speedup  0.99
cpu  time for grad    0.01 s
wall time for grad    0.01 s
 E :    -50.45244572  G :  0.017870    pred/act E change: -0.518D-03 -0.229D-03
Maxdispl :   0.0630   ||displ|| :   0.1703   Lambda : -0.801D-03
Largest |displ|/coords:  0.0630 (   5)  0.0602 (   1)  0.0497 (  10)
................................................................................
.............................. CYCLE   21 ......................................
................................................................................
   1    -50.7427233 -0.507427E+02  0.127E-01    9.12       0.0  T
   2    -50.7427307 -0.737191E-05  0.957E-02    9.12       1.0  T
   3    -50.7427363 -0.557279E-05  0.164E-02    9.12       1.2  T
   4    -50.7427373 -0.976875E-06  0.657E-03    9.12       3.0  T
   5    -50.7427373 -0.623130E-07  0.175E-03    9.12      11.2  T
   6    -50.7427373 -0.316280E-08  0.100E-03    9.12      19.5  T
speedup  0.93
cpu  time for SCC    0.01 s
wall time for SCC    0.01 s
speedup  0.98
cpu  time for grad    0.01 s
wall time for grad    0.01 s
 E :    -50.45266019  G :  0.015632    pred/act E change: -0.441D-03 -0.214D-03
Maxdispl :   0.0703   ||displ|| :   0.1783   Lambda : -0.752D-03
Largest |displ|/coords:  0.0703 (   1)  0.0655 (  13)  0.0522 (   8)
................................................................................
.............................. CYCLE   22 ......................................
................................................................................
   1    -50.7426064 -0.507426E+02  0.150E-01    9.13       0.0  T
   2    -50.7426134 -0.694987E-05  0.112E-01    9.12       1.0  T
   3    -50.7426172 -0.387330E-05  0.189E-02    9.12       1.0  T
   4    -50.7426183 -0.102495E-05  0.532E-03    9.12       3.7  T
   5    -50.7426183 -0.509607E-07  0.154E-03    9.12      12.8  T
   6    -50.7426183 -0.132253E-08  0.871E-04    9.12      22.5  T
speedup  0.93
cpu  time for SCC    0.00 s
wall time for SCC    0.01 s
speedup  0.99
cpu  time for grad    0.01 s
wall time for grad    0.01 s
 E :    -50.45300223  G :  0.012685    pred/act E change: -0.412D-03 -0.342D-03
Maxdispl :   0.1127   ||displ|| :   0.1847   Lambda : -0.373D-03
Largest |displ|/coords:  0.1127 (   1)  0.0824 (  14)  0.0491 (   7)
................................................................................
.............................. CYCLE   23 ......................................
................................................................................
   1    -50.7419548 -0.507420E+02  0.104E-01    9.16       0.0  T
   2    -50.7419586 -0.386682E-05  0.781E-02    9.16       1.0  T
   3    -50.7419606 -0.201977E-05  0.121E-02    9.16       1.6  T
   4    -50.7419613 -0.674632E-06  0.383E-03    9.16       5.1  T
   5    -50.7419614 -0.308796E-07  0.119E-03    9.16      16.5  T
   6    -50.7419614 -0.136648E-08  0.661E-04    9.16      29.7  T
speedup  0.94
cpu  time for SCC    0.00 s
wall time for SCC    0.01 s
speedup  0.99
cpu  time for grad    0.01 s
wall time for grad    0.01 s
 E :    -50.45324093  G :  0.011914    pred/act E change: -0.388D-03 -0.239D-03
Maxdispl :   0.1917   ||displ|| :   0.2543   Lambda : -0.461D-03
Largest |displ|/coords:  0.1917 (   1)  0.0603 (   7)  0.0540 (   8)
................................................................................
.............................. CYCLE   24 ......................................
................................................................................
   1    -50.7424917 -0.507425E+02  0.128E-01    9.19       0.0  T
   2    -50.7424964 -0.477981E-05  0.962E-02    9.18       1.0  T
   3    -50.7424999 -0.347759E-05  0.145E-02    9.18       1.4  T
   4    -50.7425005 -0.612406E-06  0.376E-03    9.18       5.2  T
   5    -50.7425005 -0.266822E-07  0.131E-03    9.18      15.0  T
   6    -50.7425006 -0.165275E-08  0.718E-04    9.18      27.3  T
speedup  0.93
cpu  time for SCC    0.00 s
wall time for SCC    0.01 s
speedup  0.98
cpu  time for grad    0.01 s
wall time for grad    0.01 s
 E :    -50.45350212  G :  0.012280    pred/act E change: -0.193D-03 -0.261D-03
Maxdispl :   0.2482   ||displ|| :   0.3733   Lambda : -0.534D-03
Largest |displ|/coords:  0.2482 (   1)  0.1264 (   7)  0.0993 (   4)
................................................................................
.............................. CYCLE   25 ......................................
................................................................................
   1    -50.7399315 -0.507399E+02  0.273E-01    9.16       0.0  T
   2    -50.7399466 -0.150516E-04  0.206E-01    9.16       1.0  T
   3    -50.7399598 -0.132425E-04  0.229E-02    9.16       1.0  T
   4    -50.7399616 -0.181789E-05  0.648E-03    9.16       3.0  T
   5    -50.7399617 -0.545824E-07  0.294E-03    9.16       6.7  T
   6    -50.7399617 -0.777970E-08  0.131E-03    9.16      15.0  T
speedup  1.11
cpu  time for SCC    0.01 s
wall time for SCC    0.01 s
speedup  1.06
cpu  time for grad    0.01 s
wall time for grad    0.01 s
 E :    -50.45345791  G :  0.031032    pred/act E change: -0.245D-03  0.442D-04
Maxdispl :   0.0683   ||displ|| :   0.1593   Lambda : -0.118D-02
Largest |displ|/coords:  0.0683 (   2)  0.0593 (   8)  0.0469 (  12)

generating ANC from model Hessian ...
 Shifting diagonal of input Hessian by   4.945616733029986E-003
 Lowest  eigenvalues of input Hessian
   -0.000000   -0.000000    0.000000    0.000000    0.000000    0.000000
    0.005000    0.005361    0.005479    0.006286    0.006504    0.006849
    0.007172    0.008561    0.009095    0.010508    0.010989    0.011787
 Highest eigenvalues
    1.428634    1.432744    1.456047    2.622240    3.454376    3.654659
 
cpu  time for ANC gen    0.02 s
wall time for ANC gen    0.02 s
................................................................................
.............................. CYCLE   26 ......................................
................................................................................
   1    -50.7455571 -0.507456E+02  0.104E-01    9.21       0.0  T
   2    -50.7455705 -0.133336E-04  0.761E-02    9.21       1.0  T
   3    -50.7455797 -0.924531E-05  0.203E-02    9.22       1.0  T
   4    -50.7455809 -0.112655E-05  0.659E-03    9.22       3.0  T
   5    -50.7455809 -0.906338E-07  0.219E-03    9.22       8.9  T
   6    -50.7455809 -0.553478E-08  0.113E-03    9.22      17.3  T
   7    -50.7455809 -0.238210E-08  0.296E-04    9.22      66.4  T
   8    -50.7455809 -0.187754E-09  0.693E-05    9.22     282.9  T
speedup  0.97
cpu  time for SCC    0.01 s
wall time for SCC    0.01 s
speedup  0.97
cpu  time for grad    0.01 s
wall time for grad    0.02 s
 E :    -50.45389541  G :  0.012327    pred/act E change:  0.000D+00 -0.438D-03
Maxdispl :   0.1353   ||displ|| :   0.2768   Lambda : -0.107D-02
Largest |displ|/coords:  0.1353 (   7)  0.1088 (   1)  0.0924 (  11)
................................................................................
.............................. CYCLE   27 ......................................
................................................................................
   1    -50.7435302 -0.507435E+02  0.303E-01    9.20       0.0  T
   2    -50.7435414 -0.111245E-04  0.230E-01    9.20       1.0  T
   3    -50.7435532 -0.118084E-04  0.163E-02    9.20       1.2  T
   4    -50.7435541 -0.954938E-06  0.657E-03    9.20       3.0  T
   5    -50.7435542 -0.513427E-07  0.245E-03    9.20       8.0  T
   6    -50.7435542 -0.215145E-08  0.108E-03    9.20      18.1  T
speedup  0.91
cpu  time for SCC    0.00 s
wall time for SCC    0.01 s
speedup  0.97
cpu  time for grad    0.01 s
wall time for grad    0.01 s
 E :    -50.45464360  G :  0.010526    pred/act E change:  0.000D+00 -0.748D-03
Maxdispl :   0.2000   ||displ|| :   0.4405   Lambda : -0.114D-02
Largest |displ|/coords:  0.2000 (   1)  0.1939 (   7)  0.1311 (  13)
................................................................................
.............................. CYCLE   28 ......................................
................................................................................
   1    -50.7353623 -0.507354E+02  0.461E-01    9.15       0.0  T
   2    -50.7353996 -0.372463E-04  0.348E-01    9.15       1.0  T
   3    -50.7354347 -0.351275E-04  0.318E-02    9.15       1.0  T
   4    -50.7354389 -0.418295E-05  0.990E-03    9.15       2.0  T
   5    -50.7354390 -0.810015E-07  0.494E-03    9.15       4.0  T
   6    -50.7354390 -0.324465E-07  0.191E-03    9.15      10.3  T
   7    -50.7354390 -0.996513E-08  0.378E-04    9.15      51.9  T
speedup  1.13
cpu  time for SCC    0.01 s
wall time for SCC    0.01 s
speedup  1.06
cpu  time for grad    0.01 s
wall time for grad    0.01 s
 E :    -50.45428881  G :  0.047446    pred/act E change: -0.576D-03  0.355D-03
Maxdispl :   0.1101   ||displ|| :   0.1904   Lambda : -0.258D-02
Largest |displ|/coords:  0.1101 (  13)  0.0793 (  11)  0.0473 (  26)
................................................................................
.............................. CYCLE   29 ......................................
................................................................................
   1    -50.7428009 -0.507428E+02  0.270E-01    9.15       0.0  T
   2    -50.7428370 -0.361067E-04  0.205E-01    9.15       1.0  T
   3    -50.7428662 -0.291996E-04  0.329E-02    9.15       1.0  T
   4    -50.7428710 -0.479666E-05  0.661E-03    9.15       3.0  T
   5    -50.7428710 -0.553044E-07  0.376E-03    9.15       5.2  T
   6    -50.7428710 -0.125896E-07  0.127E-03    9.15      15.5  T
speedup  1.09
cpu  time for SCC    0.01 s
wall time for SCC    0.01 s
speedup  1.05
cpu  time for grad    0.01 s
wall time for grad    0.01 s
 E :    -50.45529820  G :  0.012260    pred/act E change: -0.682D-03 -0.101D-02
Maxdispl :   0.0653   ||displ|| :   0.1654   Lambda : -0.599D-03
Largest |displ|/coords:  0.0653 (  12)  0.0635 (   9)  0.0507 (   7)
................................................................................
.............................. CYCLE   30 ......................................
................................................................................
   1    -50.7457320 -0.507457E+02  0.169E-01    9.15       0.0  T
   2    -50.7457400 -0.797202E-05  0.129E-01    9.15       1.0  T
   3    -50.7457469 -0.689161E-05  0.146E-02    9.16       1.3  T
   4    -50.7457478 -0.996472E-06  0.452E-03    9.16       4.3  T
   5    -50.7457479 -0.358226E-07  0.173E-03    9.16      11.3  T
   6    -50.7457479 -0.106389E-08  0.879E-04    9.16      22.3  T
speedup  0.93
cpu  time for SCC    0.00 s
wall time for SCC    0.01 s
speedup  0.98
cpu  time for grad    0.01 s
wall time for grad    0.01 s
 E :    -50.45546497  G :  0.010543    pred/act E change: -0.134D-02 -0.167D-03
Maxdispl :   0.1281   ||displ|| :   0.2584   Lambda : -0.597D-03
Largest |displ|/coords:  0.1281 (   1)  0.1073 (   9)  0.0951 (   7)
................................................................................
.............................. CYCLE   31 ......................................
................................................................................
   1    -50.7437884 -0.507438E+02  0.218E-01    9.13       0.0  T
   2    -50.7437946 -0.616859E-05  0.165E-01    9.13       1.0  T
   3    -50.7438016 -0.697646E-05  0.125E-02    9.13       1.6  T
   4    -50.7438020 -0.481824E-06  0.410E-03    9.13       4.8  T
   5    -50.7438021 -0.168782E-07  0.191E-03    9.13      10.3  T
   6    -50.7438021 -0.490959E-08  0.809E-04    9.13      24.2  T
speedup  0.93
cpu  time for SCC    0.00 s
wall time for SCC    0.01 s
speedup  0.92
cpu  time for grad    0.01 s
wall time for grad    0.01 s
 E :    -50.45593853  G :  0.009748    pred/act E change: -0.308D-03 -0.474D-03
Maxdispl :   0.2698   ||displ|| :   0.5268   Lambda : -0.885D-03
Largest |displ|/coords:  0.2698 (   1)  0.2148 (   7)  0.1960 (   9)
................................................................................
.............................. CYCLE   32 ......................................
................................................................................
   1    -50.7362425 -0.507362E+02  0.415E-01    9.03       0.0  T
   2    -50.7362597 -0.171922E-04  0.313E-01    9.04       1.0  T
   3    -50.7362773 -0.175704E-04  0.223E-02    9.04       1.0  T
   4    -50.7362790 -0.170447E-05  0.788E-03    9.04       2.5  T
   5    -50.7362790 -0.613859E-07  0.367E-03    9.04       5.3  T
   6    -50.7362790 -0.170357E-07  0.159E-03    9.04      12.4  T
   7    -50.7362790 -0.600753E-08  0.344E-04    9.04      57.0  T
speedup  1.09
cpu  time for SCC    0.01 s
wall time for SCC    0.01 s
speedup  1.05
cpu  time for grad    0.01 s
wall time for grad    0.01 s
 E :    -50.45611990  G :  0.030499    pred/act E change: -0.318D-03 -0.181D-03
Maxdispl :   0.0851   ||displ|| :   0.1435   Lambda : -0.928D-03
Largest |displ|/coords:  0.0851 (   7)  0.0690 (   3)  0.0564 (   4)
................................................................................
.............................. CYCLE   33 ......................................
................................................................................
   1    -50.7420028 -0.507420E+02  0.127E-01    9.09       0.0  T
   2    -50.7420080 -0.521398E-05  0.949E-02    9.09       1.0  T
   3    -50.7420113 -0.327965E-05  0.130E-02    9.09       1.5  T
   4    -50.7420121 -0.772441E-06  0.290E-03    9.09       6.8  T
   5    -50.7420121 -0.808608E-08  0.164E-03    9.09      12.0  T
speedup  1.09
cpu  time for SCC    0.01 s
wall time for SCC    0.00 s
speedup  1.05
cpu  time for grad    0.01 s
wall time for grad    0.01 s
 E :    -50.45655087  G :  0.018312    pred/act E change: -0.565D-03 -0.431D-03
Maxdispl :   0.1124   ||displ|| :   0.2137   Lambda : -0.935D-03
Largest |displ|/coords:  0.1124 (   3)  0.0825 (  11)  0.0684 (  12)
................................................................................
.............................. CYCLE   34 ......................................
................................................................................
   1    -50.7489985 -0.507490E+02  0.194E-01    9.18       0.0  T
   2    -50.7490190 -0.204948E-04  0.145E-01    9.19       1.0  T
   3    -50.7490334 -0.144076E-04  0.256E-02    9.19       1.0  T
   4    -50.7490360 -0.262985E-05  0.593E-03    9.19       3.3  T
   5    -50.7490360 -0.446218E-07  0.322E-03    9.19       6.1  T
   6    -50.7490361 -0.940826E-08  0.127E-03    9.19      15.4  T
   7    -50.7490361 -0.377877E-08  0.265E-04    9.19      74.1  T
speedup  1.11
cpu  time for SCC    0.01 s
wall time for SCC    0.01 s
speedup  0.99
cpu  time for grad    0.01 s
wall time for grad    0.01 s
 E :    -50.45632975  G :  0.027773    pred/act E change: -0.474D-03  0.221D-03
Maxdispl :   0.1409   ||displ|| :   0.2399   Lambda : -0.115D-02
Largest |displ|/coords:  0.1409 (   1)  0.0844 (   9)  0.0707 (  11)
................................................................................
.............................. CYCLE   35 ......................................
................................................................................
   1    -50.7458756 -0.507459E+02  0.204E-01    9.18       0.0  T
   2    -50.7458852 -0.956541E-05  0.154E-01    9.17       1.0  T
   3    -50.7458937 -0.850887E-05  0.168E-02    9.17       1.2  T
   4    -50.7458949 -0.116765E-05  0.492E-03    9.17       4.0  T
   5    -50.7458949 -0.289709E-07  0.236E-03    9.17       8.3  T
speedup  1.06
cpu  time for SCC    0.00 s
wall time for SCC    0.00 s
speedup  1.04
cpu  time for grad    0.01 s
wall time for grad    0.01 s
 E :    -50.45711142  G :  0.008258    pred/act E change: -0.489D-03 -0.782D-03
Maxdispl :   0.2367   ||displ|| :   0.4463   Lambda : -0.684D-03
Largest |displ|/coords:  0.2367 (   1)  0.2200 (   9)  0.1413 (   4)
................................................................................
.............................. CYCLE   36 ......................................
................................................................................
   1    -50.7385765 -0.507386E+02  0.334E-01    9.08       0.0  T
   2    -50.7385938 -0.172396E-04  0.252E-01    9.08       1.0  T
   3    -50.7386124 -0.186267E-04  0.247E-02    9.08       1.0  T
   4    -50.7386139 -0.148130E-05  0.649E-03    9.08       3.0  T
   5    -50.7386139 -0.443392E-07  0.332E-03    9.08       5.9  T
   6    -50.7386140 -0.148828E-07  0.140E-03    9.08      14.0  T
   7    -50.7386140 -0.419280E-08  0.329E-04    9.08      59.6  T
speedup  0.95
cpu  time for SCC    0.01 s
wall time for SCC    0.01 s
speedup  0.99
cpu  time for grad    0.01 s
wall time for grad    0.01 s
 E :    -50.45728329  G :  0.027566    pred/act E change: -0.607D-03 -0.172D-03
Maxdispl :   0.0504   ||displ|| :   0.1129   Lambda : -0.686D-03
Largest |displ|/coords:  0.0504 (   1)  0.0459 (   3)  0.0276 (  16)
................................................................................
.............................. CYCLE   37 ......................................
................................................................................
   1    -50.7439763 -0.507440E+02  0.755E-02    9.17       0.0  T
   2    -50.7439803 -0.398325E-05  0.558E-02    9.17       1.0  T
   3    -50.7439829 -0.257961E-05  0.117E-02    9.16       1.7  T
   4    -50.7439833 -0.414087E-06  0.290E-03    9.16       6.8  T
   5    -50.7439833 -0.159903E-07  0.117E-03    9.16      16.7  T
speedup  0.87
cpu  time for SCC    0.00 s
wall time for SCC    0.00 s
speedup  0.98
cpu  time for grad    0.01 s
wall time for grad    0.01 s
 E :    -50.45772814  G :  0.012998    pred/act E change: -0.410D-03 -0.445D-03
Maxdispl :   0.1690   ||displ|| :   0.3604   Lambda : -0.784D-03
Largest |displ|/coords:  0.1690 (   1)  0.1431 (   9)  0.1232 (   6)
................................................................................
.............................. CYCLE   38 ......................................
................................................................................
   1    -50.7466603 -0.507467E+02  0.213E-01    9.21       0.0  T
   2    -50.7466730 -0.126698E-04  0.160E-01    9.21       1.0  T
   3    -50.7466854 -0.124459E-04  0.209E-02    9.21       1.0  T
   4    -50.7466867 -0.126759E-05  0.480E-03    9.21       4.1  T
   5    -50.7466867 -0.224750E-07  0.259E-03    9.21       7.6  T
   6    -50.7466867 -0.969179E-08  0.979E-04    9.21      20.0  T
speedup  0.89
cpu  time for SCC    0.00 s
wall time for SCC    0.01 s
speedup  0.89
cpu  time for grad    0.01 s
wall time for grad    0.01 s
 E :    -50.45803465  G :  0.021390    pred/act E change: -0.347D-03 -0.307D-03
Maxdispl :   0.1698   ||displ|| :   0.3598   Lambda : -0.879D-03
Largest |displ|/coords:  0.1698 (   1)  0.1562 (   4)  0.1423 (   9)
................................................................................
.............................. CYCLE   39 ......................................
................................................................................
   1    -50.7472810 -0.507473E+02  0.218E-01    9.22       0.0  T
   2    -50.7472893 -0.831260E-05  0.164E-01    9.22       1.0  T
   3    -50.7472969 -0.761568E-05  0.184E-02    9.22       1.1  T
   4    -50.7472978 -0.874924E-06  0.432E-03    9.22       4.5  T
   5    -50.7472978 -0.255960E-07  0.208E-03    9.22       9.4  T
speedup  0.89
cpu  time for SCC    0.00 s
wall time for SCC    0.00 s
speedup  0.97
cpu  time for grad    0.01 s
wall time for grad    0.01 s
 E :    -50.45863936  G :  0.008300    pred/act E change: -0.443D-03 -0.605D-03
Maxdispl :   0.3225   ||displ|| :   0.5694   Lambda : -0.839D-03
Largest |displ|/coords:  0.3225 (   1)  0.2177 (   4)  0.1987 (   9)
................................................................................
.............................. CYCLE   40 ......................................
................................................................................
   1    -50.7439094 -0.507439E+02  0.344E-01    9.24       0.0  T
   2    -50.7439297 -0.203383E-04  0.259E-01    9.23       1.0  T
   3    -50.7439530 -0.232739E-04  0.264E-02    9.23       1.0  T
   4    -50.7439545 -0.157779E-05  0.791E-03    9.23       2.5  T
   5    -50.7439546 -0.693967E-07  0.375E-03    9.23       5.2  T
   6    -50.7439546 -0.177633E-07  0.161E-03    9.23      12.2  T
   7    -50.7439546 -0.603573E-08  0.399E-04    9.23      49.2  T
speedup  0.95
cpu  time for SCC    0.01 s
wall time for SCC    0.01 s
speedup  0.97
cpu  time for grad    0.01 s
wall time for grad    0.01 s
 E :    -50.45890349  G :  0.024214    pred/act E change: -0.496D-03 -0.264D-03
Maxdispl :   0.0615   ||displ|| :   0.1650   Lambda : -0.822D-03
Largest |displ|/coords:  0.0615 (   7)  0.0579 (   9)  0.0524 (   4)
................................................................................
.............................. CYCLE   41 ......................................
................................................................................
   1    -50.7487288 -0.507487E+02  0.113E-01    9.20       0.0  T
   2    -50.7487358 -0.704967E-05  0.844E-02    9.20       1.0  T
   3    -50.7487408 -0.497992E-05  0.168E-02    9.20       1.2  T
   4    -50.7487417 -0.863583E-06  0.409E-03    9.20       4.8  T
   5    -50.7487417 -0.329085E-07  0.166E-03    9.20      11.8  T
speedup  0.89
cpu  time for SCC    0.00 s
wall time for SCC    0.00 s
speedup  0.97
cpu  time for grad    0.01 s
wall time for grad    0.01 s
 E :    -50.45921955  G :  0.012187    pred/act E change: -0.556D-03 -0.316D-03
Maxdispl :   0.1042   ||displ|| :   0.2444   Lambda : -0.670D-03
Largest |displ|/coords:  0.1042 (   1)  0.0989 (   4)  0.0897 (   3)
................................................................................
.............................. CYCLE   42 ......................................
................................................................................
   1    -50.7502755 -0.507503E+02  0.133E-01    9.29       0.0  T
   2    -50.7502806 -0.507954E-05  0.100E-01    9.29       1.0  T
   3    -50.7502853 -0.463902E-05  0.129E-02    9.29       1.5  T
   4    -50.7502859 -0.613880E-06  0.500E-03    9.29       3.9  T
   5    -50.7502859 -0.373614E-07  0.180E-03    9.29      10.9  T
   6    -50.7502859 -0.306735E-08  0.905E-04    9.29      21.7  T
speedup  0.91
cpu  time for SCC    0.01 s
wall time for SCC    0.01 s
speedup  0.97
cpu  time for grad    0.01 s
wall time for grad    0.01 s
 E :    -50.45942723  G :  0.014668    pred/act E change: -0.422D-03 -0.208D-03
Maxdispl :   0.1278   ||displ|| :   0.2389   Lambda : -0.484D-03
Largest |displ|/coords:  0.1278 (   4)  0.1111 (   1)  0.0579 (  20)
................................................................................
.............................. CYCLE   43 ......................................
................................................................................
   1    -50.7495641 -0.507496E+02  0.157E-01    9.23       0.0  T
   2    -50.7495695 -0.538628E-05  0.119E-01    9.23       1.0  T
   3    -50.7495750 -0.554156E-05  0.134E-02    9.23       1.5  T
   4    -50.7495755 -0.532445E-06  0.388E-03    9.23       5.1  T
   5    -50.7495756 -0.245121E-07  0.170E-03    9.23      11.5  T
   6    -50.7495756 -0.343634E-08  0.823E-04    9.23      23.8  T
speedup  0.91
cpu  time for SCC    0.00 s
wall time for SCC    0.01 s
speedup  0.96
cpu  time for grad    0.01 s
wall time for grad    0.01 s
 E :    -50.45971282  G :  0.010856    pred/act E change: -0.355D-03 -0.286D-03
Maxdispl :   0.1217   ||displ|| :   0.2402   Lambda : -0.437D-03
Largest |displ|/coords:  0.1217 (   1)  0.1148 (   4)  0.0995 (  10)
................................................................................
.............................. CYCLE   44 ......................................
................................................................................
   1    -50.7542086 -0.507542E+02  0.150E-01    9.38       0.0  T
   2    -50.7542145 -0.582956E-05  0.111E-01    9.38       1.0  T
   3    -50.7542184 -0.398013E-05  0.180E-02    9.38       1.1  T
   4    -50.7542193 -0.821964E-06  0.569E-03    9.37       3.4  T
   5    -50.7542193 -0.432287E-07  0.185E-03    9.38      10.6  T
   6    -50.7542193 -0.306242E-08  0.103E-03    9.38      19.0  T
speedup  0.93
cpu  time for SCC    0.00 s
wall time for SCC    0.01 s
speedup  0.97
cpu  time for grad    0.01 s
wall time for grad    0.01 s
 E :    -50.45975717  G :  0.017466    pred/act E change: -0.256D-03 -0.444D-04
Maxdispl :   0.1836   ||displ|| :   0.3566   Lambda : -0.681D-03
Largest |displ|/coords:  0.1836 (   4)  0.1356 (   9)  0.1284 (   1)
................................................................................
.............................. CYCLE   45 ......................................
................................................................................
   1    -50.7453827 -0.507454E+02  0.259E-01    9.11       0.0  T
   2    -50.7453974 -0.146673E-04  0.194E-01    9.11       1.0  T
   3    -50.7454091 -0.117641E-04  0.263E-02    9.12       1.0  T
   4    -50.7454109 -0.175150E-05  0.661E-03    9.12       3.0  T
   5    -50.7454110 -0.845773E-07  0.246E-03    9.12       8.0  T
   6    -50.7454110 -0.589480E-08  0.125E-03    9.12      15.7  T
speedup  0.93
cpu  time for SCC    0.01 s
wall time for SCC    0.01 s
speedup  0.98
cpu  time for grad    0.01 s
wall time for grad    0.01 s
 E :    -50.45978598  G :  0.020519    pred/act E change: -0.231D-03 -0.288D-04
Maxdispl :   0.0972   ||displ|| :   0.2323   Lambda : -0.118D-02
Largest |displ|/coords:  0.0972 (   1)  0.0770 (   9)  0.0750 (   8)
................................................................................
.............................. CYCLE   46 ......................................
................................................................................
   1    -50.7542727 -0.507543E+02  0.162E-01    9.16       0.0  T
   2    -50.7542813 -0.863832E-05  0.122E-01    9.16       1.0  T
   3    -50.7542885 -0.720430E-05  0.185E-02    9.16       1.1  T
   4    -50.7542895 -0.986506E-06  0.566E-03    9.16       3.5  T
   5    -50.7542896 -0.445668E-07  0.217E-03    9.16       9.0  T
speedup  0.89
cpu  time for SCC    0.00 s
wall time for SCC    0.00 s
speedup  0.96
cpu  time for grad    0.01 s
wall time for grad    0.01 s
 E :    -50.45992982  G :  0.019642    pred/act E change: -0.384D-03 -0.144D-03
Maxdispl :   0.1228   ||displ|| :   0.2000   Lambda : -0.796D-03
Largest |displ|/coords:  0.1228 (   1)  0.0581 (  10)  0.0569 (   4)
................................................................................
.............................. CYCLE   47 ......................................
................................................................................
   1    -50.7536248 -0.507536E+02  0.134E-01    9.34       0.0  T
   2    -50.7536331 -0.831251E-05  0.100E-01    9.34       1.0  T
   3    -50.7536395 -0.639609E-05  0.193E-02    9.33       1.0  T
   4    -50.7536404 -0.968574E-06  0.608E-03    9.33       3.2  T
   5    -50.7536405 -0.649021E-07  0.206E-03    9.33       9.5  T
   6    -50.7536405 -0.318429E-08  0.109E-03    9.33      18.0  T
speedup  0.88
cpu  time for SCC    0.01 s
wall time for SCC    0.01 s
speedup  0.96
cpu  time for grad    0.01 s
wall time for grad    0.01 s
 E :    -50.46021294  G :  0.012586    pred/act E change: -0.623D-03 -0.283D-03
Maxdispl :   0.0710   ||displ|| :   0.1582   Lambda : -0.450D-03
Largest |displ|/coords:  0.0710 (  10)  0.0623 (   2)  0.0586 (   4)
................................................................................
.............................. CYCLE   48 ......................................
................................................................................
   1    -50.7531678 -0.507532E+02  0.116E-01    9.30       0.0  T
   2    -50.7531709 -0.310953E-05  0.875E-02    9.30       1.0  T
   3    -50.7531738 -0.290884E-05  0.108E-02    9.30       1.8  T
   4    -50.7531741 -0.262921E-06  0.298E-03    9.30       6.6  T
   5    -50.7531741 -0.147738E-07  0.116E-03    9.30      16.8  T
speedup  1.09
cpu  time for SCC    0.00 s
wall time for SCC    0.00 s
speedup  1.03
cpu  time for grad    0.01 s
wall time for grad    0.01 s
 E :    -50.46030860  G :  0.011554    pred/act E change: -0.414D-03 -0.957D-04
Maxdispl :   0.0809   ||displ|| :   0.1862   Lambda : -0.340D-03
Largest |displ|/coords:  0.0809 (   4)  0.0703 (   6)  0.0625 (   1)
................................................................................
.............................. CYCLE   49 ......................................
................................................................................
   1    -50.7518886 -0.507519E+02  0.129E-01    9.23       0.0  T
   2    -50.7518916 -0.299658E-05  0.973E-02    9.23       1.0  T
   3    -50.7518947 -0.308248E-05  0.105E-02    9.23       1.9  T
   4    -50.7518950 -0.276793E-06  0.282E-03    9.23       7.0  T
   5    -50.7518950 -0.114414E-07  0.121E-03    9.23      16.2  T
speedup  1.11
cpu  time for SCC    0.01 s
wall time for SCC    0.00 s
speedup  1.04
cpu  time for grad    0.01 s
wall time for grad    0.01 s
 E :    -50.46049413  G :  0.007839    pred/act E change: -0.231D-03 -0.186D-03
Maxdispl :   0.0638   ||displ|| :   0.1271   Lambda : -0.176D-03
Largest |displ|/coords:  0.0638 (   6)  0.0524 (  10)  0.0333 (   8)
................................................................................
.............................. CYCLE   50 ......................................
................................................................................
   1    -50.7525747 -0.507526E+02  0.915E-02    9.26       0.0  T
   2    -50.7525758 -0.101681E-05  0.690E-02    9.26       1.0  T
   3    -50.7525769 -0.113898E-05  0.621E-03    9.26       3.2  T
   4    -50.7525770 -0.711055E-07  0.221E-03    9.26       8.9  T
   5    -50.7525770 -0.513511E-08  0.730E-04    9.26      26.9  T
speedup  0.87
cpu  time for SCC    0.00 s
wall time for SCC    0.00 s
speedup  0.96
cpu  time for grad    0.01 s
wall time for grad    0.01 s
 E :    -50.46061891  G :  0.006607    pred/act E change: -0.176D-03 -0.125D-03
Maxdispl :   0.1287   ||displ|| :   0.3129   Lambda : -0.311D-03
Largest |displ|/coords:  0.1287 (  10)  0.1243 (   4)  0.1024 (   2)
................................................................................
.............................. CYCLE   51 ......................................
................................................................................
   1    -50.7534733 -0.507535E+02  0.227E-01    9.34       0.0  T
   2    -50.7534786 -0.536949E-05  0.171E-01    9.34       1.0  T
   3    -50.7534851 -0.645862E-05  0.133E-02    9.35       1.5  T
   4    -50.7534854 -0.353284E-06  0.478E-03    9.35       4.1  T
   5    -50.7534855 -0.233222E-07  0.201E-03    9.35       9.8  T
   6    -50.7534855 -0.518341E-08  0.849E-04    9.35      23.1  T
speedup  0.91
cpu  time for SCC    0.01 s
wall time for SCC    0.01 s
speedup  1.03
cpu  time for grad    0.01 s
wall time for grad    0.01 s
 E :    -50.46079621  G :  0.012059    pred/act E change: -0.896D-04 -0.177D-03
Maxdispl :   0.0875   ||displ|| :   0.2272   Lambda : -0.302D-03
Largest |displ|/coords:  0.0875 (  10)  0.0819 (   2)  0.0766 (   8)
................................................................................
.............................. CYCLE   52 ......................................
................................................................................
   1    -50.7531544 -0.507532E+02  0.166E-01    9.35       0.0  T
   2    -50.7531580 -0.360810E-05  0.125E-01    9.35       1.0  T
   3    -50.7531616 -0.351861E-05  0.976E-03    9.35       2.0  T
   4    -50.7531620 -0.399643E-06  0.336E-03    9.35       5.8  T
   5    -50.7531620 -0.147225E-07  0.145E-03    9.35      13.6  T
   6    -50.7531620 -0.318649E-08  0.598E-04    9.35      32.8  T
speedup  1.09
cpu  time for SCC    0.01 s
wall time for SCC    0.01 s
speedup  1.04
cpu  time for grad    0.01 s
wall time for grad    0.01 s
 E :    -50.46097458  G :  0.011336    pred/act E change: -0.171D-03 -0.178D-03
Maxdispl :   0.0840   ||displ|| :   0.1913   Lambda : -0.267D-03
Largest |displ|/coords:  0.0840 (   2)  0.0645 (   8)  0.0547 (   7)

generating ANC from model Hessian ...
 Shifting diagonal of input Hessian by   4.824215251692241E-003
 Lowest  eigenvalues of input Hessian
   -0.000000   -0.000000   -0.000000   -0.000000    0.000000    0.000000
    0.005000    0.005254    0.005521    0.006114    0.006511    0.006990
    0.007717    0.008126    0.008562    0.008922    0.009243    0.010296
 Highest eigenvalues
    1.393790    1.413073    1.441540    2.591572    3.501484    3.610331
 
cpu  time for ANC gen    0.03 s
wall time for ANC gen    0.03 s
................................................................................
.............................. CYCLE   53 ......................................
................................................................................
   1    -50.7537081 -0.507537E+02  0.131E-01    9.34       0.0  T
   2    -50.7537106 -0.253972E-05  0.991E-02    9.34       1.0  T
   3    -50.7537133 -0.267757E-05  0.784E-03    9.34       2.5  T
   4    -50.7537136 -0.234776E-06  0.368E-03    9.34       5.3  T
   5    -50.7537136 -0.191532E-07  0.115E-03    9.34      17.0  T
   6    -50.7537136 -0.173424E-08  0.645E-04    9.34      30.4  T
   7    -50.7537136 -0.997481E-09  0.150E-04    9.34     131.0  T
speedup  1.08
cpu  time for SCC    0.01 s
wall time for SCC    0.01 s
speedup  0.99
cpu  time for grad    0.01 s
wall time for grad    0.02 s
 E :    -50.46108310  G :  0.006839    pred/act E change:  0.000D+00 -0.109D-03
Maxdispl :   0.0546   ||displ|| :   0.1393   Lambda : -0.307D-03
Largest |displ|/coords:  0.0546 (  10)  0.0437 (  11)  0.0434 (   6)
................................................................................
.............................. CYCLE   54 ......................................
................................................................................
   1    -50.7537454 -0.507537E+02  0.143E-01    9.35       0.0  T
   2    -50.7537487 -0.327554E-05  0.108E-01    9.35       1.0  T
   3    -50.7537524 -0.371598E-05  0.100E-02    9.35       2.0  T
   4    -50.7537526 -0.216943E-06  0.364E-03    9.35       5.4  T
   5    -50.7537527 -0.138011E-07  0.112E-03    9.35      17.5  T
   6    -50.7537527 -0.848097E-09  0.601E-04    9.35      32.6  T
speedup  0.93
cpu  time for SCC    0.00 s
wall time for SCC    0.01 s
speedup  0.96
cpu  time for grad    0.01 s
wall time for grad    0.01 s
 E :    -50.46125133  G :  0.004597    pred/act E change:  0.000D+00 -0.168D-03
Maxdispl :   0.0735   ||displ|| :   0.1443   Lambda : -0.175D-03
Largest |displ|/coords:  0.0735 (  11)  0.0706 (   2)  0.0435 (   8)
................................................................................
.............................. CYCLE   55 ......................................
................................................................................
   1    -50.7535650 -0.507536E+02  0.130E-01    9.36       0.0  T
   2    -50.7535677 -0.262987E-05  0.978E-02    9.36       1.0  T
   3    -50.7535709 -0.322182E-05  0.942E-03    9.36       2.1  T
   4    -50.7535711 -0.170186E-06  0.288E-03    9.36       6.8  T
   5    -50.7535711 -0.100856E-07  0.131E-03    9.36      15.0  T
speedup  1.11
cpu  time for SCC    0.00 s
wall time for SCC    0.00 s
speedup  1.04
cpu  time for grad    0.01 s
wall time for grad    0.01 s
 E :    -50.46130894  G :  0.008890    pred/act E change: -0.156D-03 -0.576D-04
Maxdispl :   0.0543   ||displ|| :   0.1116   Lambda : -0.179D-03
Largest |displ|/coords:  0.0543 (   5)  0.0416 (  18)  0.0407 (   6)
................................................................................
.............................. CYCLE   56 ......................................
................................................................................
   1    -50.7544721 -0.507545E+02  0.804E-02    9.36       0.0  T
   2    -50.7544734 -0.124473E-05  0.601E-02    9.36       1.0  T
   3    -50.7544742 -0.835876E-06  0.778E-03    9.36       2.5  T
   4    -50.7544744 -0.185653E-06  0.256E-03    9.36       7.7  T
   5    -50.7544744 -0.107373E-07  0.737E-04    9.36      26.6  T
speedup  1.09
cpu  time for SCC    0.00 s
wall time for SCC    0.00 s
speedup  1.02
cpu  time for grad    0.01 s
wall time for grad    0.01 s
 E :    -50.46142868  G :  0.004649    pred/act E change: -0.893D-04 -0.120D-03
Maxdispl :   0.0895   ||displ|| :   0.1924   Lambda : -0.150D-03
Largest |displ|/coords:  0.0895 (  11)  0.0837 (   6)  0.0667 (  10)
................................................................................
.............................. CYCLE   57 ......................................
................................................................................
   1    -50.7539215 -0.507539E+02  0.151E-01    9.35       0.0  T
   2    -50.7539239 -0.246540E-05  0.114E-01    9.35       1.0  T
   3    -50.7539266 -0.267528E-05  0.110E-02    9.35       1.8  T
   4    -50.7539268 -0.215250E-06  0.380E-03    9.35       5.2  T
   5    -50.7539268 -0.181376E-07  0.129E-03    9.35      15.2  T
   6    -50.7539268 -0.174244E-08  0.735E-04    9.35      26.7  T
speedup  0.93
cpu  time for SCC    0.00 s
wall time for SCC    0.01 s
speedup  0.96
cpu  time for grad    0.01 s
wall time for grad    0.01 s
 E :    -50.46154275  G :  0.004889    pred/act E change: -0.906D-04 -0.114D-03
Maxdispl :   0.1581   ||displ|| :   0.3346   Lambda : -0.219D-03
Largest |displ|/coords:  0.1581 (  11)  0.1500 (   6)  0.1112 (   5)
................................................................................
.............................. CYCLE   58 ......................................
................................................................................
   1    -50.7514420 -0.507514E+02  0.255E-01    9.31       0.0  T
   2    -50.7514507 -0.862252E-05  0.191E-01    9.32       1.0  T
   3    -50.7514599 -0.920484E-05  0.188E-02    9.32       1.0  T
   4    -50.7514607 -0.815007E-06  0.733E-03    9.32       2.7  T
   5    -50.7514607 -0.649517E-07  0.248E-03    9.32       7.9  T
   6    -50.7514607 -0.737862E-08  0.142E-03    9.32      13.8  T
speedup  0.91
cpu  time for SCC    0.01 s
wall time for SCC    0.01 s
speedup  0.96
cpu  time for grad    0.01 s
wall time for grad    0.01 s
 E :    -50.46167682  G :  0.010422    pred/act E change: -0.780D-04 -0.134D-03
Maxdispl :   0.0938   ||displ|| :   0.1775   Lambda : -0.171D-03
Largest |displ|/coords:  0.0938 (  11)  0.0572 (  15)  0.0542 (   6)
................................................................................
.............................. CYCLE   59 ......................................
................................................................................
   1    -50.7518865 -0.507519E+02  0.125E-01    9.31       0.0  T
   2    -50.7518890 -0.246196E-05  0.940E-02    9.31       1.0  T
   3    -50.7518914 -0.240743E-05  0.948E-03    9.32       2.1  T
   4    -50.7518916 -0.273878E-06  0.369E-03    9.32       5.3  T
   5    -50.7518917 -0.132787E-07  0.113E-03    9.32      17.4  T
   6    -50.7518917 -0.164677E-08  0.651E-04    9.32      30.1  T
speedup  0.93
cpu  time for SCC    0.00 s
wall time for SCC    0.01 s
speedup  0.97
cpu  time for grad    0.01 s
wall time for grad    0.01 s
 E :    -50.46180519  G :  0.007741    pred/act E change: -0.122D-03 -0.128D-03
Maxdispl :   0.1776   ||displ|| :   0.3209   Lambda : -0.283D-03
Largest |displ|/coords:  0.1776 (  11)  0.1258 (   6)  0.1175 (  15)
................................................................................
.............................. CYCLE   60 ......................................
................................................................................
   1    -50.7523239 -0.507523E+02  0.230E-01    9.33       0.0  T
   2    -50.7523327 -0.872467E-05  0.173E-01    9.33       1.0  T
   3    -50.7523408 -0.808459E-05  0.163E-02    9.33       1.2  T
   4    -50.7523419 -0.112050E-05  0.686E-03    9.33       2.9  T
   5    -50.7523419 -0.505791E-07  0.236E-03    9.33       8.3  T
   6    -50.7523419 -0.795453E-08  0.127E-03    9.33      15.4  T
speedup  0.91
cpu  time for SCC    0.01 s
wall time for SCC    0.01 s
speedup  0.96
cpu  time for grad    0.01 s
wall time for grad    0.01 s
 E :    -50.46197876  G :  0.008703    pred/act E change: -0.880D-04 -0.174D-03
Maxdispl :   0.2624   ||displ|| :   0.4266   Lambda : -0.375D-03
Largest |displ|/coords:  0.2624 (  11)  0.1502 (   8)  0.1359 (   6)
................................................................................
.............................. CYCLE   61 ......................................
................................................................................
   1    -50.7483810 -0.507484E+02  0.333E-01    9.34       0.0  T
   2    -50.7484065 -0.255432E-04  0.250E-01    9.34       1.0  T
   3    -50.7484265 -0.199433E-04  0.295E-02    9.34       1.0  T
   4    -50.7484300 -0.348684E-05  0.869E-03    9.34       2.3  T
   5    -50.7484301 -0.111312E-06  0.372E-03    9.34       5.3  T
   6    -50.7484301 -0.178789E-07  0.192E-03    9.34      10.2  T
   7    -50.7484301 -0.821150E-08  0.445E-04    9.34      44.1  T
speedup  0.94
cpu  time for SCC    0.01 s
wall time for SCC    0.01 s
speedup  0.97
cpu  time for grad    0.01 s
wall time for grad    0.01 s
 E :    -50.46174838  G :  0.028502    pred/act E change: -0.156D-03  0.230D-03
Maxdispl :   0.0744   ||displ|| :   0.1856   Lambda : -0.135D-02
Largest |displ|/coords:  0.0744 (  10)  0.0676 (  12)  0.0546 (   3)
................................................................................
.............................. CYCLE   62 ......................................
................................................................................
   1    -50.7618813 -0.507619E+02  0.186E-01    9.50       0.0  T
   2    -50.7619050 -0.236939E-04  0.138E-01    9.50       1.0  T
   3    -50.7619224 -0.174089E-04  0.308E-02    9.49       1.0  T
   4    -50.7619247 -0.226582E-05  0.725E-03    9.49       2.7  T
   5    -50.7619248 -0.102412E-06  0.303E-03    9.49       6.5  T
   6    -50.7619248 -0.701398E-08  0.149E-03    9.49      13.2  T
speedup  0.91
cpu  time for SCC    0.00 s
wall time for SCC    0.01 s
speedup  0.96
cpu  time for grad    0.01 s
wall time for grad    0.01 s
 E :    -50.46167545  G :  0.030053    pred/act E change: -0.222D-03  0.729D-04
Maxdispl :   0.1205   ||displ|| :   0.2478   Lambda : -0.180D-02
Largest |displ|/coords:  0.1205 (   4)  0.0789 (   6)  0.0778 (   5)
................................................................................
.............................. CYCLE   63 ......................................
................................................................................
   1    -50.7511193 -0.507511E+02  0.251E-01    9.35       0.0  T
   2    -50.7511445 -0.252280E-04  0.190E-01    9.35       1.0  T
   3    -50.7511696 -0.251033E-04  0.282E-02    9.35       1.0  T
   4    -50.7511722 -0.261264E-05  0.876E-03    9.35       2.2  T
   5    -50.7511723 -0.103007E-06  0.347E-03    9.35       5.7  T
   6    -50.7511723 -0.124139E-07  0.160E-03    9.35      12.3  T
speedup  1.09
cpu  time for SCC    0.01 s
wall time for SCC    0.01 s
speedup  1.04
cpu  time for grad    0.01 s
wall time for grad    0.01 s
 E :    -50.46183157  G :  0.027496    pred/act E change: -0.697D-03 -0.156D-03
Maxdispl :   0.1003   ||displ|| :   0.1740   Lambda : -0.124D-02
Largest |displ|/coords:  0.1003 (   5)  0.0615 (   6)  0.0611 (   4)
................................................................................
.............................. CYCLE   64 ......................................
................................................................................
   1    -50.7556921 -0.507557E+02  0.155E-01    9.44       0.0  T
   2    -50.7557071 -0.149462E-04  0.116E-01    9.44       1.0  T
   3    -50.7557186 -0.115069E-04  0.222E-02    9.44       1.0  T
   4    -50.7557204 -0.183446E-05  0.646E-03    9.44       3.0  T
   5    -50.7557205 -0.662639E-07  0.257E-03    9.44       7.6  T
   6    -50.7557205 -0.546057E-08  0.126E-03    9.44      15.5  T
speedup  1.11
cpu  time for SCC    0.01 s
wall time for SCC    0.01 s
speedup  1.04
cpu  time for grad    0.01 s
wall time for grad    0.01 s
 E :    -50.46230283  G :  0.011018    pred/act E change: -0.958D-03 -0.471D-03
Maxdispl :   0.1941   ||displ|| :   0.3262   Lambda : -0.454D-03
Largest |displ|/coords:  0.1941 (  11)  0.1181 (   6)  0.0828 (  15)
................................................................................
.............................. CYCLE   65 ......................................
................................................................................
   1    -50.7518452 -0.507518E+02  0.246E-01    9.40       0.0  T
   2    -50.7518567 -0.114552E-04  0.184E-01    9.40       1.0  T
   3    -50.7518662 -0.947115E-05  0.212E-02    9.40       1.0  T
   4    -50.7518675 -0.127751E-05  0.690E-03    9.40       2.8  T
   5    -50.7518675 -0.690764E-07  0.239E-03    9.40       8.2  T
[...]
................................................................................
   1    -50.7654133 -0.507654E+02  0.204E-02    9.40       0.0  T
   2    -50.7654133 -0.784362E-07  0.150E-02    9.40       1.3  T
   3    -50.7654134 -0.534526E-07  0.273E-03    9.40       7.2  T
   4    -50.7654134 -0.882795E-08  0.101E-03    9.40      19.5  T
   5    -50.7654134 -0.870507E-09  0.137E-04    9.40     142.9  T
   6    -50.7654134 -0.160512E-10  0.958E-05    9.40     204.6  T
speedup  0.93
cpu  time for SCC    0.00 s
wall time for SCC    0.01 s
speedup  1.00
cpu  time for grad    0.01 s
wall time for grad    0.01 s
 E :    -50.47459763  G :  0.000611    pred/act E change: -0.705D-06 -0.110D-05
Maxdispl :   0.0098   ||displ|| :   0.0215   Lambda : -0.147D-05
Largest |displ|/coords:  0.0098 (  39)  0.0077 (   3)  0.0072 (   4)
................................................................................
.............................. CYCLE  133 ......................................
................................................................................
   1    -50.7653081 -0.507653E+02  0.199E-02    9.39       0.0  T
   2    -50.7653081 -0.645279E-07  0.146E-02    9.39       1.3  T
   3    -50.7653082 -0.411025E-07  0.259E-03    9.39       7.6  T
   4    -50.7653082 -0.775827E-08  0.884E-04    9.39      22.2  T
   5    -50.7653082 -0.652136E-09  0.112E-04    9.39     175.2  T
speedup  0.87
cpu  time for SCC    0.00 s
wall time for SCC    0.00 s
speedup  0.96
cpu  time for grad    0.01 s
wall time for grad    0.01 s
 E :    -50.47459872  G :  0.000522    pred/act E change: -0.758D-06 -0.109D-05
Maxdispl :   0.0121   ||displ|| :   0.0244   Lambda : -0.164D-05
Largest |displ|/coords:  0.0121 (   4)  0.0101 (  39)  0.0061 (  31)
................................................................................
.............................. CYCLE  134 ......................................
................................................................................
   1    -50.7652520 -0.507653E+02  0.204E-02    9.39       0.0  T
   2    -50.7652521 -0.534861E-07  0.151E-02    9.39       1.3  T
   3    -50.7652521 -0.456367E-07  0.233E-03    9.39       8.4  T
   4    -50.7652521 -0.550170E-08  0.704E-04    9.39      27.9  T
   5    -50.7652521 -0.583071E-09  0.127E-04    9.39     154.4  T
speedup  1.09
cpu  time for SCC    0.00 s
wall time for SCC    0.00 s
speedup  0.98
cpu  time for grad    0.01 s
wall time for grad    0.01 s
 E :    -50.47459991  G :  0.000513    pred/act E change: -0.736D-06 -0.119D-05
Maxdispl :   0.0128   ||displ|| :   0.0251   Lambda : -0.164D-05
Largest |displ|/coords:  0.0128 (  39)  0.0090 (   4)  0.0071 (  31)
................................................................................
.............................. CYCLE  135 ......................................
................................................................................
   1    -50.7652151 -0.507652E+02  0.226E-02    9.39       0.0  T
   2    -50.7652151 -0.675742E-07  0.168E-02    9.39       1.2  T
   3    -50.7652152 -0.567100E-07  0.266E-03    9.39       7.4  T
   4    -50.7652152 -0.734898E-08  0.758E-04    9.39      25.9  T
   5    -50.7652152 -0.697021E-09  0.142E-04    9.39     138.3  T
speedup  1.09
cpu  time for SCC    0.00 s
wall time for SCC    0.00 s
speedup  0.98
cpu  time for grad    0.01 s
wall time for grad    0.01 s
 E :    -50.47460107  G :  0.000630    pred/act E change: -0.820D-06 -0.116D-05
Maxdispl :   0.0122   ||displ|| :   0.0248   Lambda : -0.152D-05
Largest |displ|/coords:  0.0122 (   4)  0.0090 (  12)  0.0087 (   6)
................................................................................
.............................. CYCLE  136 ......................................
................................................................................
   1    -50.7653265 -0.507653E+02  0.157E-02    9.40       0.0  T
   2    -50.7653265 -0.345837E-07  0.117E-02    9.39       1.7  T
   3    -50.7653266 -0.427403E-07  0.158E-03    9.39      12.4  T
   4    -50.7653266 -0.200934E-08  0.302E-04    9.39      64.9  T
   5    -50.7653266 -0.214762E-09  0.126E-04    9.39     155.5  T
speedup  1.09
cpu  time for SCC    0.00 s
wall time for SCC    0.00 s
speedup  1.05
cpu  time for grad    0.01 s
wall time for grad    0.01 s
 E :    -50.47460201  G :  0.000591    pred/act E change: -0.819D-06 -0.939D-06
Maxdispl :   0.0139   ||displ|| :   0.0234   Lambda : -0.106D-05
Largest |displ|/coords:  0.0139 (  39)  0.0077 (   1)  0.0072 (  29)
................................................................................
.............................. CYCLE  137 ......................................
................................................................................
   1    -50.7653290 -0.507653E+02  0.241E-02    9.40       0.0  T
   2    -50.7653291 -0.966904E-07  0.179E-02    9.40       1.1  T
   3    -50.7653292 -0.625134E-07  0.305E-03    9.40       6.4  T
   4    -50.7653292 -0.131303E-07  0.960E-04    9.40      20.4  T
   5    -50.7653292 -0.787573E-09  0.147E-04    9.40     133.0  T
speedup  0.85
cpu  time for SCC    0.00 s
wall time for SCC    0.00 s
speedup  0.97
cpu  time for grad    0.01 s
wall time for grad    0.01 s
 E :    -50.47460250  G :  0.000736    pred/act E change: -0.759D-06 -0.496D-06
Maxdispl :   0.0027   ||displ|| :   0.0073   Lambda : -0.663D-06
Largest |displ|/coords:  0.0027 (   1)  0.0025 (  10)  0.0025 (  13)
................................................................................
.............................. CYCLE  138 ......................................
................................................................................
   1    -50.7654206 -0.507654E+02  0.594E-03    9.40       0.0  T
   2    -50.7654206 -0.514157E-08  0.439E-03    9.40       4.5  T
   3    -50.7654206 -0.428353E-08  0.651E-04    9.40      30.1  T
   4    -50.7654206 -0.468113E-09  0.204E-04    9.40      96.3  T
speedup  1.05
cpu  time for SCC    0.00 s
wall time for SCC    0.00 s
speedup  0.97
cpu  time for grad    0.01 s
wall time for grad    0.01 s
 E :    -50.47460293  G :  0.000350    pred/act E change: -0.532D-06 -0.427D-06
Maxdispl :   0.0033   ||displ|| :   0.0072   Lambda : -0.290D-06
Largest |displ|/coords:  0.0033 (  39)  0.0023 (  13)  0.0020 (   9)
................................................................................
.............................. CYCLE  139 ......................................
................................................................................
   1    -50.7654172 -0.507654E+02  0.666E-03    9.40       0.0  T
   2    -50.7654172 -0.112094E-07  0.497E-03    9.40       3.9  T
   3    -50.7654173 -0.656976E-08  0.890E-04    9.40      22.0  T
   4    -50.7654173 -0.164406E-08  0.335E-04    9.40      58.5  T
speedup  1.05
cpu  time for SCC    0.00 s
wall time for SCC    0.00 s
speedup  1.04
cpu  time for grad    0.01 s
wall time for grad    0.01 s
 E :    -50.47460314  G :  0.000235    pred/act E change: -0.331D-06 -0.211D-06
Maxdispl :   0.0034   ||displ|| :   0.0065   Lambda : -0.193D-06
Largest |displ|/coords:  0.0034 (   4)  0.0028 (  39)  0.0019 (  29)
................................................................................
.............................. CYCLE  140 ......................................
................................................................................
   1    -50.7653838 -0.507654E+02  0.568E-03    9.40       0.0  T
   2    -50.7653838 -0.896739E-08  0.422E-03    9.40       4.6  T
   3    -50.7653838 -0.411352E-08  0.824E-04    9.40      23.8  T
   4    -50.7653838 -0.140456E-08  0.280E-04    9.40      70.1  T
speedup  0.98
cpu  time for SCC    0.00 s
wall time for SCC    0.00 s
speedup  0.92
cpu  time for grad    0.01 s
wall time for grad    0.01 s
 E :    -50.47460327  G :  0.000148    pred/act E change: -0.145D-06 -0.134D-06
Maxdispl :   0.0026   ||displ|| :   0.0055   Lambda : -0.923D-07
Largest |displ|/coords:  0.0026 (  39)  0.0023 (   4)  0.0018 (  29)
................................................................................
.............................. CYCLE  141 ......................................
................................................................................
   1    -50.7653566 -0.507654E+02  0.514E-03    9.40       0.0  T
   2    -50.7653567 -0.511049E-08  0.383E-03    9.40       5.1  T
   3    -50.7653567 -0.282147E-08  0.640E-04    9.40      30.6  T
   4    -50.7653567 -0.822823E-09  0.201E-04    9.40      97.6  T
speedup  1.08
cpu  time for SCC    0.00 s
wall time for SCC    0.00 s
speedup  1.06
cpu  time for grad    0.01 s
wall time for grad    0.01 s
 E :    -50.47460334  G :  0.000131    pred/act E change: -0.963D-07 -0.683D-07
Maxdispl :   0.0024   ||displ|| :   0.0049   Lambda : -0.626D-07
Largest |displ|/coords:  0.0024 (   4)  0.0023 (   3)  0.0015 (  39)

   *** GEOMETRY OPTIMIZATION CONVERGED AFTER 141 ITERATIONS ***

------------------------------------------------------------------------
 total energy gain (kcal):     -0.2623
------------------------------------------------------------------------
================
 final structure:
================
$coord
        2.31376911273950       -2.46911793665240       -1.65278555787464      S 
        1.53284142613424       -0.54645113299753       -3.47592343402026      O 
        3.45618464301539       -1.39744063575955        0.57844501033129      O 
        0.27135537379413       -4.22344617981954       -1.10247733279536      O 
        4.43872797821563       -4.08106987807241       -3.00564674886093      O 
        3.48031816271739       -5.02044112260716       -4.20116724678294      H 
       -0.17223193295893       -3.98593500359863        1.97401505398166      H 
       -0.09091637470095       -3.48985169010521        3.76434697811531      O 
        1.68462689326029       -3.19073233159741        4.02832606113303      H 
        0.62165528068033        4.14926457381869       -2.21489149922204      O 
        1.00004016307278        5.17814747840535       -3.65598676451534      H 
        1.04522250218992        2.39738068032309       -2.70795419334301      H 
       -4.00647078179553        2.53198898620049       -0.37451580119849      O 
       -4.15970113174408        1.04967882987718       -1.48988139392321      H 
       -2.62352314650079        3.50313426393876       -1.09646820537877      H 
       -3.43175300162345       -1.46774645185893       -3.38076163645800      O 
       -3.26553391278099       -3.03447839640232       -2.46907677123618      H 
       -1.68705519501196       -1.02964767941256       -3.78389844010945      H 
        2.63754114834397        3.19696255185719        2.46501474176411      O 
        3.30377117592005        1.57025523136679        1.88679954857775      H 
        2.13696715063480        4.05237496162972        0.91912247872460      H 
       -1.73296393536975        1.26322326629107        3.84406155497011      N 
       -2.87008218112487        1.69527632852561        2.23131823889748      H 
       -1.31873592693707       -0.69093393620482        3.89806705958237      H 
        0.02354819714711        2.20960677846169        3.56017948643394      H 
       -2.58760170622267        1.82999844436284        5.46173881322514      H 
$end
 
 Bond Distances (Angstroems)
 ---------------------------
S1-O2=1.4617         S1-O3=1.4426         S1-O4=1.4542         S1-O5=1.5826         O2-S1=1.4617         O3-S1=1.4426         
O4-S1=1.4542         O5-S1=1.5826         O5-H6=0.9511         H6-O5=0.9511         H7-O8=0.9840         O8-H7=0.9840         
O8-H9=0.9630         H9-O8=0.9630         O10-H11=0.9582       O10-H12=0.9888       H11-O10=0.9582       H12-O10=0.9888       
O13-H14=0.9850       O13-H15=0.9724       H14-O13=0.9850       H15-O13=0.9724       O16-H17=0.9633       O16-H18=0.9755       
H17-O16=0.9633       H18-O16=0.9755       O19-H20=0.9792       O19-H21=0.9717       H20-O19=0.9792       H21-O19=0.9717       
N22-H23=1.0690       N22-H24=1.0575       N22-H25=1.0665       N22-H26=1.0136       H23-N22=1.0690       H24-N22=1.0575       
H25-N22=1.0665       H26-N22=1.0136       
 N  H  Rav=1.0516 sigma=0.0224  Rmin=1.0136  Rmax=1.0690     4
 O  H  Rav=0.9720 sigma=0.0115  Rmin=0.9511  Rmax=0.9888    11
 S  O  Rav=1.4853 sigma=0.0566  Rmin=1.4426  Rmax=1.5826     4
 
 selected bond angles (degree)
 --------------------
O3-S1-O2=112.65                O4-S1-O2=111.49                O4-S1-O3=113.48                O5-S1-O2=106.11                
O5-S1-O3=106.52                O5-S1-O4=105.94                H6-O5-S1=101.75                H9-O8-H7=103.07                
H12-O10-H11=105.98             
 
 selected dihedral angles (degree)
 ---------------------------------
H6-O5-S1-O2=287.48            H6-O5-S1-O3=167.23            H6-O5-S1-O4= 46.10            
 
 CMA Distance (Angstroems)
 ---------------------------
R(CMA):  2.8735

========================================================================
 FINAL SINGLEPOINT CALCULATION ON OPTIMIZED GEOMETRY
========================================================================

 Ncao       : 65
 Nao        : 64
 Nshell     : 38
 Nel        : 80
 T(el)      :   300.0
 intcut     :    25.0
 scfconv/Eh :  0.100E-05
   qconv/e  :  0.100E-03
 intneglect :  0.100E-07
 broydamp   :      0.250
 iter      E             dE          RMSdq      gap      omega  full diag
   1    -50.7653567 -0.507654E+02  0.773E-05    9.40       0.0  T
   2    -50.7653567 -0.237321E-11  0.498E-05    9.40     393.6  T
   3    -50.7653567 -0.139977E-11  0.652E-06    9.40    3008.9  T
speedup  1.07
cpu  time for SCC    0.00 s
wall time for SCC    0.00 s

   *** convergence criteria satisfied after 3 iterations ***

          eigenvalues
 #    :          28         29         30         31         32         33         34         35
 occ. :        2.000      2.000      2.000      2.000      2.000      2.000      2.000      2.000
 eps  :       -13.619    -13.367    -12.546    -12.405    -12.367    -12.351    -12.228    -12.141
 #    :          36         37         38         39         40         41         42         43
 occ. :        2.000      2.000      2.000      2.000      2.000      0.000      0.000      0.000
 eps  :       -12.129    -12.070    -11.980    -11.891    -11.799     -2.400     -0.882     -0.512
 #    :          44         45         46         47         48         49         50         51
 occ. :        0.000      0.000      0.000      0.000      0.000      0.000      0.000      0.000
 eps  :         0.861      1.189      1.369      2.268      2.923      3.936      3.959      4.572


   #   Z            q   n(s)   n(p)   n(d)      C6AA      α(0)
   1  16 S      1.691  1.580  1.780  0.949    88.981    15.876
   2   8 O     -0.762  1.775  4.987  0.000    30.457     7.399
   3   8 O     -0.726  1.757  4.969  0.000    29.435     7.274
   4   8 O     -0.759  1.775  4.983  0.000    30.355     7.387
   5   8 O     -0.592  1.754  4.837  0.000    24.953     6.744
   6   1 H      0.343  0.657  0.000  0.000     0.596     1.208
   7   1 H      0.326  0.674  0.000  0.000     0.649     1.265
   8   8 O     -0.604  1.742  4.863  0.000    25.288     6.787
   9   1 H      0.303  0.697  0.000  0.000     0.711     1.324
  10   8 O     -0.626  1.745  4.882  0.000    25.826     6.859
  11   1 H      0.289  0.711  0.000  0.000     0.756     1.366
  12   1 H      0.334  0.666  0.000  0.000     0.626     1.243
  13   8 O     -0.621  1.756  4.865  0.000    25.695     6.842
  14   1 H      0.331  0.669  0.000  0.000     0.636     1.253
  15   1 H      0.318  0.682  0.000  0.000     0.669     1.285
  16   8 O     -0.613  1.744  4.869  0.000    25.492     6.814
  17   1 H      0.301  0.699  0.000  0.000     0.719     1.332
  18   1 H      0.312  0.688  0.000  0.000     0.687     1.302
  19   8 O     -0.611  1.752  4.860  0.000    25.459     6.810
  20   1 H      0.328  0.672  0.000  0.000     0.642     1.259
  21   1 H      0.320  0.680  0.000  0.000     0.663     1.279
  22   7 N     -0.360  1.284  4.076  0.000    29.256     8.033
  23   1 H      0.290  0.710  0.000  0.000     0.745     1.352
  24   1 H      0.281  0.719  0.000  0.000     0.773     1.377
  25   1 H      0.287  0.713  0.000  0.000     0.753     1.359
  26   1 H      0.221  0.779  0.000  0.000     1.005     1.570

 Mol. C6AA /au·bohr⁶  :       5450.447339
 Mol. C8AA /au·bohr⁸  :     117918.256127
 Mol. α(0) /au        :        106.601821

 
 Wiberg/Mayer (AO) data. WBOs > 0.1 written file <wbo>
 largest (>0.05) Wiberg bond orders for each atom
           total WBO             WBO to atom ...
     1  S   4.851    O    3 1.364    O    4 1.300    O    2 1.261    O    5 0.889
     2  O   1.717    S    1 1.261    O    3 0.110    O    4 0.106    H   12 0.071    O    5 0.071
     3  O   1.733    S    1 1.364    O    4 0.111    O    2 0.110    O    5 0.063
     4  O   1.711    S    1 1.300    O    3 0.111    O    2 0.106    O    5 0.075    H    7 0.067
     5  O   1.970    S    1 0.889    H    6 0.866    O    4 0.075    O    2 0.071    O    3 0.063
     6  H   0.882    O    5 0.866
     7  H   0.894    O    8 0.822    O    4 0.067
     8  O   1.922    H    9 0.898    H    7 0.822    H   24 0.108    N   22 0.055
     9  H   0.908    O    8 0.898
    10  O   1.862    H   11 0.909    H   12 0.812
    11  H   0.917    O   10 0.909
    12  H   0.888    O   10 0.812    O    2 0.071
    13  O   1.932    H   15 0.861    H   14 0.822    H   23 0.131    N   22 0.063
    14  H   0.891    O   13 0.822    O   16 0.066
    15  H   0.899    O   13 0.861
    16  O   1.875    H   17 0.894    H   18 0.850    H   14 0.066
    17  H   0.910    O   16 0.894
    18  H   0.903    O   16 0.850
    19  O   1.934    H   21 0.860    H   20 0.840    H   25 0.123    N   22 0.062
    20  H   0.892    O   19 0.840
    21  H   0.897    O   19 0.860
    22  N   3.515    H   26 0.948    H   24 0.810    H   25 0.790    H   23 0.782    O   13 0.063    O   19 0.062    O    8 0.055
    23  H   0.916    N   22 0.782    O   13 0.131
    24  H   0.921    N   22 0.810    O    8 0.108
    25  H   0.917    N   22 0.790    O   19 0.123
    26  H   0.951    N   22 0.948
 MOs/occ written to file <molden.input>
 
molecular dipole:
                 x           y           z       tot (Debye)
 q only:       -0.758       0.987       1.161
   full:       -0.004       0.408       0.221       1.180
molecular quadrupole (traceless):
                xx          xy          yy          xz          yz          zz
 q only:      -10.125      -0.768       0.284      -8.555       2.645       9.841
  q+dip:      -12.727      -1.954       2.180     -11.136       2.875      10.547
   full:      -12.919      -2.029       2.332     -11.372       3.069      10.587

SCC energy    :     -50.7653567
rep           :       0.2903560
ES            :       0.2606188
AES           :      -0.0778494
AXC           :      -0.0088387
disp          :      -0.0196941
XB            :       0.0000000
fix           :       0.0000000
total E       :     -50.4746033
atomizationE  :       5.0049075     3140.63
(atE without considering molecular charge,
 total energy contains solvation terms)
H-L gap (eV)  :          9.3986
optimized geometry written to: xtbopt.xyz


------------------------------------------------------------------------
 * finished run on 2019/09/16 at 11:20:47.365     
------------------------------------------------------------------------
 total:
 * wall-time:     0 d,  0 h,  0 min,  3.227 sec
 *  cpu-time:     0 d,  0 h,  0 min,  3.109 sec
 * ratio c/w:     0.963 speedup
 SCF:
 * wall-time:     0 d,  0 h,  0 min,  0.145 sec
 *  cpu-time:     0 d,  0 h,  0 min,  0.141 sec
 * ratio c/w:     0.972 speedup
 ANC optimizer:
 * wall-time:     0 d,  0 h,  0 min,  3.058 sec
 *  cpu-time:     0 d,  0 h,  0 min,  2.947 sec
 * ratio c/w:     0.964 speedup

