      -----------------------------------------------------------      
     |                   =====================                   |     
     |                           x T B                           |     
     |                   =====================                   |     
     |                         S. Grimme                         |     
     |          Mulliken Center for Theoretical Chemistry        |     
     |                    University of Bonn                     |     
     |                 Version 6.0.1 (SAW181210)                 |     
      -----------------------------------------------------------      

   This program is distributed in the hope that it will be useful,
   but WITHOUT ANY WARRANTY; without even the implied warranty of
   MERCHANTABILITY or FITNESS FOR A PARTICULAR PURPOSE.
   
   FOR NON-COMMERCIAL, ACADEMIA USE ONLY.
   
   Cite this work as:
   S. Grimme, C. Bannwarth, P. Shushkov, J. Comput. Theory Chem., 2017,
   13, 1989-2009.
   C. Bannwarth, S. Ehlert and S. Grimme., ChemRxiv, 2018, preprint.
   http://doi.org/10.26434/chemrxiv.7246238.v1
   
   for sTDA-xTB:
   S. Grimme and C. Bannwarth, J. Chem. Phys., 2016, 145, 054103.
   
   in the mass-spec context:
   V. Asgeirsson, C. Bauer and S. Grimme, Chem. Sci., 2017, 8, 4879.
   
   if GBSA is used:
   P. Shushkov, F. März and S. Grimme, unpublished.
   
   for ANC optimizer:
   S. Grimme, unpublished.
   Rational Function algorithm used in ANCopt:
   F. Eckert, P. Pulay, H.-J. Werner, J. Comput. Chem., 1997, 18, 1473.
   
   with help from (in alphabetical order)
   C. Bannwarth, F. Bohle, G. Brandenburg, E. Caldeweyher, M. Checinski,
   S. Dohm, S. Ehlert, S. Ehrlich, F. März, H. Neugebauer, J. Pisarek,
   P. Pracht, P. Shushkov, and S. Spicher.
   
 * started run on 2019/09/16 at 11:57:08.423     
========================================================================
 # omp threads = 1
========================================================================
number of atoms            : 26
number of electrons        : 80
charge                     : 0
spin                       : .0
first test random number   : .1781

########################################################################
# WARNING! Please study the warnings concerning your input carefully
#  - XTBPATH is not set, using XTBHOME instead
#  - the use of '-opt' is discouraged, please use '--opt' next time
#  - the use of '-chrg' is discouraged, please use '--chrg' next time
#  - the use of '-uhf' is discouraged, please use '--uhf' next time
########################################################################

           ------------------------------------------------- 
          |                 G F N 2 - x T B                 |
          | Geometry, Frequencies, Noncovalent interactions |
          |            JCTC 2018 parametrisation            |
           ------------------------------------------------- 
      method parameters     
 k(s)        :  1.8500
 k(p)        :  2.2300
 k(d)        :  2.2300
 k(f)        :  2.0000
 kEN (H0ij)  : -2.0000
 D4 a1       :  0.5200
 D4 a2       :  5.0000
 D4 s6       :  1.0000
 D4 s8       :  2.7000
 D4 s9       :  5.0000
 alphaj      :  2.0000


            Z     q(EN)     CN     RAES       Cart. coordinates
     1  S   6.0    0.59    4.27    4.19    -5.03357     0.08318    -0.84063
     2  O   6.0   -0.32    1.22    1.80    -4.02932     0.89635     1.59077
     3  O   6.0   -0.27    1.09    1.80    -7.50266     0.80813    -1.74376
     4  O   6.0   -0.25    2.07    1.83    -2.88948     0.73589    -2.96719
     5  O   6.0   -0.23    2.04    1.83    -4.92969    -2.94987    -1.08044
     6  H   1.0    0.16    1.16    1.46    -3.35313    -3.56342    -0.35632
     7  H   1.0    0.16    1.17    1.46    -2.01598     2.25666    -2.40983
     8  O   6.0   -0.38    1.40    1.80    -0.10461    -3.74678     0.73102
     9  H   1.0    0.17    0.95    1.42    -0.52223    -5.55532     0.92733
    10  O   6.0   -0.39    1.77    1.81     4.43618     1.50348    -0.37375
    11  H   1.0    0.17    0.95    1.42     5.79531     2.77227    -0.21036
    12  O   6.0   -0.29    2.05    1.83    -0.69370     1.51955     5.04430
    13  H   1.0    0.15    0.97    1.43    -1.49433     2.30859     6.47644
    14  H   1.0    0.19    1.09    1.44    -2.02327     1.27171     3.82552
    15  O   6.0   -0.29    2.03    1.83     0.86650     3.96530    -1.76843
    16  H   1.0    0.17    1.20    1.46     2.38609     3.05859    -1.34028
    17  H   1.0    0.14    0.97    1.43     1.40739     5.66393    -2.13817
    18  O   6.0   -0.23    2.94    2.63     2.90623    -1.02528     3.04514
    19  H   1.0    0.16    1.24    1.47     3.54805    -0.00167     1.62032
    20  H   1.0    0.14    1.04    1.44     1.94694     0.00616     4.27230
    21  H   1.0    0.16    1.09    1.44     1.92624    -2.50399     2.45816
    22  N   5.0   -0.15    3.99    2.84     1.87461    -1.50069    -2.95243
    23  H   1.0    0.12    1.19    1.46     2.85859    -0.08754    -2.04731
    24  H   1.0    0.08    0.99    1.43     3.10307    -2.56256    -4.02376
    25  H   1.0    0.13    1.16    1.46     1.01450    -2.64061    -1.63135
    26  H   1.0    0.10    1.01    1.43     0.52227    -0.71205    -4.10728

  Z AO/shell   Hii/eV     exponent
  1     Wed Apr 25 08:07:45 CEST 2018   EN: 2.200 GM2: 0.406  GM3: 0.0800  RAES: 1.40
     1s    -10.707211    1.230000
  7     Wed Apr 25 08:07:45 CEST 2018   EN: 3.040 GM2: 0.461  GM3:-0.0640  RAES: 1.90
     2s    -16.686243    2.339881
     2p    -12.523956    2.014332
  8     Wed Apr 25 08:07:45 CEST 2018   EN: 3.440 GM2: 0.452  GM3:-0.0517  RAES: 1.80
     2s    -20.229985    2.439742
     2p    -15.503117    2.137023
 16     Tue Apr 24 11:44:34 CEST 2018   EN: 2.580 GM2: 0.340  GM3:-0.0502  RAES: 3.10
     3s    -20.029654    1.981333
     3p    -11.377694    2.025643
     3d     -0.420282    1.702555
 no old-style atom pair restraining (fixing) potential

molecular fragmentation (1/2 indicates fragments):
11111112222222222222222222
# atoms in fragment 1/2:     7    19
 fragment masses (1/2) :       98.07      107.11
CMA distance (Bohr)    :   6.612
constraining FC (au)   :  0.0500
           ------------------------------------------------- 
          |        Self-Consistent Charge Iterations        |
           ------------------------------------------------- 

 Ncao       : 65
 Nao        : 64
 Nshell     : 38
 Nel        : 80
 T(el)      :   300.0
 intcut     :    25.0
 scfconv/Eh :  0.100E-05
   qconv/e  :  0.100E-03
 intneglect :  0.100E-07
 broydamp   :      0.250
 iter      E             dE          RMSdq      gap      omega  full diag
   1    -50.5302845 -0.505303E+02  0.711E+00    8.10       0.0  T
   2    -50.5827236 -0.524391E-01  0.501E+00    7.03       1.0  T
   3    -50.6256619 -0.429382E-01  0.120E+00    4.34       1.0  T
   4    -50.6292525 -0.359066E-02  0.713E-01    4.61       1.0  T
   5    -50.6309857 -0.173316E-02  0.249E-01    4.75       1.0  T
   6    -50.6312708 -0.285111E-03  0.149E-01    4.76       1.0  T
   7    -50.6314133 -0.142552E-03  0.431E-02    4.76       1.0  T
   8    -50.6314214 -0.809844E-05  0.268E-02    4.75       1.0  T
   9    -50.6314258 -0.433038E-05  0.797E-03    4.77       2.5  T
  10    -50.6314260 -0.228016E-06  0.264E-03    4.77       7.4  T
  11    -50.6314260 -0.227681E-07  0.127E-03    4.77      15.4  T
  12    -50.6314260 -0.679508E-08  0.392E-04    4.77      50.1  T
  13    -50.6314260 -0.600586E-09  0.163E-04    4.77     120.2  T
speedup  1.00
cpu  time for SCC    0.01 s
wall time for SCC    0.01 s

   *** convergence criteria satisfied after 13 iterations ***

          eigenvalues
 #    :          28         29         30         31         32         33         34         35
 occ. :        2.000      2.000      2.000      2.000      2.000      2.000      2.000      2.000
 eps  :       -12.956    -12.668    -12.633    -12.609    -12.428    -12.211    -12.156    -11.861
 #    :          36         37         38         39         40         41         42         43
 occ. :        2.000      2.000      2.000      2.000      2.000      0.000      0.000      0.000
 eps  :       -11.423    -10.320     -9.934     -9.755     -9.552     -4.781     -1.924     -1.169
 #    :          44         45         46         47         48         49         50         51
 occ. :        0.000      0.000      0.000      0.000      0.000      0.000      0.000      0.000
 eps  :        -0.600      0.696      1.005      2.124      2.817      3.426      4.162      4.474


   #   Z            q   n(s)   n(p)   n(d)      C6AA      α(0)
   1  16 S      1.644  1.629  1.799  0.927    90.041    15.971
   2   8 O     -0.665  1.769  4.896  0.000    27.776     7.066
   3   8 O     -0.619  1.772  4.847  0.000    26.578     6.912
   4   8 O     -0.600  1.757  4.843  0.000    25.160     6.771
   5   8 O     -0.577  1.757  4.819  0.000    24.602     6.696
   6   1 H      0.381  0.619  0.000  0.000     0.519     1.130
   7   1 H      0.386  0.614  0.000  0.000     0.510     1.120
   8   8 O     -0.886  1.836  5.050  0.000    34.360     7.858
   9   1 H      0.174  0.826  0.000  0.000     1.266     1.768
  10   8 O     -0.859  1.817  5.042  0.000    33.322     7.743
  11   1 H      0.213  0.787  0.000  0.000     1.056     1.615
  12   8 O     -0.611  1.727  4.885  0.000    25.457     6.810
  13   1 H      0.280  0.720  0.000  0.000     0.785     1.392
  14   1 H      0.345  0.655  0.000  0.000     0.600     1.216
  15   8 O     -0.681  1.759  4.922  0.000    27.203     7.039
  16   1 H      0.340  0.660  0.000  0.000     0.606     1.220
  17   1 H      0.263  0.737  0.000  0.000     0.843     1.442
  18   8 O     -0.475  1.667  4.809  0.000    22.306     6.379
  19   1 H      0.402  0.598  0.000  0.000     0.473     1.075
  20   1 H      0.388  0.612  0.000  0.000     0.508     1.119
  21   1 H      0.393  0.607  0.000  0.000     0.498     1.108
  22   7 N     -0.330  1.273  4.057  0.000    28.474     7.925
  23   1 H      0.324  0.676  0.000  0.000     0.643     1.255
  24   1 H      0.216  0.784  0.000  0.000     1.027     1.588
  25   1 H      0.308  0.692  0.000  0.000     0.690     1.300
  26   1 H      0.247  0.753  0.000  0.000     0.893     1.481

 Mol. C6AA /au·bohr⁶  :       5497.147303
 Mol. C8AA /au·bohr⁸  :     118951.448041
 Mol. α(0) /au        :        107.000521

 
 Wiberg/Mayer (AO) data. WBOs > 0.1 written file <wbo>
 largest (>0.05) Wiberg bond orders for each atom
           total WBO             WBO to atom ...
     1  S   4.774    O    3 1.488    O    2 1.380    O    5 0.970    O    4 0.899
     2  O   1.777    S    1 1.380    O    3 0.137    O    5 0.095    O    4 0.094    H   14 0.055
     3  O   1.824    S    1 1.488    O    2 0.137    O    4 0.094    O    5 0.085
     4  O   1.974    S    1 0.899    H    7 0.784    O    3 0.094    O    2 0.094    O    5 0.055
     5  O   2.005    S    1 0.970    H    6 0.760    O    2 0.095    O    3 0.085    O    4 0.055
     6  H   0.855    O    5 0.760    O    8 0.073
     7  H   0.851    O    4 0.784
     8  O   1.494    H    9 0.957    H   25 0.163    H   21 0.140    H    6 0.073    N   22 0.072
     9  H   0.970    O    8 0.957
    10  O   1.584    H   11 0.928    H   19 0.197    H   16 0.149    H   23 0.125    O   15 0.063    O   18 0.061
    11  H   0.955    O   10 0.928
    12  O   1.856    H   13 0.912    H   14 0.821    H   20 0.065
    13  H   0.922    O   12 0.912
    14  H   0.881    O   12 0.821    O    2 0.055
    15  O   1.786    H   17 0.924    H   16 0.728    O   10 0.063
    16  H   0.884    O   15 0.728    O   10 0.149
    17  H   0.931    O   15 0.924
    18  O   2.267    H   20 0.777    H   21 0.700    H   19 0.636    O   10 0.061
    19  H   0.838    O   18 0.636    O   10 0.197
    20  H   0.849    O   18 0.777    O   12 0.065
    21  H   0.846    O   18 0.700    O    8 0.140
    22  N   3.517    H   24 0.948    H   26 0.918    H   23 0.756    H   25 0.737    O    8 0.072
    23  H   0.895    N   22 0.756    O   10 0.125
    24  H   0.953    N   22 0.948
    25  H   0.905    N   22 0.737    O    8 0.163
    26  H   0.939    N   22 0.918
 MOs/occ written to file <molden.input>
 
molecular dipole:
                 x           y           z       tot (Debye)
 q only:        1.866      -0.117      -0.250
   full:        1.981       0.080      -0.295       5.095
molecular quadrupole (traceless):
                xx          xy          yy          xz          yz          zz
 q only:      -18.778      -3.347       3.482      -9.447       4.315      15.295
  q+dip:      -21.596      -0.365       7.725     -13.761       4.447      13.871
   full:      -21.715      -0.118       8.281     -13.817       4.335      13.434

SCC energy    :     -50.6314260
rep           :       0.2774533
ES            :       0.3056778
AES           :      -0.0542293
AXC           :      -0.0050560
disp          :      -0.0187631
XB            :       0.0000000
fix           :       0.0000000
total E       :     -50.3535658
atomizationE  :       4.8838699     3064.67
(atE without considering molecular charge,
 total energy contains solvation terms)
H-L gap (eV)  :          4.7713
           ------------------------------------------------- 
          |                 ===============                 |
          |                   A N C O P T                   |
          |                 ===============                 |
          |          Approximate Normal Coordinate          |
          |           Rational Function Optimizer           |
           ------------------------------------------------- 
dumping coords to <xtbopt.coord> and <xtbopt.log>
 optlevel               2
 Maxcycle             520
 Maxmicro              25
 Econv         1.000000000000000E-007
 Gconv         2.000000000000000E-004
 Maxdispl       1.00000000000000     
 Hlow          5.000000000000000E-003
 S6             20.0000000000000     
 Nvar               72

generating ANC from model Hessian ...
 Shifting diagonal of input Hessian by   4.966306806045161E-003
 Lowest  eigenvalues of input Hessian
   -0.000000   -0.000000    0.000000    0.000000    0.000000    0.000000
    0.005000    0.005281    0.005440    0.005788    0.006113    0.006603
    0.007213    0.007630    0.007754    0.008757    0.009531    0.009938
 Highest eigenvalues
    1.457695    1.580882    1.595375    1.948132    2.778255    3.597179
 
cpu  time for ANC gen    0.02 s
wall time for ANC gen    0.02 s
................................................................................
.............................. CYCLE    1 ......................................
................................................................................
   1    -50.6314260 -0.506314E+02  0.547E-05    4.77       0.0  T
   2    -50.6314260 -0.694200E-11  0.408E-05    4.77     480.8  T
   3    -50.6314260 -0.554223E-11  0.164E-05    4.77    1195.7  T
speedup  1.07
cpu  time for SCC    0.00 s
wall time for SCC    0.00 s
speedup  0.96
cpu  time for grad    0.01 s
wall time for grad    0.01 s
 E :    -50.35356573  G :  0.179187    pred/act E change:  0.000D+00  0.278D-07
Maxdispl :   0.2367   ||displ|| :   0.4636   Lambda : -0.420D-01
Largest |displ|/coords:  0.2367 (  23)  0.1249 (  15)  0.1133 (  17)
................................................................................
.............................. CYCLE    2 ......................................
................................................................................
   1    -50.6513818 -0.506514E+02  0.421E-01    5.67       0.0  T
   2    -50.6516772 -0.295414E-03  0.309E-01    5.79       1.0  T
   3    -50.6518167 -0.139505E-03  0.797E-02    6.04       1.0  T
   4    -50.6518428 -0.260193E-04  0.246E-02    6.02       1.0  T
   5    -50.6518442 -0.148730E-05  0.721E-03    6.00       2.7  T
   6    -50.6518444 -0.122158E-06  0.401E-03    6.00       4.9  T
   7    -50.6518444 -0.333021E-07  0.160E-03    6.00      12.3  T
speedup  0.97
cpu  time for SCC    0.01 s
wall time for SCC    0.01 s
speedup  0.99
cpu  time for grad    0.01 s
wall time for grad    0.01 s
 E :    -50.38622489  G :  0.094561    pred/act E change:  0.000D+00 -0.327D-01
Maxdispl :   0.3137   ||displ|| :   0.4979   Lambda : -0.204D-01
Largest |displ|/coords:  0.3137 (  23)  0.1272 (  15)  0.1143 (  17)
................................................................................
.............................. CYCLE    3 ......................................
................................................................................
   1    -50.6588966 -0.506589E+02  0.407E-01    6.75       0.0  T
   2    -50.6593604 -0.463790E-03  0.292E-01    6.84       1.0  T
   3    -50.6595571 -0.196693E-03  0.974E-02    6.96       1.0  T
   4    -50.6595818 -0.246946E-04  0.184E-02    6.96       1.1  T
   5    -50.6595831 -0.127261E-05  0.768E-03    6.96       2.6  T
   6    -50.6595832 -0.130829E-06  0.425E-03    6.96       4.6  T
   7    -50.6595832 -0.386370E-07  0.117E-03    6.96      16.7  T
speedup  0.94
cpu  time for SCC    0.01 s
wall time for SCC    0.01 s
speedup  0.98
cpu  time for grad    0.01 s
wall time for grad    0.01 s
 E :    -50.40194277  G :  0.063294    pred/act E change: -0.255D-01 -0.157D-01
Maxdispl :   0.2034   ||displ|| :   0.4555   Lambda : -0.995D-02
Largest |displ|/coords:  0.2034 (  10)  0.1521 (  23)  0.1397 (   9)
................................................................................
.............................. CYCLE    4 ......................................
................................................................................
   1    -50.6662626 -0.506663E+02  0.295E-01    7.31       0.0  T
   2    -50.6664516 -0.189033E-03  0.215E-01    7.37       1.0  T
   3    -50.6665325 -0.809362E-04  0.655E-02    7.49       1.0  T
   4    -50.6665488 -0.162901E-04  0.127E-02    7.49       1.5  T
   5    -50.6665494 -0.595100E-06  0.610E-03    7.48       3.2  T
   6    -50.6665495 -0.500914E-07  0.333E-03    7.48       5.9  T
   7    -50.6665495 -0.184048E-07  0.984E-04    7.48      19.9  T
speedup  0.95
cpu  time for SCC    0.01 s
wall time for SCC    0.01 s
speedup  0.98
cpu  time for grad    0.01 s
wall time for grad    0.01 s
 E :    -50.40944180  G :  0.044460    pred/act E change: -0.127D-01 -0.750D-02
Maxdispl :   0.2303   ||displ|| :   0.5612   Lambda : -0.872D-02
Largest |displ|/coords:  0.2303 (  23)  0.1913 (   5)  0.1887 (   4)
................................................................................
.............................. CYCLE    5 ......................................
................................................................................
   1    -50.6624071 -0.506624E+02  0.464E-01    8.14       0.0  T
   2    -50.6630417 -0.634633E-03  0.330E-01    8.24       1.0  T
   3    -50.6632918 -0.250061E-03  0.114E-01    8.42       1.0  T
   4    -50.6633273 -0.354782E-04  0.225E-02    8.42       1.0  T
   5    -50.6633287 -0.145770E-05  0.899E-03    8.41       2.2  T
   6    -50.6633289 -0.120967E-06  0.477E-03    8.41       4.1  T
   7    -50.6633289 -0.491866E-07  0.145E-03    8.41      13.6  T
speedup  0.94
cpu  time for SCC    0.01 s
wall time for SCC    0.01 s
speedup  0.98
cpu  time for grad    0.01 s
wall time for grad    0.01 s
 E :    -50.41282743  G :  0.052524    pred/act E change: -0.601D-02 -0.339D-02
Maxdispl :   0.1836   ||displ|| :   0.4333   Lambda : -0.894D-02
Largest |displ|/coords:  0.1836 (  10)  0.1689 (   5)  0.1406 (  23)
................................................................................
.............................. CYCLE    6 ......................................
................................................................................
   1    -50.6789101 -0.506789E+02  0.427E-01    8.34       0.0  T
   2    -50.6791706 -0.260592E-03  0.314E-01    8.36       1.0  T
   3    -50.6793309 -0.160282E-03  0.867E-02    8.40       1.0  T
   4    -50.6793555 -0.245683E-04  0.226E-02    8.41       1.0  T
   5    -50.6793566 -0.113178E-05  0.937E-03    8.41       2.1  T
   6    -50.6793567 -0.423721E-07  0.483E-03    8.40       4.1  T
   7    -50.6793567 -0.471379E-07  0.910E-04    8.40      21.6  T
speedup  1.09
cpu  time for SCC    0.01 s
wall time for SCC    0.01 s
speedup  1.04
cpu  time for grad    0.01 s
wall time for grad    0.01 s
 E :    -50.41338746  G :  0.067855    pred/act E change: -0.574D-02 -0.560D-03
Maxdispl :   0.1602   ||displ|| :   0.3384   Lambda : -0.694D-02
Largest |displ|/coords:  0.1602 (   4)  0.1213 (   5)  0.0940 (   9)
................................................................................
.............................. CYCLE    7 ......................................
................................................................................
   1    -50.6680532 -0.506681E+02  0.332E-01    8.47       0.0  T
   2    -50.6681648 -0.111675E-03  0.246E-01    8.52       1.0  T
   3    -50.6682255 -0.607042E-04  0.578E-02    8.62       1.0  T
   4    -50.6682385 -0.130154E-04  0.184E-02    8.60       1.1  T
   5    -50.6682394 -0.836086E-06  0.561E-03    8.59       3.5  T
   6    -50.6682394 -0.462275E-07  0.337E-03    8.59       5.8  T
speedup  1.11
cpu  time for SCC    0.01 s
wall time for SCC    0.01 s
speedup  1.04
cpu  time for grad    0.01 s
wall time for grad    0.01 s
 E :    -50.41656501  G :  0.037554    pred/act E change: -0.531D-02 -0.318D-02
Maxdispl :   0.1066   ||displ|| :   0.2521   Lambda : -0.219D-02
Largest |displ|/coords:  0.1066 (   9)  0.0992 (   2)  0.0828 (   1)
................................................................................
.............................. CYCLE    8 ......................................
................................................................................
   1    -50.6754081 -0.506754E+02  0.116E-01    8.71       0.0  T
   2    -50.6754239 -0.157646E-04  0.867E-02    8.72       1.0  T
   3    -50.6754351 -0.112083E-04  0.204E-02    8.75       1.0  T
   4    -50.6754367 -0.160875E-05  0.634E-03    8.75       3.1  T
   5    -50.6754368 -0.933318E-07  0.237E-03    8.75       8.3  T
   6    -50.6754368 -0.844030E-08  0.110E-03    8.75      17.8  T
speedup  1.13
cpu  time for SCC    0.01 s
wall time for SCC    0.01 s
speedup  1.05
cpu  time for grad    0.01 s
wall time for grad    0.01 s
 E :    -50.41806634  G :  0.027824    pred/act E change: -0.387D-02 -0.150D-02
Maxdispl :   0.2575   ||displ|| :   0.5657   Lambda : -0.428D-02
Largest |displ|/coords:  0.2575 (   8)  0.1961 (   4)  0.1934 (  10)
................................................................................
.............................. CYCLE    9 ......................................
................................................................................
   1    -50.6793101 -0.506793E+02  0.399E-01    8.84       0.0  T
   2    -50.6795473 -0.237232E-03  0.293E-01    8.83       1.0  T
   3    -50.6796704 -0.123085E-03  0.800E-02    8.79       1.0  T
   4    -50.6796960 -0.255862E-04  0.149E-02    8.80       1.3  T
   5    -50.6796966 -0.614665E-06  0.751E-03    8.80       2.6  T
   6    -50.6796967 -0.668382E-07  0.392E-03    8.80       5.0  T
   7    -50.6796967 -0.230465E-07  0.827E-04    8.80      23.7  T
speedup  1.11
cpu  time for SCC    0.01 s
wall time for SCC    0.01 s
speedup  1.05
cpu  time for grad    0.01 s
wall time for grad    0.01 s
 E :    -50.42081665  G :  0.043009    pred/act E change: -0.116D-02 -0.275D-02
Maxdispl :   0.2265   ||displ|| :   0.6092   Lambda : -0.603D-02
Largest |displ|/coords:  0.2265 (   1)  0.2185 (   8)  0.2142 (  10)
................................................................................
.............................. CYCLE   10 ......................................
................................................................................
   1    -50.6921336 -0.506921E+02  0.493E-01    8.73       0.0  T
   2    -50.6925978 -0.464180E-03  0.361E-01    8.71       1.0  T
   3    -50.6928523 -0.254538E-03  0.111E-01    8.67       1.0  T
   4    -50.6928968 -0.444196E-04  0.200E-02    8.68       1.0  T
   5    -50.6928974 -0.645869E-06  0.111E-02    8.68       1.8  T
   6    -50.6928975 -0.127625E-06  0.406E-03    8.68       4.8  T
   7    -50.6928976 -0.414650E-07  0.113E-03    8.68      17.4  T
speedup  0.97
cpu  time for SCC    0.01 s
wall time for SCC    0.01 s
speedup  0.98
cpu  time for grad    0.01 s
wall time for grad    0.01 s
 E :    -50.42208186  G :  0.079464    pred/act E change: -0.282D-02 -0.127D-02
Maxdispl :   0.2169   ||displ|| :   0.4267   Lambda : -0.116D-01
Largest |displ|/coords:  0.2169 (   6)  0.1483 (   4)  0.1311 (   8)
................................................................................
.............................. CYCLE   11 ......................................
................................................................................
   1    -50.6864049 -0.506864E+02  0.564E-01    8.60       0.0  T
   2    -50.6866771 -0.272198E-03  0.421E-01    8.62       1.0  T
   3    -50.6868486 -0.171560E-03  0.922E-02    8.65       1.0  T
   4    -50.6868825 -0.338607E-04  0.261E-02    8.65       1.0  T
   5    -50.6868836 -0.113707E-05  0.862E-03    8.64       2.3  T
   6    -50.6868837 -0.961828E-07  0.533E-03    8.64       3.7  T
   7    -50.6868838 -0.442837E-07  0.100E-03    8.64      19.6  T
speedup  0.95
cpu  time for SCC    0.01 s
wall time for SCC    0.01 s
speedup  0.98
cpu  time for grad    0.01 s
wall time for grad    0.01 s
 E :    -50.42306007  G :  0.076751    pred/act E change: -0.413D-02 -0.978D-03
Maxdispl :   0.1875   ||displ|| :   0.4741   Lambda : -0.143D-01
Largest |displ|/coords:  0.1875 (   8)  0.1465 (   1)  0.1448 (   6)
................................................................................
.............................. CYCLE   12 ......................................
................................................................................
   1    -50.6917448 -0.506917E+02  0.617E-01    8.70       0.0  T
   2    -50.6921575 -0.412660E-03  0.458E-01    8.70       1.0  T
   3    -50.6923997 -0.242236E-03  0.112E-01    8.70       1.0  T
   4    -50.6924490 -0.492653E-04  0.216E-02    8.70       1.0  T
   5    -50.6924498 -0.850755E-06  0.113E-02    8.70       1.7  T
   6    -50.6924500 -0.142539E-06  0.502E-03    8.70       3.9  T
   7    -50.6924500 -0.419261E-07  0.129E-03    8.70      15.2  T
speedup  0.97
cpu  time for SCC    0.01 s
wall time for SCC    0.01 s
speedup  0.97
cpu  time for grad    0.01 s
wall time for grad    0.01 s
 E :    -50.42547157  G :  0.067978    pred/act E change: -0.687D-02 -0.241D-02
Maxdispl :   0.2056   ||displ|| :   0.4243   Lambda : -0.967D-02
Largest |displ|/coords:  0.2056 (   7)  0.1766 (   8)  0.1633 (   4)
................................................................................
.............................. CYCLE   13 ......................................
................................................................................
   1    -50.7049185 -0.507049E+02  0.615E-01    8.67       0.0  T
   2    -50.7051572 -0.238647E-03  0.462E-01    8.68       1.0  T
   3    -50.7053353 -0.178150E-03  0.898E-02    8.69       1.0  T
   4    -50.7053630 -0.276474E-04  0.236E-02    8.68       1.0  T
   5    -50.7053642 -0.124800E-05  0.105E-02    8.68       1.9  T
   6    -50.7053643 -0.647153E-07  0.519E-03    8.68       3.8  T
   7    -50.7053643 -0.701375E-07  0.113E-03    8.68      17.4  T
speedup  0.95
cpu  time for SCC    0.01 s
wall time for SCC    0.01 s
speedup  0.98
cpu  time for grad    0.01 s
wall time for grad    0.01 s
 E :    -50.42511154  G :  0.093022    pred/act E change: -0.874D-02  0.360D-03
Maxdispl :   0.2285   ||displ|| :   0.3908   Lambda : -0.118D-01
Largest |displ|/coords:  0.2285 (   7)  0.1312 (   8)  0.1271 (   9)
................................................................................
.............................. CYCLE   14 ......................................
................................................................................
   1    -50.6871972 -0.506872E+02  0.606E-01    8.68       0.0  T
   2    -50.6875117 -0.314533E-03  0.450E-01    8.68       1.0  T
   3    -50.6876901 -0.178339E-03  0.102E-01    8.70       1.0  T
   4    -50.6877271 -0.369894E-04  0.286E-02    8.70       1.0  T
   5    -50.6877289 -0.183749E-05  0.943E-03    8.70       2.1  T
   6    -50.6877291 -0.211519E-06  0.575E-03    8.70       3.4  T
   7    -50.6877292 -0.540884E-07  0.134E-03    8.70      14.6  T
speedup  0.95
cpu  time for SCC    0.01 s
wall time for SCC    0.01 s
speedup  0.98
cpu  time for grad    0.01 s
wall time for grad    0.01 s
 E :    -50.42604786  G :  0.077346    pred/act E change: -0.570D-02 -0.936D-03
Maxdispl :   0.1892   ||displ|| :   0.4630   Lambda : -0.157D-01
Largest |displ|/coords:  0.1892 (   7)  0.1497 (   2)  0.1412 (   9)
................................................................................
.............................. CYCLE   15 ......................................
................................................................................
   1    -50.7043623 -0.507044E+02  0.648E-01    8.72       0.0  T
   2    -50.7048118 -0.449512E-03  0.481E-01    8.72       1.0  T
   3    -50.7050807 -0.268861E-03  0.117E-01    8.72       1.0  T
   4    -50.7051321 -0.513688E-04  0.248E-02    8.72       1.0  T
   5    -50.7051331 -0.994004E-06  0.121E-02    8.72       1.6  T
   6    -50.7051332 -0.150383E-06  0.539E-03    8.72       3.6  T
   7    -50.7051333 -0.519161E-07  0.146E-03    8.72      13.4  T
speedup  1.13
cpu  time for SCC    0.01 s
wall time for SCC    0.01 s
speedup  1.05
cpu  time for grad    0.01 s
wall time for grad    0.01 s
 E :    -50.42698157  G :  0.075831    pred/act E change: -0.682D-02 -0.934D-03
Maxdispl :   0.0889   ||displ|| :   0.2887   Lambda : -0.923D-02
Largest |displ|/coords:  0.0889 (  15)  0.0880 (  24)  0.0822 (   7)
................................................................................
.............................. CYCLE   16 ......................................
................................................................................
   1    -50.7006452 -0.507006E+02  0.378E-01    8.69       0.0  T
   2    -50.7008152 -0.170027E-03  0.279E-01    8.69       1.0  T
   3    -50.7009158 -0.100528E-03  0.705E-02    8.70       1.0  T
   4    -50.7009343 -0.185239E-04  0.130E-02    8.70       1.5  T
   5    -50.7009345 -0.245153E-06  0.678E-03    8.70       2.9  T
   6    -50.7009346 -0.427674E-07  0.265E-03    8.70       7.4  T
   7    -50.7009346 -0.141493E-07  0.752E-04    8.70      26.1  T
speedup  0.95
cpu  time for SCC    0.01 s
wall time for SCC    0.01 s
speedup  0.99
cpu  time for grad    0.01 s
wall time for grad    0.01 s
 E :    -50.42990462  G :  0.038916    pred/act E change: -0.954D-02 -0.292D-02
Maxdispl :   0.0575   ||displ|| :   0.1758   Lambda : -0.207D-02
Largest |displ|/coords:  0.0575 (  19)  0.0561 (  26)  0.0541 (   1)
................................................................................
.............................. CYCLE   17 ......................................
................................................................................
   1    -50.7019086 -0.507019E+02  0.142E-01    8.70       0.0  T
   2    -50.7019603 -0.517268E-04  0.102E-01    8.71       1.0  T
   3    -50.7019866 -0.263110E-04  0.352E-02    8.71       1.0  T
   4    -50.7019899 -0.326605E-05  0.974E-03    8.71       2.0  T
   5    -50.7019902 -0.277066E-06  0.336E-03    8.71       5.8  T
   6    -50.7019902 -0.124898E-07  0.189E-03    8.71      10.4  T
speedup  1.11
cpu  time for SCC    0.01 s
wall time for SCC    0.01 s
speedup  1.04
cpu  time for grad    0.01 s
wall time for grad    0.01 s
 E :    -50.43120281  G :  0.016324    pred/act E change: -0.500D-02 -0.130D-02
Maxdispl :   0.0709   ||displ|| :   0.1784   Lambda : -0.110D-02
Largest |displ|/coords:  0.0709 (   4)  0.0645 (  19)  0.0569 (   1)
................................................................................
.............................. CYCLE   18 ......................................
................................................................................
   1    -50.7053541 -0.507054E+02  0.991E-02    8.70       0.0  T
   2    -50.7053662 -0.120824E-04  0.725E-02    8.70       1.0  T
   3    -50.7053729 -0.670202E-05  0.207E-02    8.71       1.0  T
   4    -50.7053740 -0.118278E-05  0.550E-03    8.71       3.6  T
   5    -50.7053741 -0.745204E-07  0.179E-03    8.71      10.9  T
   6    -50.7053741 -0.295054E-08  0.101E-03    8.71      19.3  T
speedup  1.11
cpu  time for SCC    0.01 s
wall time for SCC    0.01 s
speedup  1.04
cpu  time for grad    0.01 s
wall time for grad    0.01 s
 E :    -50.43184674  G :  0.017165    pred/act E change: -0.107D-02 -0.644D-03
Maxdispl :   0.1164   ||displ|| :   0.2575   Lambda : -0.109D-02
Largest |displ|/coords:  0.1164 (  19)  0.0935 (   3)  0.0796 (   4)
................................................................................
.............................. CYCLE   19 ......................................
................................................................................
   1    -50.7050244 -0.507050E+02  0.156E-01    8.67       0.0  T
   2    -50.7050804 -0.559322E-04  0.114E-01    8.68       1.0  T
   3    -50.7051028 -0.223985E-04  0.366E-02    8.68       1.0  T
   4    -50.7051071 -0.433293E-05  0.122E-02    8.68       1.6  T
   5    -50.7051074 -0.355241E-06  0.300E-03    8.68       6.5  T
   6    -50.7051075 -0.125089E-07  0.182E-03    8.68      10.8  T
   7    -50.7051075 -0.410597E-08  0.566E-04    8.68      34.6  T
speedup  1.13
cpu  time for SCC    0.01 s
wall time for SCC    0.01 s
speedup  1.06
cpu  time for grad    0.01 s
wall time for grad    0.01 s
 E :    -50.43252399  G :  0.016195    pred/act E change: -0.565D-03 -0.677D-03
Maxdispl :   0.0860   ||displ|| :   0.2240   Lambda : -0.843D-03
Largest |displ|/coords:  0.0860 (  19)  0.0707 (   1)  0.0616 (   3)
................................................................................
.............................. CYCLE   20 ......................................
................................................................................
   1    -50.7083689 -0.507084E+02  0.128E-01    8.69       0.0  T
   2    -50.7083876 -0.186820E-04  0.938E-02    8.69       1.0  T
   3    -50.7083967 -0.908424E-05  0.226E-02    8.71       1.0  T
   4    -50.7083989 -0.217986E-05  0.550E-03    8.70       3.6  T
   5    -50.7083989 -0.655424E-07  0.208E-03    8.70       9.4  T
   6    -50.7083989 -0.396700E-08  0.111E-03    8.70      17.7  T
speedup  0.93
cpu  time for SCC    0.00 s
wall time for SCC    0.01 s
speedup  1.04
cpu  time for grad    0.01 s
wall time for grad    0.01 s
 E :    -50.43296905  G :  0.009618    pred/act E change: -0.580D-03 -0.445D-03
Maxdispl :   0.0523   ||displ|| :   0.1436   Lambda : -0.414D-03
Largest |displ|/coords:  0.0523 (   3)  0.0508 (  31)  0.0487 (  12)
................................................................................
.............................. CYCLE   21 ......................................
................................................................................
   1    -50.7084925 -0.507085E+02  0.883E-02    8.71       0.0  T
   2    -50.7084996 -0.710660E-05  0.650E-02    8.71       1.0  T
   3    -50.7085036 -0.401031E-05  0.155E-02    8.72       1.3  T
   4    -50.7085044 -0.744842E-06  0.501E-03    8.72       3.9  T
   5    -50.7085044 -0.350852E-07  0.143E-03    8.72      13.7  T
   6    -50.7085044 -0.309232E-08  0.834E-04    8.72      23.5  T
speedup  1.11
cpu  time for SCC    0.01 s
wall time for SCC    0.01 s
speedup  1.04
cpu  time for grad    0.01 s
wall time for grad    0.01 s
 E :    -50.43307635  G :  0.011721    pred/act E change: -0.442D-03 -0.107D-03
Maxdispl :   0.0218   ||displ|| :   0.0541   Lambda : -0.234D-03
Largest |displ|/coords:  0.0218 (  16)  0.0217 (  26)  0.0188 (   3)
................................................................................
.............................. CYCLE   22 ......................................
................................................................................
   1    -50.7107496 -0.507107E+02  0.511E-02    8.73       0.0  T
   2    -50.7107536 -0.393505E-05  0.380E-02    8.73       1.0  T
   3    -50.7107560 -0.240566E-05  0.106E-02    8.73       1.8  T
   4    -50.7107564 -0.472455E-06  0.268E-03    8.73       7.3  T
   5    -50.7107565 -0.158793E-07  0.980E-04    8.73      20.0  T
speedup  1.11
cpu  time for SCC    0.01 s
wall time for SCC    0.00 s
speedup  1.04
cpu  time for grad    0.01 s
wall time for grad    0.01 s
 E :    -50.43320093  G :  0.007906    pred/act E change: -0.211D-03 -0.125D-03
Maxdispl :   0.0398   ||displ|| :   0.0783   Lambda : -0.194D-03
Largest |displ|/coords:  0.0398 (  10)  0.0224 (   3)  0.0219 (   4)
................................................................................
.............................. CYCLE   23 ......................................
................................................................................
   1    -50.7097492 -0.507097E+02  0.548E-02    8.74       0.0  T
   2    -50.7097521 -0.286301E-05  0.408E-02    8.74       1.0  T
   3    -50.7097534 -0.126949E-05  0.122E-02    8.74       1.6  T
   4    -50.7097537 -0.362456E-06  0.325E-03    8.75       6.0  T
   5    -50.7097538 -0.154990E-07  0.823E-04    8.75      23.8  T
   6    -50.7097538 -0.130049E-08  0.462E-04    8.75      42.4  T
speedup  1.09
cpu  time for SCC    0.01 s
wall time for SCC    0.01 s
speedup  1.03
cpu  time for grad    0.01 s
wall time for grad    0.01 s
 E :    -50.43331804  G :  0.008116    pred/act E change: -0.117D-03 -0.117D-03
Maxdispl :   0.0735   ||displ|| :   0.1407   Lambda : -0.213D-03
Largest |displ|/coords:  0.0735 (  10)  0.0641 (   3)  0.0301 (  14)
................................................................................
.............................. CYCLE   24 ......................................
................................................................................
   1    -50.7097395 -0.507097E+02  0.859E-02    8.75       0.0  T
   2    -50.7097481 -0.868808E-05  0.633E-02    8.75       1.0  T
   3    -50.7097517 -0.352923E-05  0.208E-02    8.75       1.0  T
   4    -50.7097526 -0.957189E-06  0.485E-03    8.76       4.0  T
   5    -50.7097527 -0.401299E-07  0.145E-03    8.76      13.5  T
   6    -50.7097527 -0.377180E-08  0.774E-04    8.76      25.3  T
speedup  0.91
cpu  time for SCC    0.01 s
wall time for SCC    0.01 s
speedup  0.96
cpu  time for grad    0.01 s
wall time for grad    0.01 s
 E :    -50.43348887  G :  0.008157    pred/act E change: -0.975D-04 -0.171D-03
Maxdispl :   0.2240   ||displ|| :   0.4269   Lambda : -0.574D-03
Largest |displ|/coords:  0.2240 (  10)  0.1949 (   3)  0.0969 (  16)
................................................................................
.............................. CYCLE   25 ......................................
................................................................................
   1    -50.7086402 -0.507086E+02  0.268E-01    8.74       0.0  T
   2    -50.7087169 -0.766964E-04  0.198E-01    8.75       1.0  T
   3    -50.7087489 -0.320190E-04  0.580E-02    8.76       1.0  T
   4    -50.7087588 -0.993930E-05  0.135E-02    8.76       1.4  T
   5    -50.7087591 -0.258369E-06  0.450E-03    8.76       4.4  T
   6    -50.7087591 -0.324910E-07  0.222E-03    8.76       8.8  T
   7    -50.7087591 -0.984149E-08  0.937E-04    8.76      20.9  T
speedup  0.97
cpu  time for SCC    0.01 s
wall time for SCC    0.01 s
speedup  0.97
cpu  time for grad    0.01 s
wall time for grad    0.01 s
 E :    -50.43388145  G :  0.014280    pred/act E change: -0.109D-03 -0.393D-03
Maxdispl :   0.2087   ||displ|| :   0.4025   Lambda : -0.555D-03
Largest |displ|/coords:  0.2087 (  10)  0.1598 (   3)  0.1049 (  14)

generating ANC from model Hessian ...
 Shifting diagonal of input Hessian by   4.933968950822691E-003
 Lowest  eigenvalues of input Hessian
   -0.000000   -0.000000   -0.000000    0.000000    0.000000    0.000000
    0.005000    0.005206    0.005560    0.005728    0.006835    0.007708
    0.007781    0.007914    0.008665    0.009371    0.010163    0.010342
 Highest eigenvalues
    1.405553    1.426582    1.428464    2.427927    3.227133    3.803876
 
cpu  time for ANC gen    0.02 s
wall time for ANC gen    0.02 s
................................................................................
.............................. CYCLE   26 ......................................
................................................................................
   1    -50.7075905 -0.507076E+02  0.265E-01    8.72       0.0  T
   2    -50.7076817 -0.911520E-04  0.198E-01    8.72       1.0  T
   3    -50.7077217 -0.400111E-04  0.625E-02    8.73       1.0  T
   4    -50.7077331 -0.113843E-04  0.160E-02    8.73       1.2  T
   5    -50.7077335 -0.379642E-06  0.512E-03    8.73       3.8  T
   6    -50.7077335 -0.412878E-07  0.253E-03    8.73       7.7  T
   7    -50.7077335 -0.115306E-07  0.100E-03    8.73      19.5  T
   8    -50.7077335 -0.194736E-08  0.226E-04    8.73      86.9  T
   9    -50.7077335 -0.996465E-10  0.939E-05    8.73     208.9  T
speedup  1.00
cpu  time for SCC    0.01 s
wall time for SCC    0.01 s
speedup  1.02
cpu  time for grad    0.02 s
wall time for grad    0.02 s
 E :    -50.43435486  G :  0.022625    pred/act E change:  0.000D+00 -0.473D-03
Maxdispl :   0.0862   ||displ|| :   0.1703   Lambda : -0.999D-03
Largest |displ|/coords:  0.0862 (   5)  0.0541 (   8)  0.0474 (  10)
................................................................................
.............................. CYCLE   27 ......................................
................................................................................
   1    -50.7113856 -0.507114E+02  0.113E-01    8.78       0.0  T
   2    -50.7113918 -0.621568E-05  0.836E-02    8.78       1.0  T
   3    -50.7113946 -0.287030E-05  0.187E-02    8.79       1.0  T
   4    -50.7113955 -0.898215E-06  0.460E-03    8.79       4.3  T
   5    -50.7113956 -0.382007E-07  0.163E-03    8.79      12.0  T
speedup  0.89
cpu  time for SCC    0.00 s
wall time for SCC    0.00 s
speedup  0.97
cpu  time for grad    0.01 s
wall time for grad    0.01 s
 E :    -50.43511668  G :  0.017279    pred/act E change:  0.000D+00 -0.762D-03
Maxdispl :   0.1605   ||displ|| :   0.3173   Lambda : -0.154D-02
Largest |displ|/coords:  0.1605 (   5)  0.1099 (  12)  0.0973 (   6)
................................................................................
.............................. CYCLE   28 ......................................
................................................................................
   1    -50.7178552 -0.507179E+02  0.198E-01    8.90       0.0  T
   2    -50.7178878 -0.326710E-04  0.146E-01    8.90       1.0  T
   3    -50.7179009 -0.130417E-04  0.437E-02    8.90       1.0  T
   4    -50.7179049 -0.403320E-05  0.103E-02    8.90       1.9  T
   5    -50.7179051 -0.159325E-06  0.382E-03    8.90       5.1  T
   6    -50.7179051 -0.263820E-07  0.163E-03    8.90      12.0  T
   7    -50.7179051 -0.786876E-08  0.945E-04    8.90      20.7  T
speedup  0.95
cpu  time for SCC    0.01 s
wall time for SCC    0.01 s
speedup  0.98
cpu  time for grad    0.01 s
wall time for grad    0.01 s
 E :    -50.43606833  G :  0.019401    pred/act E change: -0.514D-03 -0.952D-03
Maxdispl :   0.1583   ||displ|| :   0.3870   Lambda : -0.154D-02
Largest |displ|/coords:  0.1583 (   9)  0.1502 (   5)  0.1425 (  12)
................................................................................
.............................. CYCLE   29 ......................................
................................................................................
   1    -50.7238279 -0.507238E+02  0.243E-01    9.00       0.0  T
   2    -50.7238879 -0.599529E-04  0.182E-01    9.00       1.0  T
   3    -50.7239151 -0.272291E-04  0.538E-02    9.00       1.0  T
   4    -50.7239232 -0.810155E-05  0.142E-02    8.99       1.4  T
   5    -50.7239235 -0.278300E-06  0.487E-03    9.00       4.0  T
   6    -50.7239235 -0.416002E-07  0.222E-03    9.00       8.8  T
   7    -50.7239235 -0.118932E-07  0.123E-03    9.00      15.9  T
speedup  1.11
cpu  time for SCC    0.01 s
wall time for SCC    0.01 s
speedup  1.06
cpu  time for grad    0.01 s
wall time for grad    0.01 s
 E :    -50.43715528  G :  0.026898    pred/act E change: -0.845D-03 -0.109D-02
Maxdispl :   0.2124   ||displ|| :   0.4598   Lambda : -0.226D-02
Largest |displ|/coords:  0.2124 (   6)  0.1518 (  12)  0.1488 (   9)
................................................................................
.............................. CYCLE   30 ......................................
................................................................................
   1    -50.7320031 -0.507320E+02  0.294E-01    9.05       0.0  T
   2    -50.7321133 -0.110265E-03  0.220E-01    9.04       1.0  T
   3    -50.7321674 -0.540791E-04  0.674E-02    8.95       1.0  T
   4    -50.7321818 -0.143380E-04  0.193E-02    8.96       1.0  T
   5    -50.7321822 -0.472053E-06  0.658E-03    8.97       3.0  T
   6    -50.7321823 -0.681815E-07  0.314E-03    8.97       6.2  T
   7    -50.7321823 -0.192971E-07  0.147E-03    8.97      13.4  T
speedup  1.09
cpu  time for SCC    0.01 s
wall time for SCC    0.01 s
speedup  1.04
cpu  time for grad    0.01 s
wall time for grad    0.01 s
 E :    -50.43884150  G :  0.034043    pred/act E change: -0.883D-03 -0.169D-02
Maxdispl :   0.1370   ||displ|| :   0.3459   Lambda : -0.279D-02
Largest |displ|/coords:  0.1370 (  12)  0.1140 (  27)  0.1096 (   9)
................................................................................
.............................. CYCLE   31 ......................................
................................................................................
   1    -50.7417352 -0.507417E+02  0.203E-01    8.85       0.0  T
   2    -50.7418079 -0.726638E-04  0.154E-01    8.79       1.0  T
   3    -50.7418533 -0.454275E-04  0.513E-02    8.66       1.0  T
   4    -50.7418622 -0.886606E-05  0.169E-02    8.67       1.2  T
   5    -50.7418626 -0.388442E-06  0.558E-03    8.67       3.5  T
   6    -50.7418626 -0.409414E-07  0.251E-03    8.67       7.8  T
speedup  1.11
cpu  time for SCC    0.01 s
wall time for SCC    0.01 s
speedup  1.05
cpu  time for grad    0.01 s
wall time for grad    0.01 s
 E :    -50.44021357  G :  0.030695    pred/act E change: -0.137D-02 -0.137D-02
Maxdispl :   0.0696   ||displ|| :   0.1830   Lambda : -0.168D-02
Largest |displ|/coords:  0.0696 (   5)  0.0590 (  23)  0.0578 (  12)
................................................................................
.............................. CYCLE   32 ......................................
................................................................................
   1    -50.7335897 -0.507336E+02  0.143E-01    8.60       0.0  T
   2    -50.7336079 -0.182138E-04  0.103E-01    8.61       1.0  T
   3    -50.7336158 -0.792233E-05  0.354E-02    8.63       1.0  T
   4    -50.7336177 -0.181953E-05  0.846E-03    8.62       2.3  T
   5    -50.7336178 -0.113341E-06  0.249E-03    8.62       7.9  T
   6    -50.7336178 -0.843708E-08  0.132E-03    8.62      14.8  T
speedup  0.94
cpu  time for SCC    0.00 s
wall time for SCC    0.01 s
speedup  0.98
cpu  time for grad    0.01 s
wall time for grad    0.01 s
 E :    -50.44105327  G :  0.014235    pred/act E change: -0.156D-02 -0.840D-03
Maxdispl :   0.0662   ||displ|| :   0.1725   Lambda : -0.520D-03
Largest |displ|/coords:  0.0662 (  12)  0.0630 (  11)  0.0474 (   6)
................................................................................
.............................. CYCLE   33 ......................................
................................................................................
   1    -50.7328926 -0.507329E+02  0.103E-01    8.61       0.0  T
   2    -50.7328962 -0.353782E-05  0.768E-02    8.60       1.0  T
   3    -50.7328994 -0.326405E-05  0.127E-02    8.58       1.5  T
   4    -50.7328998 -0.396607E-06  0.416E-03    8.59       4.7  T
   5    -50.7328998 -0.278116E-07  0.165E-03    8.59      11.9  T
   6    -50.7328998 -0.383420E-08  0.895E-04    8.59      21.9  T
speedup  0.94
cpu  time for SCC    0.01 s
wall time for SCC    0.01 s
speedup  0.98
cpu  time for grad    0.01 s
wall time for grad    0.01 s
 E :    -50.44140281  G :  0.008534    pred/act E change: -0.867D-03 -0.350D-03
Maxdispl :   0.0583   ||displ|| :   0.1433   Lambda : -0.279D-03
Largest |displ|/coords:  0.0583 (  11)  0.0465 (   4)  0.0409 (  13)
................................................................................
.............................. CYCLE   34 ......................................
................................................................................
   1    -50.7346424 -0.507346E+02  0.818E-02    8.59       0.0  T
   2    -50.7346454 -0.302390E-05  0.595E-02    8.59       1.0  T
   3    -50.7346477 -0.231823E-05  0.133E-02    8.57       1.5  T
   4    -50.7346480 -0.303806E-06  0.416E-03    8.57       4.7  T
   5    -50.7346480 -0.280878E-07  0.136E-03    8.57      14.4  T
   6    -50.7346480 -0.244268E-08  0.753E-04    8.57      26.1  T
speedup  0.93
cpu  time for SCC    0.00 s
wall time for SCC    0.01 s
speedup  0.98
cpu  time for grad    0.01 s
wall time for grad    0.01 s
 E :    -50.44153826  G :  0.005649    pred/act E change: -0.268D-03 -0.135D-03
Maxdispl :   0.0356   ||displ|| :   0.0831   Lambda : -0.952D-04
Largest |displ|/coords:  0.0356 (  14)  0.0326 (   5)  0.0317 (   3)
................................................................................
.............................. CYCLE   35 ......................................
................................................................................
   1    -50.7340975 -0.507341E+02  0.759E-02    8.59       0.0  T
   2    -50.7340993 -0.180495E-05  0.563E-02    8.58       1.0  T
   3    -50.7341009 -0.158909E-05  0.101E-02    8.58       1.9  T
   4    -50.7341010 -0.190160E-06  0.287E-03    8.59       6.8  T
   5    -50.7341011 -0.126990E-07  0.933E-04    8.59      21.0  T
speedup  1.11
cpu  time for SCC    0.01 s
wall time for SCC    0.00 s
speedup  1.05
cpu  time for grad    0.01 s
wall time for grad    0.01 s
 E :    -50.44158503  G :  0.005713    pred/act E change: -0.143D-03 -0.468D-04
Maxdispl :   0.0298   ||displ|| :   0.0503   Lambda : -0.462D-04
Largest |displ|/coords:  0.0298 (   3)  0.0174 (  12)  0.0173 (   5)
................................................................................
.............................. CYCLE   36 ......................................
................................................................................
   1    -50.7340109 -0.507340E+02  0.436E-02    8.61       0.0  T
   2    -50.7340114 -0.502496E-06  0.320E-02    8.61       1.0  T
   3    -50.7340118 -0.414487E-06  0.546E-03    8.61       3.6  T
   4    -50.7340119 -0.484867E-07  0.131E-03    8.61      15.0  T
   5    -50.7340119 -0.275824E-08  0.461E-04    8.61      42.6  T
speedup  1.09
cpu  time for SCC    0.00 s
wall time for SCC    0.00 s
speedup  1.04
cpu  time for grad    0.01 s
wall time for grad    0.01 s
 E :    -50.44161538  G :  0.004140    pred/act E change: -0.479D-04 -0.304D-04
Maxdispl :   0.0248   ||displ|| :   0.0670   Lambda : -0.485D-04
Largest |displ|/coords:  0.0248 (   2)  0.0246 (   3)  0.0206 (   5)
................................................................................
.............................. CYCLE   37 ......................................
................................................................................
   1    -50.7343811 -0.507344E+02  0.426E-02    8.63       0.0  T
   2    -50.7343817 -0.602669E-06  0.299E-02    8.63       1.0  T
   3    -50.7343821 -0.446781E-06  0.579E-03    8.63       3.4  T
   4    -50.7343822 -0.368185E-07  0.148E-03    8.64      13.3  T
   5    -50.7343822 -0.423323E-08  0.465E-04    8.63      42.1  T
speedup  1.06
cpu  time for SCC    0.01 s
wall time for SCC    0.00 s
speedup  1.03
cpu  time for grad    0.01 s
wall time for grad    0.01 s
 E :    -50.44163588  G :  0.002250    pred/act E change: -0.232D-04 -0.205D-04
Maxdispl :   0.0262   ||displ|| :   0.0415   Lambda : -0.146D-04
Largest |displ|/coords:  0.0262 (   3)  0.0203 (   2)  0.0104 (   5)
................................................................................
.............................. CYCLE   38 ......................................
................................................................................
   1    -50.7341611 -0.507342E+02  0.347E-02    8.63       0.0  T
   2    -50.7341613 -0.190620E-06  0.261E-02    8.63       1.0  T
   3    -50.7341615 -0.182799E-06  0.304E-03    8.63       6.5  T
   4    -50.7341615 -0.201723E-07  0.780E-04    8.63      25.2  T
   5    -50.7341615 -0.115108E-08  0.362E-04    8.63      54.2  T
speedup  0.89
cpu  time for SCC    0.00 s
wall time for SCC    0.00 s
speedup  1.00
cpu  time for grad    0.01 s
wall time for grad    0.01 s
 E :    -50.44164641  G :  0.002130    pred/act E change: -0.243D-04 -0.105D-04
Maxdispl :   0.0357   ||displ|| :   0.0617   Lambda : -0.158D-04
Largest |displ|/coords:  0.0357 (   3)  0.0328 (   2)  0.0141 (   5)
................................................................................
.............................. CYCLE   39 ......................................
................................................................................
   1    -50.7339548 -0.507340E+02  0.444E-02    8.62       0.0  T
   2    -50.7339550 -0.220821E-06  0.334E-02    8.62       1.0  T
   3    -50.7339553 -0.235619E-06  0.338E-03    8.63       5.8  T
   4    -50.7339553 -0.199609E-07  0.101E-03    8.63      19.4  T
   5    -50.7339553 -0.154174E-08  0.388E-04    8.63      50.6  T
   6    -50.7339553 -0.220162E-09  0.235E-04    8.63      83.5  T
speedup  0.93
cpu  time for SCC    0.00 s
wall time for SCC    0.01 s
speedup  0.94
cpu  time for grad    0.01 s
wall time for grad    0.01 s
 E :    -50.44165726  G :  0.002621    pred/act E change: -0.732D-05 -0.108D-04
Maxdispl :   0.0403   ||displ|| :   0.0667   Lambda : -0.133D-04
Largest |displ|/coords:  0.0403 (   3)  0.0385 (   2)  0.0148 (  14)
................................................................................
.............................. CYCLE   40 ......................................
................................................................................
   1    -50.7337131 -0.507337E+02  0.429E-02    8.61       0.0  T
   2    -50.7337133 -0.154575E-06  0.323E-02    8.61       1.0  T
   3    -50.7337134 -0.143253E-06  0.264E-03    8.61       7.4  T
   4    -50.7337134 -0.176307E-07  0.101E-03    8.61      19.5  T
   5    -50.7337134 -0.854335E-09  0.299E-04    8.61      65.6  T
   6    -50.7337134 -0.101217E-09  0.165E-04    8.61     119.0  T
speedup  1.13
cpu  time for SCC    0.01 s
wall time for SCC    0.01 s
speedup  1.01
cpu  time for grad    0.01 s
wall time for grad    0.01 s
 E :    -50.44166675  G :  0.002675    pred/act E change: -0.792D-05 -0.950D-05
Maxdispl :   0.0485   ||displ|| :   0.0809   Lambda : -0.154D-04
Largest |displ|/coords:  0.0485 (   3)  0.0432 (   2)  0.0224 (   1)
................................................................................
.............................. CYCLE   41 ......................................
................................................................................
   1    -50.7337374 -0.507337E+02  0.485E-02    8.60       0.0  T
   2    -50.7337376 -0.252925E-06  0.366E-02    8.60       1.0  T
   3    -50.7337379 -0.212611E-06  0.308E-03    8.60       6.4  T
   4    -50.7337379 -0.329080E-07  0.120E-03    8.60      16.4  T
   5    -50.7337379 -0.160986E-08  0.375E-04    8.60      52.3  T
   6    -50.7337379 -0.122171E-09  0.203E-04    8.60      96.8  T
speedup  0.94
cpu  time for SCC    0.00 s
wall time for SCC    0.01 s
speedup  1.01
cpu  time for grad    0.01 s
wall time for grad    0.01 s
 E :    -50.44167720  G :  0.001935    pred/act E change: -0.668D-05 -0.104D-04
Maxdispl :   0.0530   ||displ|| :   0.0799   Lambda : -0.123D-04
Largest |displ|/coords:  0.0530 (   3)  0.0372 (   2)  0.0209 (   1)
................................................................................
.............................. CYCLE   42 ......................................
................................................................................
   1    -50.7337094 -0.507337E+02  0.512E-02    8.60       0.0  T
   2    -50.7337096 -0.220845E-06  0.386E-02    8.60       1.0  T
   3    -50.7337099 -0.232171E-06  0.276E-03    8.60       7.1  T
   4    -50.7337099 -0.202545E-07  0.123E-03    8.60      16.0  T
   5    -50.7337099 -0.128718E-08  0.362E-04    8.60      54.2  T
   6    -50.7337099 -0.133689E-09  0.203E-04    8.60      96.8  T
speedup  1.11
cpu  time for SCC    0.01 s
wall time for SCC    0.01 s
speedup  1.01
cpu  time for grad    0.01 s
wall time for grad    0.01 s
 E :    -50.44168577  G :  0.001610    pred/act E change: -0.773D-05 -0.857D-05
Maxdispl :   0.0379   ||displ|| :   0.0612   Lambda : -0.942D-05
Largest |displ|/coords:  0.0379 (   3)  0.0257 (   1)  0.0227 (   2)
................................................................................
.............................. CYCLE   43 ......................................
................................................................................
   1    -50.7340261 -0.507340E+02  0.387E-02    8.60       0.0  T
   2    -50.7340262 -0.149497E-06  0.291E-02    8.60       1.0  T
   3    -50.7340264 -0.157133E-06  0.237E-03    8.60       8.3  T
   4    -50.7340264 -0.134537E-07  0.100E-03    8.60      19.6  T
   5    -50.7340264 -0.947679E-09  0.280E-04    8.60      70.1  T
speedup  1.09
cpu  time for SCC    0.00 s
wall time for SCC    0.00 s
speedup  0.98
cpu  time for grad    0.01 s
wall time for grad    0.01 s
 E :    -50.44169204  G :  0.000892    pred/act E change: -0.617D-05 -0.627D-05
Maxdispl :   0.0330   ||displ|| :   0.0538   Lambda : -0.488D-05
Largest |displ|/coords:  0.0330 (   3)  0.0247 (   6)  0.0231 (   1)
................................................................................
.............................. CYCLE   44 ......................................
................................................................................
   1    -50.7340399 -0.507340E+02  0.372E-02    8.61       0.0  T
   2    -50.7340400 -0.115013E-06  0.280E-02    8.61       1.0  T
   3    -50.7340402 -0.138662E-06  0.213E-03    8.61       9.2  T
   4    -50.7340402 -0.795974E-08  0.842E-04    8.61      23.3  T
   5    -50.7340402 -0.836344E-09  0.279E-04    8.61      70.2  T
speedup  1.09
cpu  time for SCC    0.01 s
wall time for SCC    0.00 s
speedup  0.99
cpu  time for grad    0.01 s
wall time for grad    0.01 s
 E :    -50.44169529  G :  0.000849    pred/act E change: -0.473D-05 -0.325D-05
Maxdispl :   0.0202   ||displ|| :   0.0383   Lambda : -0.455D-05
Largest |displ|/coords:  0.0202 (   6)  0.0202 (   1)  0.0121 (   3)
................................................................................
.............................. CYCLE   45 ......................................
................................................................................
   1    -50.7344008 -0.507344E+02  0.196E-02    8.61       0.0  T
   2    -50.7344009 -0.661883E-07  0.145E-02    8.61       1.3  T
   3    -50.7344010 -0.661677E-07  0.203E-03    8.61       9.6  T
   4    -50.7344010 -0.695556E-08  0.631E-04    8.61      31.1  T
   5    -50.7344010 -0.717250E-09  0.186E-04    8.61     105.2  T
speedup  1.09
cpu  time for SCC    0.00 s
wall time for SCC    0.00 s
speedup  1.00
cpu  time for grad    0.01 s
wall time for grad    0.01 s
 E :    -50.44169773  G :  0.000999    pred/act E change: -0.245D-05 -0.245D-05
Maxdispl :   0.0190   ||displ|| :   0.0360   Lambda : -0.274D-05
Largest |displ|/coords:  0.0190 (   3)  0.0184 (   1)  0.0161 (   6)
................................................................................
.............................. CYCLE   46 ......................................
................................................................................
   1    -50.7342785 -0.507343E+02  0.228E-02    8.62       0.0  T
   2    -50.7342785 -0.498543E-07  0.171E-02    8.62       1.1  T
   3    -50.7342786 -0.536213E-07  0.150E-03    8.62      13.0  T
   4    -50.7342786 -0.443529E-08  0.462E-04    8.62      42.4  T
   5    -50.7342786 -0.302798E-09  0.186E-04    8.62     105.4  T
speedup  1.09
cpu  time for SCC    0.00 s
wall time for SCC    0.00 s
speedup  0.98
cpu  time for grad    0.01 s
wall time for grad    0.01 s
 E :    -50.44169961  G :  0.000821    pred/act E change: -0.228D-05 -0.188D-05
Maxdispl :   0.0142   ||displ|| :   0.0279   Lambda : -0.244D-05
Largest |displ|/coords:  0.0142 (   1)  0.0114 (   7)  0.0113 (   6)
................................................................................
.............................. CYCLE   47 ......................................
................................................................................
   1    -50.7341890 -0.507342E+02  0.141E-02    8.62       0.0  T
   2    -50.7341891 -0.322671E-07  0.106E-02    8.62       1.9  T
   3    -50.7341891 -0.353222E-07  0.125E-03    8.62      15.7  T
   4    -50.7341891 -0.253286E-08  0.302E-04    8.62      64.9  T
   5    -50.7341891 -0.212857E-09  0.113E-04    8.62     173.7  T
speedup  1.11
cpu  time for SCC    0.01 s
wall time for SCC    0.00 s
speedup  1.01
cpu  time for grad    0.01 s
wall time for grad    0.01 s
 E :    -50.44170125  G :  0.000533    pred/act E change: -0.137D-05 -0.164D-05
Maxdispl :   0.0097   ||displ|| :   0.0200   Lambda : -0.136D-05
Largest |displ|/coords:  0.0097 (   1)  0.0084 (   7)  0.0082 (   3)
................................................................................
.............................. CYCLE   48 ......................................
................................................................................
   1    -50.7341656 -0.507342E+02  0.112E-02    8.62       0.0  T
   2    -50.7341656 -0.211322E-07  0.844E-03    8.62       2.3  T
   3    -50.7341656 -0.226873E-07  0.991E-04    8.62      19.8  T
   4    -50.7341656 -0.171310E-08  0.333E-04    8.62      59.0  T
speedup  1.08
cpu  time for SCC    0.00 s
wall time for SCC    0.00 s
speedup  0.98
cpu  time for grad    0.01 s
wall time for grad    0.01 s
 E :    -50.44170214  G :  0.000444    pred/act E change: -0.122D-05 -0.888D-06
Maxdispl :   0.0099   ||displ|| :   0.0202   Lambda : -0.974D-06
Largest |displ|/coords:  0.0099 (   1)  0.0093 (   3)  0.0088 (   7)
................................................................................
.............................. CYCLE   49 ......................................
................................................................................
   1    -50.7341363 -0.507341E+02  0.107E-02    8.62       0.0  T
   2    -50.7341363 -0.224049E-07  0.802E-03    8.62       2.4  T
   3    -50.7341364 -0.223094E-07  0.108E-03    8.62      18.2  T
   4    -50.7341364 -0.208642E-08  0.375E-04    8.62      52.4  T
   5    -50.7341364 -0.165031E-09  0.858E-05    8.62     228.6  T
speedup  0.89
cpu  time for SCC    0.00 s
wall time for SCC    0.00 s
speedup  1.00
cpu  time for grad    0.01 s
wall time for grad    0.01 s
 E :    -50.44170278  G :  0.000436    pred/act E change: -0.681D-06 -0.638D-06
Maxdispl :   0.0136   ||displ|| :   0.0223   Lambda : -0.768D-06
Largest |displ|/coords:  0.0136 (   3)  0.0099 (   1)  0.0071 (   6)
................................................................................
.............................. CYCLE   50 ......................................
................................................................................
   1    -50.7341368 -0.507341E+02  0.123E-02    8.62       0.0  T
   2    -50.7341368 -0.269831E-07  0.918E-03    8.62       2.1  T
   3    -50.7341368 -0.247090E-07  0.123E-03    8.62      16.0  T
   4    -50.7341368 -0.302967E-08  0.410E-04    8.62      47.8  T
   5    -50.7341368 -0.188621E-09  0.911E-05    8.62     215.2  T
speedup  0.85
cpu  time for SCC    0.00 s
wall time for SCC    0.00 s
speedup  0.99
cpu  time for grad    0.01 s
wall time for grad    0.01 s
 E :    -50.44170329  G :  0.000376    pred/act E change: -0.487D-06 -0.510D-06
Maxdispl :   0.0057   ||displ|| :   0.0117   Lambda : -0.492D-06
Largest |displ|/coords:  0.0057 (   3)  0.0038 (   1)  0.0032 (   6)
................................................................................
.............................. CYCLE   51 ......................................
................................................................................
   1    -50.7341751 -0.507342E+02  0.678E-03    8.62       0.0  T
   2    -50.7341751 -0.124247E-07  0.498E-03    8.62       3.9  T
   3    -50.7341751 -0.917417E-08  0.900E-04    8.62      21.8  T
   4    -50.7341751 -0.146470E-08  0.257E-04    8.62      76.4  T
speedup  1.08
cpu  time for SCC    0.00 s
wall time for SCC    0.00 s
speedup  1.07
cpu  time for grad    0.01 s
wall time for grad    0.01 s
 E :    -50.44170366  G :  0.000307    pred/act E change: -0.384D-06 -0.366D-06
Maxdispl :   0.0041   ||displ|| :   0.0110   Lambda : -0.467D-06
Largest |displ|/coords:  0.0041 (   3)  0.0038 (  16)  0.0037 (   2)
................................................................................
.............................. CYCLE   52 ......................................
................................................................................
   1    -50.7342052 -0.507342E+02  0.672E-03    8.62       0.0  T
   2    -50.7342052 -0.143794E-07  0.490E-03    8.62       4.0  T
   3    -50.7342052 -0.102062E-07  0.978E-04    8.62      20.0  T
   4    -50.7342052 -0.161170E-08  0.289E-04    8.62      67.9  T
speedup  0.83
cpu  time for SCC    0.00 s
wall time for SCC    0.00 s
speedup  0.99
cpu  time for grad    0.01 s
wall time for grad    0.01 s
 E :    -50.44170400  G :  0.000265    pred/act E change: -0.246D-06 -0.345D-06
Maxdispl :   0.0042   ||displ|| :   0.0115   Lambda : -0.348D-06
Largest |displ|/coords:  0.0042 (  16)  0.0040 (   3)  0.0040 (   9)

generating ANC from model Hessian ...
 Shifting diagonal of input Hessian by   4.997630950702421E-003
 Lowest  eigenvalues of input Hessian
   -0.000000   -0.000000   -0.000000    0.000000    0.000000    0.000000
    0.005000    0.005302    0.005523    0.005624    0.005954    0.006483
    0.006859    0.007234    0.007490    0.008095    0.008482    0.008819
 Highest eigenvalues
    1.385112    1.405140    1.408579    2.501785    3.241636    3.889578
 
cpu  time for ANC gen    0.02 s
wall time for ANC gen    0.02 s
................................................................................
.............................. CYCLE   53 ......................................
................................................................................
   1    -50.7342108 -0.507342E+02  0.719E-03    8.62       0.0  T
   2    -50.7342108 -0.136804E-07  0.525E-03    8.62       3.7  T
   3    -50.7342108 -0.112252E-07  0.987E-04    8.62      19.9  T
   4    -50.7342108 -0.139722E-08  0.303E-04    8.62      64.8  T
speedup  1.11
cpu  time for SCC    0.00 s
wall time for SCC    0.00 s
speedup  0.99
cpu  time for grad    0.01 s
wall time for grad    0.01 s
 E :    -50.44170426  G :  0.000227    pred/act E change:  0.000D+00 -0.260D-06
Maxdispl :   0.0012   ||displ|| :   0.0026   Lambda : -0.175D-06
Largest |displ|/coords:  0.0012 (   8)  0.0009 (  10)  0.0008 (   2)
................................................................................
.............................. CYCLE   54 ......................................
................................................................................
   1    -50.7342118 -0.507342E+02  0.230E-03    8.62       0.0  T
   2    -50.7342118 -0.123495E-08  0.172E-03    8.62      11.4  T
   3    -50.7342118 -0.796284E-09  0.246E-04    8.62      79.7  T
   4    -50.7342118 -0.187264E-09  0.703E-05    8.62     279.1  T
speedup  1.11
cpu  time for SCC    0.00 s
wall time for SCC    0.00 s
speedup  1.00
cpu  time for grad    0.01 s
wall time for grad    0.01 s
 E :    -50.44170438  G :  0.000139    pred/act E change:  0.000D+00 -0.117D-06
Maxdispl :   0.0018   ||displ|| :   0.0045   Lambda : -0.198D-06
Largest |displ|/coords:  0.0018 (   2)  0.0015 (   8)  0.0013 (  20)
................................................................................
.............................. CYCLE   55 ......................................
................................................................................
   1    -50.7342061 -0.507342E+02  0.413E-03    8.62       0.0  T
   2    -50.7342062 -0.311937E-08  0.308E-03    8.62       6.4  T
   3    -50.7342062 -0.211797E-08  0.424E-04    8.62      46.2  T
   4    -50.7342062 -0.428628E-09  0.122E-04    8.62     160.4  T
speedup  1.08
cpu  time for SCC    0.00 s
wall time for SCC    0.00 s
speedup  0.99
cpu  time for grad    0.01 s
wall time for grad    0.01 s
 E :    -50.44170448  G :  0.000121    pred/act E change: -0.875D-07 -0.103D-06
Maxdispl :   0.0014   ||displ|| :   0.0026   Lambda : -0.629D-07
Largest |displ|/coords:  0.0014 (   2)  0.0008 (   1)  0.0008 (   4)
................................................................................
.............................. CYCLE   56 ......................................
................................................................................
   1    -50.7342049 -0.507342E+02  0.202E-03    8.62       0.0  T
   2    -50.7342049 -0.526761E-09  0.150E-03    8.62      13.1  T
   3    -50.7342049 -0.487645E-09  0.193E-04    8.62     101.8  T
   4    -50.7342049 -0.446860E-10  0.556E-05    8.62     352.7  T
speedup  1.03
cpu  time for SCC    0.00 s
wall time for SCC    0.00 s
speedup  0.98
cpu  time for grad    0.01 s
wall time for grad    0.01 s
 E :    -50.44170453  G :  0.000096    pred/act E change: -0.988D-07 -0.499D-07
Maxdispl :   0.0031   ||displ|| :   0.0051   Lambda : -0.867D-07
Largest |displ|/coords:  0.0031 (   2)  0.0018 (   1)  0.0015 (   4)

   *** GEOMETRY OPTIMIZATION CONVERGED AFTER 56 ITERATIONS ***

------------------------------------------------------------------------
 total energy gain (kcal):     -0.0002
------------------------------------------------------------------------
================
 final structure:
================
$coord
       -4.75176162187106        0.12978333497357       -0.82417705039203      S 
       -3.83844562955217        0.78951495934434        1.64621585661649      O 
       -7.14333394005526        1.07021013568667       -1.57185491717272      O 
       -2.67172781182520        0.90266923056400       -2.78718073428864      O 
       -4.73154010517742       -2.78601763537457       -1.10658515244072      O 
       -3.08117908023708       -3.37077934282665       -0.41829164000780      H 
       -1.62598972457250        2.30201492091843       -2.03117497755778      H 
       -0.26204957386880       -4.25633697915201        0.31497069056761      O 
       -0.10649774034892       -6.06024627186115        0.24042709015249      H 
        4.45177626000307        1.71301129801822       -0.17067514003022      O 
        5.77352286344973        2.69939296648708        0.57817977639992      H 
       -0.52522573450147        2.47027772656701        5.07662813675032      O 
       -1.46645739180402        2.30827538178793        6.61540591497025      H 
       -1.72706435059669        2.12298371680214        3.72186046087622      H 
        0.26816760252804        4.33944615376991       -1.08720249259335      O 
        1.83218121879633        3.40498970858319       -0.65657420643206      H 
        0.69948309538392        5.53307644652473       -2.38076857645526      H 
        2.67208750988228       -1.10119236985699        3.43432002681838      O 
        3.84939274751911        0.55921969590754        1.21251571138977      H 
        1.61157900028353        0.18821799349986        4.24462921500009      H 
        1.50654154192813       -2.27466128276034        2.65024876497943      H 
        1.99523925156292       -2.12367023749247       -3.53319883013159      N 
        3.25136637882046       -0.87278476884031       -2.79917762524130      H 
        2.82149806689482       -3.02055926825014       -5.00472936388978      H 
        0.70494366380433       -3.54355771279699       -1.18022827551364      H 
        0.49349356024563       -1.12327780023250       -4.18358270016594      H 
$end
 
 Bond Distances (Angstroems)
 ---------------------------
S1-O2=1.4368         S1-O3=1.4163         S1-O4=1.5678         S1-O5=1.5502         O2-S1=1.4368         O3-S1=1.4163         
O4-S1=1.5678         O4-H7=1.0073         O5-S1=1.5502         O5-H6=0.9956         H6-O5=0.9956         H7-O4=1.0073         
O8-H9=0.9589         O8-H25=1.0150        H9-O8=0.9589         O10-H11=0.9585       O10-H19=1.0051       H11-O10=0.9585       
O12-H13=0.9584       O12-H14=0.9758       H13-O12=0.9584       H14-O12=0.9758       O15-H16=0.9907       O15-H17=0.9590       
H16-O15=0.9907       H17-O15=0.9590       O18-H20=0.9820       O18-H21=0.9686       H19-O10=1.0051       H20-O18=0.9820       
H21-O18=0.9686       N22-H23=1.0153       N22-H24=1.0113       N22-H26=1.0150       H23-N22=1.0153       H24-N22=1.0113       
H25-O8=1.0150        H26-N22=1.0150       
 N  H  Rav=1.0139 sigma=0.0018  Rmin=1.0113  Rmax=1.0153     3
 O  H  Rav=0.9812 sigma=0.0202  Rmin=0.9584  Rmax=1.0150    12
 S  O  Rav=1.4928 sigma=0.0669  Rmin=1.4163  Rmax=1.5678     4
 
 selected bond angles (degree)
 --------------------
O3-S1-O2=117.99                O4-S1-O2=107.66                O4-S1-O3=110.52                O5-S1-O2=109.10                
O5-S1-O3=109.21                O5-S1-O4=101.01                H7-O4-S1=108.32                H6-O5-S1=106.27                
H25-O8-H9=107.13               H19-O10-H11=105.14             
 
 selected dihedral angles (degree)
 ---------------------------------
H7-O4-S1-O2=335.04            H7-O4-S1-O3=105.22            H7-O4-S1-O5=220.73            H6-O5-S1-O2=315.24            
H6-O5-S1-O3=184.95            H6-O5-S1-O4= 68.46            
 
 CMA Distance (Angstroems)
 ---------------------------
R(CMA):  3.3044

========================================================================
 FINAL SINGLEPOINT CALCULATION ON OPTIMIZED GEOMETRY
========================================================================

 Ncao       : 65
 Nao        : 64
 Nshell     : 38
 Nel        : 80
 T(el)      :   300.0
 intcut     :    25.0
 scfconv/Eh :  0.100E-05
   qconv/e  :  0.100E-03
 intneglect :  0.100E-07
 broydamp   :      0.250
 iter      E             dE          RMSdq      gap      omega  full diag
   1    -50.7342049 -0.507342E+02  0.277E-05    8.62       0.0  T
   2    -50.7342049 -0.156319E-12  0.180E-05    8.62    1089.0  T
   3    -50.7342049 -0.312639E-12  0.291E-06    8.62    6735.5  T
speedup  1.11
cpu  time for SCC    0.00 s
wall time for SCC    0.00 s

   *** convergence criteria satisfied after 3 iterations ***

          eigenvalues
 #    :          28         29         30         31         32         33         34         35
 occ. :        2.000      2.000      2.000      2.000      2.000      2.000      2.000      2.000
 eps  :       -13.509    -13.353    -12.859    -12.590    -12.458    -12.326    -12.278    -12.258
 #    :          36         37         38         39         40         41         42         43
 occ. :        2.000      2.000      2.000      2.000      2.000      0.000      0.000      0.000
 eps  :       -12.094    -11.806    -11.703    -11.685    -11.438     -2.819     -0.701     -0.575
 #    :          44         45         46         47         48         49         50         51
 occ. :        0.000      0.000      0.000      0.000      0.000      0.000      0.000      0.000
 eps  :         0.169      1.028      1.327      1.912      2.834      3.008      4.916      5.377


   #   Z            q   n(s)   n(p)   n(d)      C6AA      α(0)
   1  16 S      1.657  1.583  1.803  0.957    89.753    15.945
   2   8 O     -0.703  1.755  4.949  0.000    28.800     7.195
   3   8 O     -0.636  1.751  4.885  0.000    27.018     6.969
   4   8 O     -0.631  1.756  4.875  0.000    25.900     6.870
   5   8 O     -0.594  1.751  4.843  0.000    25.015     6.752
   6   1 H      0.384  0.616  0.000  0.000     0.511     1.120
   7   1 H      0.389  0.611  0.000  0.000     0.502     1.111
   8   8 O     -0.626  1.758  4.868  0.000    25.817     6.857
   9   1 H      0.293  0.707  0.000  0.000     0.742     1.353
  10   8 O     -0.637  1.758  4.879  0.000    26.093     6.894
  11   1 H      0.282  0.718  0.000  0.000     0.777     1.384
  12   8 O     -0.600  1.740  4.860  0.000    25.188     6.774
  13   1 H      0.284  0.716  0.000  0.000     0.771     1.379
  14   1 H      0.334  0.666  0.000  0.000     0.627     1.244
  15   8 O     -0.605  1.756  4.849  0.000    25.312     6.790
  16   1 H      0.346  0.654  0.000  0.000     0.599     1.216
  17   1 H      0.294  0.706  0.000  0.000     0.740     1.351
  18   8 O     -0.629  1.759  4.869  0.000    25.888     6.867
  19   1 H      0.344  0.656  0.000  0.000     0.604     1.221
  20   1 H      0.329  0.671  0.000  0.000     0.640     1.256
  21   1 H      0.312  0.688  0.000  0.000     0.686     1.301
  22   7 N     -0.455  1.363  4.092  0.000    31.944     8.394
  23   1 H      0.196  0.804  0.000  0.000     1.125     1.661
  24   1 H      0.156  0.844  0.000  0.000     1.358     1.825
  25   1 H      0.332  0.668  0.000  0.000     0.628     1.244
  26   1 H      0.183  0.817  0.000  0.000     1.199     1.715

 Mol. C6AA /au·bohr⁶  :       5439.899925
 Mol. C8AA /au·bohr⁸  :     117536.980177
 Mol. α(0) /au        :        106.690400

 
 Wiberg/Mayer (AO) data. WBOs > 0.1 written file <wbo>
 largest (>0.05) Wiberg bond orders for each atom
           total WBO             WBO to atom ...
     1  S   4.883    O    3 1.510    O    2 1.385    O    5 1.000    O    4 0.954
     2  O   1.743    S    1 1.385    O    3 0.126    O    4 0.091    O    5 0.088
     3  O   1.821    S    1 1.510    O    2 0.126    O    4 0.089    O    5 0.079
     4  O   1.956    S    1 0.954    H    7 0.702    O    2 0.091    O    3 0.089    O    5 0.055
     5  O   1.998    S    1 1.000    H    6 0.728    O    2 0.088    O    3 0.079    O    4 0.055
     6  H   0.853    O    5 0.728    O    8 0.108
     7  H   0.848    O    4 0.702    O   15 0.130
     8  O   1.919    H    9 0.909    H   25 0.754    H    6 0.108    N   22 0.057
     9  H   0.914    O    8 0.909
    10  O   1.872    H   11 0.914    H   19 0.772    H   16 0.080
    11  H   0.920    O   10 0.914
    12  O   1.876    H   13 0.915    H   14 0.844    H   20 0.062
    13  H   0.919    O   12 0.915
    14  H   0.888    O   12 0.844
    15  O   1.927    H   17 0.911    H   16 0.799    H    7 0.130
    16  H   0.880    O   15 0.799    O   10 0.080
    17  H   0.914    O   15 0.911
    18  O   1.903    H   21 0.869    H   20 0.828    H   19 0.108
    19  H   0.882    O   10 0.772    O   18 0.108
    20  H   0.892    O   18 0.828    O   12 0.062
    21  H   0.903    O   18 0.869
    22  N   3.081    H   24 0.971    H   26 0.953    H   23 0.945    H   25 0.133    O    8 0.057
    23  H   0.961    N   22 0.945
    24  H   0.975    N   22 0.971
    25  H   0.890    O    8 0.754    N   22 0.133
    26  H   0.967    N   22 0.953
 MOs/occ written to file <molden.input>
 
molecular dipole:
                 x           y           z       tot (Debye)
 q only:        2.114      -0.541      -0.510
   full:        2.316      -0.540      -0.825       6.398
molecular quadrupole (traceless):
                xx          xy          yy          xz          yz          zz
 q only:      -18.553       4.696      12.705     -10.360      -0.257       5.848
  q+dip:      -21.351       6.570      13.267     -13.659      -0.484       8.084
   full:      -21.313       6.856      13.499     -13.780      -0.496       7.813

SCC energy    :     -50.7342049
rep           :       0.2920662
ES            :       0.2351501
AES           :      -0.0470959
AXC           :      -0.0066119
disp          :      -0.0181577
XB            :       0.0000000
fix           :       0.0000000
total E       :     -50.4417045
atomizationE  :       4.9720087     3119.98
(atE without considering molecular charge,
 total energy contains solvation terms)
H-L gap (eV)  :          8.6191
optimized geometry written to: xtbopt.xyz


------------------------------------------------------------------------
 * finished run on 2019/09/16 at 11:57:09.868     
------------------------------------------------------------------------
 total:
 * wall-time:     0 d,  0 h,  0 min,  1.442 sec
 *  cpu-time:     0 d,  0 h,  0 min,  1.427 sec
 * ratio c/w:     0.990 speedup
 SCF:
 * wall-time:     0 d,  0 h,  0 min,  0.141 sec
 *  cpu-time:     0 d,  0 h,  0 min,  0.137 sec
 * ratio c/w:     0.969 speedup
 ANC optimizer:
 * wall-time:     0 d,  0 h,  0 min,  1.277 sec
 *  cpu-time:     0 d,  0 h,  0 min,  1.268 sec
 * ratio c/w:     0.993 speedup

