      -----------------------------------------------------------      
     |                   =====================                   |     
     |                           x T B                           |     
     |                   =====================                   |     
     |                         S. Grimme                         |     
     |          Mulliken Center for Theoretical Chemistry        |     
     |                    University of Bonn                     |     
     |                 Version 6.0.1 (SAW181210)                 |     
      -----------------------------------------------------------      

   This program is distributed in the hope that it will be useful,
   but WITHOUT ANY WARRANTY; without even the implied warranty of
   MERCHANTABILITY or FITNESS FOR A PARTICULAR PURPOSE.
   
   FOR NON-COMMERCIAL, ACADEMIA USE ONLY.
   
   Cite this work as:
   S. Grimme, C. Bannwarth, P. Shushkov, J. Comput. Theory Chem., 2017,
   13, 1989-2009.
   C. Bannwarth, S. Ehlert and S. Grimme., ChemRxiv, 2018, preprint.
   http://doi.org/10.26434/chemrxiv.7246238.v1
   
   for sTDA-xTB:
   S. Grimme and C. Bannwarth, J. Chem. Phys., 2016, 145, 054103.
   
   in the mass-spec context:
   V. Asgeirsson, C. Bauer and S. Grimme, Chem. Sci., 2017, 8, 4879.
   
   if GBSA is used:
   P. Shushkov, F. März and S. Grimme, unpublished.
   
   for ANC optimizer:
   S. Grimme, unpublished.
   Rational Function algorithm used in ANCopt:
   F. Eckert, P. Pulay, H.-J. Werner, J. Comput. Chem., 1997, 18, 1473.
   
   with help from (in alphabetical order)
   C. Bannwarth, F. Bohle, G. Brandenburg, E. Caldeweyher, M. Checinski,
   S. Dohm, S. Ehlert, S. Ehrlich, F. März, H. Neugebauer, J. Pisarek,
   P. Pracht, P. Shushkov, and S. Spicher.
   
 * started run on 2019/09/16 at 12:08:23.794     
========================================================================
 # omp threads = 1
========================================================================
number of atoms            : 26
number of electrons        : 80
charge                     : 0
spin                       : .0
first test random number   : .1688

########################################################################
# WARNING! Please study the warnings concerning your input carefully
#  - XTBPATH is not set, using XTBHOME instead
#  - the use of '-opt' is discouraged, please use '--opt' next time
#  - the use of '-chrg' is discouraged, please use '--chrg' next time
#  - the use of '-uhf' is discouraged, please use '--uhf' next time
########################################################################

           ------------------------------------------------- 
          |                 G F N 2 - x T B                 |
          | Geometry, Frequencies, Noncovalent interactions |
          |            JCTC 2018 parametrisation            |
           ------------------------------------------------- 
      method parameters     
 k(s)        :  1.8500
 k(p)        :  2.2300
 k(d)        :  2.2300
 k(f)        :  2.0000
 kEN (H0ij)  : -2.0000
 D4 a1       :  0.5200
 D4 a2       :  5.0000
 D4 s6       :  1.0000
 D4 s8       :  2.7000
 D4 s9       :  5.0000
 alphaj      :  2.0000


            Z     q(EN)     CN     RAES       Cart. coordinates
     1  S   6.0    0.59    4.29    4.23    -4.38931    -1.04263    -0.87321
     2  O   6.0   -0.33    1.18    1.80    -3.25958    -0.77132     1.62310
     3  O   6.0   -0.27    1.09    1.80    -7.07636    -0.88297    -1.31130
     4  O   6.0   -0.24    2.06    1.83    -2.88770     0.88990    -2.75891
     5  O   6.0   -0.23    2.07    1.83    -3.49908    -3.64770    -2.17276
     6  H   1.0    0.17    1.28    1.49    -1.71773    -3.93125    -1.80844
     7  H   1.0    0.16    1.20    1.46    -2.38501     2.34809    -1.75525
     8  O   6.0   -0.39    1.66    1.81     0.99842    -3.60636    -0.97866
     9  H   1.0    0.17    0.95    1.42     1.58850    -5.30976    -1.46239
    10  O   6.0   -0.40    1.62    1.81     3.72984     2.70389     0.22240
    11  H   1.0    0.17    0.94    1.42     5.19092     3.83693     0.47783
    12  O   6.0   -0.27    1.96    1.82    -1.70843    -0.56488     6.35686
    13  H   1.0    0.15    0.97    1.43    -3.14338    -0.59811     7.47687
    14  H   1.0    0.17    1.05    1.44    -2.39192    -0.83178     4.69066
    15  O   6.0   -0.29    2.06    1.83    -0.61074     4.36846    -0.05525
    16  H   1.0    0.18    1.13    1.45     1.15689     3.93409    -0.09314
    17  H   1.0    0.15    0.97    1.43    -0.73185     5.79550     1.06880
    18  O   6.0   -0.22    2.92    2.59     2.40337    -1.01345     2.50577
    19  H   1.0    0.14    0.99    1.43     1.01135    -0.64802     3.69682
    20  H   1.0    0.17    1.20    1.46     1.89338    -2.23253     1.18526
    21  H   1.0    0.16    1.19    1.46     3.12589     0.54701     1.77471
    22  N   5.0   -0.15    3.97    2.78     2.54050     0.13138    -3.56196
    23  H   1.0    0.12    1.14    1.45     3.26309     1.44608    -2.32346
    24  H   1.0    0.12    1.15    1.45     1.96908    -1.44431    -2.57448
    25  H   1.0    0.09    0.99    1.43     1.01823     0.89457    -4.50252
    26  H   1.0    0.08    0.99    1.43     3.91162    -0.37083    -4.84737

  Z AO/shell   Hii/eV     exponent
  1     Wed Apr 25 08:07:45 CEST 2018   EN: 2.200 GM2: 0.406  GM3: 0.0800  RAES: 1.40
     1s    -10.707211    1.230000
  7     Wed Apr 25 08:07:45 CEST 2018   EN: 3.040 GM2: 0.461  GM3:-0.0640  RAES: 1.90
     2s    -16.686243    2.339881
     2p    -12.523956    2.014332
  8     Wed Apr 25 08:07:45 CEST 2018   EN: 3.440 GM2: 0.452  GM3:-0.0517  RAES: 1.80
     2s    -20.229985    2.439742
     2p    -15.503117    2.137023
 16     Tue Apr 24 11:44:34 CEST 2018   EN: 2.580 GM2: 0.340  GM3:-0.0502  RAES: 3.10
     3s    -20.029654    1.981333
     3p    -11.377694    2.025643
     3d     -0.420282    1.702555
 no old-style atom pair restraining (fixing) potential

molecular fragmentation (1/2 indicates fragments):
11111112222222222222222222
# atoms in fragment 1/2:     7    19
 fragment masses (1/2) :       98.07      107.11
CMA distance (Bohr)    :   5.907
constraining FC (au)   :  0.0500
           ------------------------------------------------- 
          |        Self-Consistent Charge Iterations        |
           ------------------------------------------------- 

 Ncao       : 65
 Nao        : 64
 Nshell     : 38
 Nel        : 80
 T(el)      :   300.0
 intcut     :    25.0
 scfconv/Eh :  0.100E-05
   qconv/e  :  0.100E-03
 intneglect :  0.100E-07
 broydamp   :      0.250
 iter      E             dE          RMSdq      gap      omega  full diag
   1    -50.5503069 -0.505503E+02  0.711E+00    8.09       0.0  T
   2    -50.6009192 -0.506123E-01  0.501E+00    7.35       1.0  T
   3    -50.6420677 -0.411485E-01  0.119E+00    5.38       1.0  T
   4    -50.6456285 -0.356077E-02  0.671E-01    5.59       1.0  T
   5    -50.6471042 -0.147574E-02  0.262E-01    5.67       1.0  T
   6    -50.6474158 -0.311539E-03  0.160E-01    5.70       1.0  T
   7    -50.6475786 -0.162814E-03  0.451E-02    5.70       1.0  T
   8    -50.6475884 -0.984483E-05  0.260E-02    5.69       1.0  T
   9    -50.6475922 -0.373835E-05  0.101E-02    5.70       1.9  T
  10    -50.6475926 -0.477058E-06  0.281E-03    5.71       7.0  T
  11    -50.6475927 -0.239017E-07  0.128E-03    5.70      15.3  T
  12    -50.6475927 -0.725700E-08  0.401E-04    5.70      48.9  T
  13    -50.6475927 -0.533028E-09  0.184E-04    5.70     106.9  T
speedup  1.01
cpu  time for SCC    0.02 s
wall time for SCC    0.02 s

   *** convergence criteria satisfied after 13 iterations ***

          eigenvalues
 #    :          28         29         30         31         32         33         34         35
 occ. :        2.000      2.000      2.000      2.000      2.000      2.000      2.000      2.000
 eps  :       -12.982    -12.713    -12.631    -12.394    -12.320    -12.137    -11.961    -11.659
 #    :          36         37         38         39         40         41         42         43
 occ. :        2.000      2.000      2.000      2.000      2.000      0.000      0.000      0.000
 eps  :       -11.606    -10.719    -10.514    -10.362    -10.164     -4.460     -1.594     -1.184
 #    :          44         45         46         47         48         49         50         51
 occ. :        0.000      0.000      0.000      0.000      0.000      0.000      0.000      0.000
 eps  :        -0.455      0.431      0.995      2.080      2.703      3.292      3.688      4.716


   #   Z            q   n(s)   n(p)   n(d)      C6AA      α(0)
   1  16 S      1.637  1.634  1.803  0.926    90.220    15.987
   2   8 O     -0.680  1.764  4.915  0.000    28.160     7.115
   3   8 O     -0.628  1.772  4.856  0.000    26.811     6.942
   4   8 O     -0.611  1.760  4.851  0.000    25.411     6.805
   5   8 O     -0.603  1.761  4.842  0.000    25.227     6.780
   6   1 H      0.380  0.620  0.000  0.000     0.520     1.131
   7   1 H      0.384  0.616  0.000  0.000     0.512     1.123
   8   8 O     -0.852  1.833  5.019  0.000    33.172     7.723
   9   1 H      0.213  0.787  0.000  0.000     1.056     1.614
  10   8 O     -0.859  1.827  5.032  0.000    33.408     7.750
  11   1 H      0.198  0.802  0.000  0.000     1.127     1.668
  12   8 O     -0.614  1.736  4.878  0.000    25.516     6.818
  13   1 H      0.280  0.720  0.000  0.000     0.783     1.390
  14   1 H      0.323  0.677  0.000  0.000     0.655     1.272
  15   8 O     -0.663  1.753  4.909  0.000    26.739     6.979
  16   1 H      0.340  0.660  0.000  0.000     0.610     1.226
  17   1 H      0.277  0.723  0.000  0.000     0.794     1.399
  18   8 O     -0.467  1.666  4.801  0.000    22.132     6.354
  19   1 H      0.387  0.613  0.000  0.000     0.510     1.122
  20   1 H      0.401  0.599  0.000  0.000     0.477     1.081
  21   1 H      0.401  0.599  0.000  0.000     0.478     1.083
  22   7 N     -0.321  1.271  4.051  0.000    28.250     7.894
  23   1 H      0.306  0.694  0.000  0.000     0.696     1.306
  24   1 H      0.308  0.692  0.000  0.000     0.689     1.300
  25   1 H      0.247  0.753  0.000  0.000     0.896     1.483
  26   1 H      0.215  0.785  0.000  0.000     1.031     1.590

 Mol. C6AA /au·bohr⁶  :       5490.622744
 Mol. C8AA /au·bohr⁸  :     118847.097502
 Mol. α(0) /au        :        106.934881

 
 Wiberg/Mayer (AO) data. WBOs > 0.1 written file <wbo>
 largest (>0.05) Wiberg bond orders for each atom
           total WBO             WBO to atom ...
     1  S   4.770    O    3 1.480    O    2 1.370    O    5 0.985    O    4 0.902
     2  O   1.755    S    1 1.370    O    3 0.138    O    5 0.097    O    4 0.092
     3  O   1.813    S    1 1.480    O    2 0.138    O    4 0.094    O    5 0.088
     4  O   1.962    S    1 0.902    H    7 0.771    O    3 0.094    O    2 0.092    O    5 0.058
     5  O   1.981    S    1 0.985    H    6 0.692    O    2 0.097    O    3 0.088    O    4 0.058
     6  H   0.856    O    5 0.692    O    8 0.147
     7  H   0.852    O    4 0.771    O   15 0.062
     8  O   1.615    H    9 0.945    H   20 0.176    H   24 0.158    H    6 0.147    N   22 0.070    O   18 0.056
     9  H   0.955    O    8 0.945
    10  O   1.583    H   11 0.945    H   21 0.182    H   23 0.150    H   16 0.121    N   22 0.067    O   18 0.058
    11  H   0.961    O   10 0.945
    12  O   1.816    H   13 0.915    H   14 0.848
    13  H   0.921    O   12 0.915
    14  H   0.896    O   12 0.848
    15  O   1.811    H   17 0.912    H   16 0.761    H    7 0.062
    16  H   0.885    O   15 0.761    O   10 0.121
    17  H   0.923    O   15 0.912
    18  O   2.270    H   19 0.820    H   20 0.655    H   21 0.653    O   10 0.058    O    8 0.056
    19  H   0.851    O   18 0.820
    20  H   0.839    O   18 0.655    O    8 0.176
    21  H   0.839    O   18 0.653    O   10 0.182
    22  N   3.522    H   26 0.948    H   25 0.926    H   23 0.752    H   24 0.742    O    8 0.070    O   10 0.067
    23  H   0.907    N   22 0.752    O   10 0.150
    24  H   0.905    N   22 0.742    O    8 0.158
    25  H   0.939    N   22 0.926
    26  H   0.954    N   22 0.948
 MOs/occ written to file <molden.input>
 
molecular dipole:
                 x           y           z       tot (Debye)
 q only:        2.243       0.421      -0.704
   full:        2.385       0.643      -0.779       6.584
molecular quadrupole (traceless):
                xx          xy          yy          xz          yz          zz
 q only:      -12.246      -6.499       0.247     -16.130      -2.055      11.999
  q+dip:      -13.492      -5.007       3.808     -20.556      -0.246       9.684
   full:      -13.438      -4.955       4.058     -20.750       0.161       9.380

SCC energy    :     -50.6475927
rep           :       0.2772637
ES            :       0.2999317
AES           :      -0.0555133
AXC           :      -0.0052675
disp          :      -0.0190396
XB            :       0.0000000
fix           :       0.0000000
total E       :     -50.3699573
atomizationE  :       4.9002615     3074.96
(atE without considering molecular charge,
 total energy contains solvation terms)
H-L gap (eV)  :          5.7038
           ------------------------------------------------- 
          |                 ===============                 |
          |                   A N C O P T                   |
          |                 ===============                 |
          |          Approximate Normal Coordinate          |
          |           Rational Function Optimizer           |
           ------------------------------------------------- 
dumping coords to <xtbopt.coord> and <xtbopt.log>
 optlevel               2
 Maxcycle             520
 Maxmicro              25
 Econv         1.000000000000000E-007
 Gconv         2.000000000000000E-004
 Maxdispl       1.00000000000000     
 Hlow          5.000000000000000E-003
 S6             20.0000000000000     
 Nvar               72

generating ANC from model Hessian ...
 Shifting diagonal of input Hessian by   7.676174793042216E-003
 Lowest  eigenvalues of input Hessian
    0.005000   -0.000000   -0.000000   -0.000000    0.000000    0.000000
    0.000000    0.007795    0.007979    0.008184    0.008370    0.008521
    0.008927    0.009516    0.009611    0.010421    0.011336    0.011649
 Highest eigenvalues
    1.450263    1.569608    1.602724    1.955811    2.774736    3.597669
 
cpu  time for ANC gen    0.02 s
wall time for ANC gen    0.03 s
................................................................................
.............................. CYCLE    1 ......................................
................................................................................
   1    -50.6475927 -0.506476E+02  0.498E-05    5.70       0.0  T
   2    -50.6475927 -0.483169E-11  0.387E-05    5.70     506.2  T
   3    -50.6475927 -0.406430E-11  0.154E-05    5.70    1269.5  T
speedup  1.03
cpu  time for SCC    0.00 s
wall time for SCC    0.00 s
speedup  0.96
cpu  time for grad    0.01 s
wall time for grad    0.01 s
 E :    -50.36995730  G :  0.186599    pred/act E change:  0.000D+00  0.307D-07
Maxdispl :   0.1035   ||displ|| :   0.3211   Lambda : -0.343D-01
Largest |displ|/coords:  0.1035 (  13)  0.0904 (  23)  0.0873 (  28)
................................................................................
.............................. CYCLE    2 ......................................
................................................................................
   1    -50.6602897 -0.506603E+02  0.373E-01    6.45       0.0  T
   2    -50.6606059 -0.316209E-03  0.277E-01    6.51       1.0  T
   3    -50.6607266 -0.120671E-03  0.927E-02    6.63       1.0  T
   4    -50.6607504 -0.238089E-04  0.294E-02    6.64       1.0  T
   5    -50.6607523 -0.195914E-05  0.796E-03    6.63       2.5  T
   6    -50.6607525 -0.139543E-06  0.366E-03    6.63       5.4  T
   7    -50.6607525 -0.211979E-07  0.172E-03    6.63      11.4  T
speedup  0.97
cpu  time for SCC    0.01 s
wall time for SCC    0.01 s
speedup  0.99
cpu  time for grad    0.01 s
wall time for grad    0.01 s
 E :    -50.39554689  G :  0.096533    pred/act E change:  0.000D+00 -0.256D-01
Maxdispl :   0.1409   ||displ|| :   0.3350   Lambda : -0.129D-01
Largest |displ|/coords:  0.1409 (  13)  0.0867 (  11)  0.0849 (  15)
................................................................................
.............................. CYCLE    3 ......................................
................................................................................
   1    -50.6644072 -0.506644E+02  0.345E-01    7.23       0.0  T
   2    -50.6646761 -0.268933E-03  0.254E-01    7.32       1.0  T
   3    -50.6647757 -0.995325E-04  0.802E-02    7.48       1.0  T
   4    -50.6647969 -0.212335E-04  0.234E-02    7.47       1.0  T
   5    -50.6647983 -0.141282E-05  0.525E-03    7.46       3.7  T
   6    -50.6647984 -0.533698E-07  0.309E-03    7.46       6.3  T
speedup  0.88
cpu  time for SCC    0.00 s
wall time for SCC    0.01 s
speedup  1.01
cpu  time for grad    0.01 s
wall time for grad    0.01 s
 E :    -50.40560862  G :  0.061595    pred/act E change: -0.189D-01 -0.101D-01
Maxdispl :   0.1399   ||displ|| :   0.2976   Lambda : -0.649D-02
Largest |displ|/coords:  0.1399 (   5)  0.1050 (  26)  0.0866 (  15)
................................................................................
.............................. CYCLE    4 ......................................
................................................................................
   1    -50.6704257 -0.506704E+02  0.240E-01    7.89       0.0  T
   2    -50.6706051 -0.179414E-03  0.171E-01    7.96       1.0  T
   3    -50.6706749 -0.697792E-04  0.578E-02    8.08       1.0  T
   4    -50.6706843 -0.942795E-05  0.150E-02    8.08       1.3  T
   5    -50.6706848 -0.481278E-06  0.362E-03    8.07       5.4  T
   6    -50.6706848 -0.178986E-07  0.218E-03    8.07       9.0  T
speedup  1.07
cpu  time for SCC    0.01 s
wall time for SCC    0.01 s
speedup  0.94
cpu  time for grad    0.01 s
wall time for grad    0.01 s
 E :    -50.41077052  G :  0.037759    pred/act E change: -0.716D-02 -0.516D-02
Maxdispl :   0.2384   ||displ|| :   0.5968   Lambda : -0.848D-02
Largest |displ|/coords:  0.2384 (   8)  0.1886 (  26)  0.1841 (   3)
................................................................................
.............................. CYCLE    5 ......................................
................................................................................
   1    -50.6599556 -0.506600E+02  0.654E-01    8.68       0.0  T
   2    -50.6608219 -0.866282E-03  0.476E-01    8.82       1.0  T
   3    -50.6611444 -0.322483E-03  0.143E-01    9.05       1.0  T
   4    -50.6612184 -0.740330E-04  0.361E-02    9.03       1.0  T
   5    -50.6612220 -0.358301E-05  0.966E-03    9.03       2.0  T
   6    -50.6612221 -0.127513E-06  0.587E-03    9.03       3.3  T
   7    -50.6612222 -0.642471E-07  0.188E-03    9.02      10.4  T
speedup  0.95
cpu  time for SCC    0.01 s
wall time for SCC    0.01 s
speedup  0.98
cpu  time for grad    0.01 s
wall time for grad    0.01 s
 E :    -50.41364081  G :  0.062402    pred/act E change: -0.353D-02 -0.287D-02
Maxdispl :   0.2250   ||displ|| :   0.4746   Lambda : -0.112D-01
Largest |displ|/coords:  0.2250 (   5)  0.2118 (   8)  0.1833 (   7)
................................................................................
.............................. CYCLE    6 ......................................
................................................................................
   1    -50.6788518 -0.506789E+02  0.766E-01    8.92       0.0  T
   2    -50.6791446 -0.292778E-03  0.576E-01    8.91       1.0  T
   3    -50.6793172 -0.172551E-03  0.101E-01    8.85       1.0  T
   4    -50.6793603 -0.431656E-04  0.250E-02    8.87       1.0  T
   5    -50.6793620 -0.169224E-05  0.100E-02    8.87       2.0  T
   6    -50.6793621 -0.616978E-07  0.503E-03    8.87       3.9  T
   7    -50.6793621 -0.551613E-07  0.101E-03    8.87      19.4  T
speedup  1.09
cpu  time for SCC    0.01 s
wall time for SCC    0.01 s
speedup  1.04
cpu  time for grad    0.01 s
wall time for grad    0.01 s
 E :    -50.41389683  G :  0.051318    pred/act E change: -0.575D-02 -0.256D-03
Maxdispl :   0.1220   ||displ|| :   0.3041   Lambda : -0.378D-02
Largest |displ|/coords:  0.1220 (  17)  0.0987 (   1)  0.0968 (  13)
................................................................................
.............................. CYCLE    7 ......................................
................................................................................
   1    -50.6737502 -0.506738E+02  0.320E-01    8.89       0.0  T
   2    -50.6738176 -0.673998E-04  0.239E-01    8.90       1.0  T
   3    -50.6738509 -0.333829E-04  0.487E-02    8.91       1.0  T
   4    -50.6738606 -0.969790E-05  0.108E-02    8.90       1.8  T
   5    -50.6738611 -0.445843E-06  0.345E-03    8.90       5.7  T
   6    -50.6738611 -0.110138E-07  0.200E-03    8.90       9.8  T
speedup  1.11
cpu  time for SCC    0.01 s
wall time for SCC    0.01 s
speedup  1.04
cpu  time for grad    0.01 s
wall time for grad    0.01 s
 E :    -50.41648671  G :  0.025355    pred/act E change: -0.687D-02 -0.259D-02
Maxdispl :   0.2052   ||displ|| :   0.4717   Lambda : -0.340D-02
Largest |displ|/coords:  0.2052 (   1)  0.1701 (   3)  0.1591 (   8)
................................................................................
.............................. CYCLE    8 ......................................
................................................................................
   1    -50.6594493 -0.506594E+02  0.502E-01    8.89       0.0  T
   2    -50.6596505 -0.201208E-03  0.373E-01    8.89       1.0  T
   3    -50.6597437 -0.932463E-04  0.777E-02    8.87       1.0  T
   4    -50.6597726 -0.289380E-04  0.177E-02    8.88       1.1  T
   5    -50.6597734 -0.738647E-06  0.684E-03    8.88       2.9  T
   6    -50.6597734 -0.558373E-07  0.384E-03    8.88       5.1  T
   7    -50.6597735 -0.249057E-07  0.101E-03    8.88      19.5  T
speedup  1.13
cpu  time for SCC    0.01 s
wall time for SCC    0.01 s
speedup  0.99
cpu  time for grad    0.01 s
wall time for grad    0.01 s
 E :    -50.41610331  G :  0.065288    pred/act E change: -0.207D-02  0.383D-03
Maxdispl :   0.2238   ||displ|| :   0.4194   Lambda : -0.902D-02
Largest |displ|/coords:  0.2238 (   1)  0.1411 (  13)  0.1223 (   9)
................................................................................
.............................. CYCLE    9 ......................................
................................................................................
   1    -50.6805414 -0.506805E+02  0.556E-01    8.84       0.0  T
   2    -50.6807543 -0.212861E-03  0.416E-01    8.83       1.0  T
   3    -50.6808702 -0.115917E-03  0.829E-02    8.81       1.0  T
   4    -50.6809001 -0.298868E-04  0.201E-02    8.81       1.0  T
   5    -50.6809010 -0.948529E-06  0.768E-03    8.81       2.6  T
   6    -50.6809011 -0.435681E-07  0.392E-03    8.81       5.0  T
   7    -50.6809011 -0.296386E-07  0.890E-04    8.81      22.0  T
speedup  0.95
cpu  time for SCC    0.01 s
wall time for SCC    0.01 s
speedup  0.98
cpu  time for grad    0.01 s
wall time for grad    0.01 s
 E :    -50.41720878  G :  0.033512    pred/act E change: -0.208D-02 -0.111D-02
Maxdispl :   0.0928   ||displ|| :   0.2296   Lambda : -0.239D-02
Largest |displ|/coords:  0.0928 (   5)  0.0821 (  14)  0.0791 (   3)
................................................................................
.............................. CYCLE   10 ......................................
................................................................................
   1    -50.6762083 -0.506762E+02  0.224E-01    8.79       0.0  T
   2    -50.6762411 -0.328874E-04  0.168E-01    8.79       1.0  T
   3    -50.6762569 -0.157690E-04  0.316E-02    8.77       1.0  T
   4    -50.6762622 -0.525001E-05  0.675E-03    8.78       2.9  T
   5    -50.6762623 -0.106036E-06  0.288E-03    8.78       6.8  T
   6    -50.6762623 -0.648397E-08  0.147E-03    8.78      13.4  T
speedup  0.94
cpu  time for SCC    0.00 s
wall time for SCC    0.01 s
speedup  0.98
cpu  time for grad    0.01 s
wall time for grad    0.01 s
 E :    -50.41910291  G :  0.023926    pred/act E change: -0.530D-02 -0.189D-02
Maxdispl :   0.2157   ||displ|| :   0.5050   Lambda : -0.408D-02
Largest |displ|/coords:  0.2157 (   3)  0.1972 (   8)  0.1511 (  20)
................................................................................
.............................. CYCLE   11 ......................................
................................................................................
   1    -50.6667512 -0.506668E+02  0.554E-01    8.71       0.0  T
   2    -50.6670652 -0.313982E-03  0.408E-01    8.69       1.0  T
   3    -50.6672081 -0.142909E-03  0.988E-02    8.65       1.0  T
   4    -50.6672466 -0.384821E-04  0.208E-02    8.66       1.0  T
   5    -50.6672479 -0.130060E-05  0.821E-03    8.66       2.4  T
   6    -50.6672480 -0.896147E-07  0.475E-03    8.66       4.1  T
   7    -50.6672480 -0.354985E-07  0.122E-03    8.66      16.0  T
speedup  0.95
cpu  time for SCC    0.01 s
wall time for SCC    0.01 s
speedup  0.99
cpu  time for grad    0.01 s
wall time for grad    0.01 s
 E :    -50.41843791  G :  0.075672    pred/act E change: -0.126D-02  0.665D-03
Maxdispl :   0.1554   ||displ|| :   0.4117   Lambda : -0.124D-01
Largest |displ|/coords:  0.1554 (   5)  0.1458 (   8)  0.1278 (   7)
................................................................................
.............................. CYCLE   12 ......................................
................................................................................
   1    -50.6747172 -0.506747E+02  0.670E-01    8.70       0.0  T
   2    -50.6750342 -0.317039E-03  0.501E-01    8.71       1.0  T
   3    -50.6752103 -0.176036E-03  0.105E-01    8.72       1.0  T
   4    -50.6752506 -0.403183E-04  0.268E-02    8.71       1.0  T
   5    -50.6752528 -0.221764E-05  0.940E-03    8.71       2.1  T
   6    -50.6752529 -0.523052E-07  0.497E-03    8.71       3.9  T
   7    -50.6752529 -0.524048E-07  0.111E-03    8.71      17.6  T
speedup  1.13
cpu  time for SCC    0.01 s
wall time for SCC    0.01 s
speedup  1.05
cpu  time for grad    0.01 s
wall time for grad    0.01 s
 E :    -50.41917860  G :  0.056346    pred/act E change: -0.256D-02 -0.741D-03
Maxdispl :   0.1900   ||displ|| :   0.3973   Lambda : -0.881D-02
Largest |displ|/coords:  0.1900 (   4)  0.1823 (   6)  0.1418 (   2)
................................................................................
.............................. CYCLE   13 ......................................
................................................................................
   1    -50.6820595 -0.506821E+02  0.524E-01    8.63       0.0  T
   2    -50.6822206 -0.161094E-03  0.396E-01    8.62       1.0  T
   3    -50.6823297 -0.109106E-03  0.710E-02    8.58       1.0  T
   4    -50.6823512 -0.215501E-04  0.192E-02    8.60       1.0  T
   5    -50.6823521 -0.890418E-06  0.749E-03    8.60       2.6  T
   6    -50.6823522 -0.414465E-07  0.380E-03    8.60       5.2  T
   7    -50.6823522 -0.271013E-07  0.905E-04    8.60      21.7  T
speedup  0.95
cpu  time for SCC    0.01 s
wall time for SCC    0.01 s
speedup  0.98
cpu  time for grad    0.01 s
wall time for grad    0.01 s
 E :    -50.42114051  G :  0.053885    pred/act E change: -0.726D-02 -0.196D-02
Maxdispl :   0.1620   ||displ|| :   0.3460   Lambda : -0.530D-02
Largest |displ|/coords:  0.1620 (  12)  0.1372 (  14)  0.0969 (  15)
................................................................................
.............................. CYCLE   14 ......................................
................................................................................
   1    -50.6784074 -0.506784E+02  0.471E-01    8.64       0.0  T
   2    -50.6785044 -0.970828E-04  0.358E-01    8.63       1.0  T
   3    -50.6785846 -0.801162E-04  0.507E-02    8.63       1.0  T
   4    -50.6785979 -0.133313E-04  0.142E-02    8.63       1.4  T
   5    -50.6785982 -0.277651E-06  0.581E-03    8.63       3.4  T
   6    -50.6785982 -0.434657E-07  0.291E-03    8.63       6.7  T
speedup  0.94
cpu  time for SCC    0.00 s
wall time for SCC    0.01 s
speedup  0.90
cpu  time for grad    0.01 s
wall time for grad    0.01 s
 E :    -50.42324163  G :  0.048942    pred/act E change: -0.510D-02 -0.210D-02
Maxdispl :   0.1144   ||displ|| :   0.2214   Lambda : -0.269D-02
Largest |displ|/coords:  0.1144 (   1)  0.0700 (  11)  0.0651 (  14)
................................................................................
.............................. CYCLE   15 ......................................
................................................................................
   1    -50.6819729 -0.506820E+02  0.176E-01    8.63       0.0  T
   2    -50.6820135 -0.405855E-04  0.132E-01    8.64       1.0  T
   3    -50.6820363 -0.228429E-04  0.336E-02    8.64       1.0  T
   4    -50.6820418 -0.545086E-05  0.839E-03    8.64       2.3  T
   5    -50.6820420 -0.158964E-06  0.394E-03    8.64       5.0  T
   6    -50.6820420 -0.147332E-07  0.189E-03    8.64      10.4  T
speedup  0.93
cpu  time for SCC    0.00 s
wall time for SCC    0.01 s
speedup  0.97
cpu  time for grad    0.01 s
wall time for grad    0.01 s
 E :    -50.42519859  G :  0.039228    pred/act E change: -0.296D-02 -0.196D-02
Maxdispl :   0.1307   ||displ|| :   0.4048   Lambda : -0.505D-02
Largest |displ|/coords:  0.1307 (   3)  0.1285 (  20)  0.1187 (   5)
................................................................................
.............................. CYCLE   16 ......................................
................................................................................
   1    -50.6979997 -0.506980E+02  0.273E-01    8.65       0.0  T
   2    -50.6981283 -0.128569E-03  0.207E-01    8.65       1.0  T
   3    -50.6982147 -0.863892E-04  0.619E-02    8.66       1.0  T
   4    -50.6982297 -0.150296E-04  0.195E-02    8.66       1.0  T
   5    -50.6982305 -0.856692E-06  0.739E-03    8.66       2.7  T
   6    -50.6982306 -0.421015E-07  0.347E-03    8.66       5.6  T
   7    -50.6982306 -0.220787E-07  0.877E-04    8.66      22.4  T
speedup  0.97
cpu  time for SCC    0.01 s
wall time for SCC    0.01 s
speedup  0.99
cpu  time for grad    0.01 s
wall time for grad    0.01 s
 E :    -50.42864893  G :  0.036445    pred/act E change: -0.141D-02 -0.345D-02
Maxdispl :   0.1330   ||displ|| :   0.4084   Lambda : -0.452D-02
Largest |displ|/coords:  0.1330 (   5)  0.1289 (  24)  0.1229 (   3)
................................................................................
.............................. CYCLE   17 ......................................
................................................................................
   1    -50.7135093 -0.507135E+02  0.221E-01    8.71       0.0  T
   2    -50.7136283 -0.118991E-03  0.165E-01    8.72       1.0  T
   3    -50.7136996 -0.713417E-04  0.577E-02    8.73       1.0  T
   4    -50.7137099 -0.102296E-04  0.207E-02    8.73       1.0  T
   5    -50.7137110 -0.114287E-05  0.648E-03    8.73       3.0  T
   6    -50.7137111 -0.466183E-07  0.349E-03    8.73       5.6  T
   7    -50.7137111 -0.117649E-07  0.886E-04    8.73      22.1  T
speedup  1.09
cpu  time for SCC    0.01 s
wall time for SCC    0.01 s
speedup  1.05
cpu  time for grad    0.01 s
wall time for grad    0.01 s
 E :    -50.43156353  G :  0.032648    pred/act E change: -0.294D-02 -0.291D-02
Maxdispl :   0.1028   ||displ|| :   0.3268   Lambda : -0.382D-02
Largest |displ|/coords:  0.1028 (  24)  0.1020 (  29)  0.1009 (   3)
................................................................................
.............................. CYCLE   18 ......................................
................................................................................
   1    -50.7154737 -0.507155E+02  0.250E-01    8.72       0.0  T
   2    -50.7155266 -0.529304E-04  0.187E-01    8.72       1.0  T
   3    -50.7155565 -0.298621E-04  0.389E-02    8.73       1.0  T
   4    -50.7155635 -0.698524E-05  0.124E-02    8.73       1.6  T
   5    -50.7155639 -0.356353E-06  0.385E-03    8.73       5.1  T
   6    -50.7155639 -0.185078E-07  0.237E-03    8.73       8.3  T
speedup  1.13
cpu  time for SCC    0.01 s
wall time for SCC    0.01 s
speedup  1.05
cpu  time for grad    0.01 s
wall time for grad    0.01 s
 E :    -50.43385261  G :  0.028523    pred/act E change: -0.264D-02 -0.229D-02
Maxdispl :   0.1554   ||displ|| :   0.3865   Lambda : -0.270D-02
Largest |displ|/coords:  0.1554 (   3)  0.1367 (   5)  0.1250 (  24)
................................................................................
.............................. CYCLE   19 ......................................
................................................................................
   1    -50.7101020 -0.507101E+02  0.301E-01    8.70       0.0  T
   2    -50.7102374 -0.135413E-03  0.224E-01    8.70       1.0  T
   3    -50.7103048 -0.674348E-04  0.616E-02    8.69       1.0  T
   4    -50.7103195 -0.146380E-04  0.156E-02    8.68       1.3  T
   5    -50.7103202 -0.718981E-06  0.592E-03    8.69       3.3  T
   6    -50.7103202 -0.358275E-07  0.358E-03    8.69       5.5  T
speedup  1.11
cpu  time for SCC    0.01 s
wall time for SCC    0.01 s
speedup  0.98
cpu  time for grad    0.01 s
wall time for grad    0.01 s
 E :    -50.43473578  G :  0.035549    pred/act E change: -0.211D-02 -0.883D-03
Maxdispl :   0.0887   ||displ|| :   0.2317   Lambda : -0.223D-02
Largest |displ|/coords:  0.0887 (  10)  0.0876 (  29)  0.0688 (   9)
................................................................................
.............................. CYCLE   20 ......................................
................................................................................
   1    -50.7144491 -0.507144E+02  0.186E-01    8.63       0.0  T
   2    -50.7144851 -0.359730E-04  0.137E-01    8.63       1.0  T
   3    -50.7145046 -0.195366E-04  0.343E-02    8.64       1.0  T
   4    -50.7145083 -0.371908E-05  0.110E-02    8.64       1.8  T
   5    -50.7145086 -0.265359E-06  0.337E-03    8.64       5.8  T
   6    -50.7145086 -0.103964E-07  0.192E-03    8.64      10.2  T
speedup  0.93
cpu  time for SCC    0.00 s
wall time for SCC    0.01 s
speedup  0.98
cpu  time for grad    0.01 s
wall time for grad    0.01 s
 E :    -50.43590707  G :  0.017318    pred/act E change: -0.155D-02 -0.117D-02
Maxdispl :   0.0941   ||displ|| :   0.2781   Lambda : -0.155D-02
Largest |displ|/coords:  0.0941 (   3)  0.0819 (  10)  0.0758 (  29)
................................................................................
.............................. CYCLE   21 ......................................
................................................................................
   1    -50.7158779 -0.507159E+02  0.205E-01    8.56       0.0  T
   2    -50.7159199 -0.419630E-04  0.153E-01    8.57       1.0  T
   3    -50.7159394 -0.195145E-04  0.381E-02    8.57       1.0  T
   4    -50.7159450 -0.556276E-05  0.141E-02    8.56       1.4  T
   5    -50.7159454 -0.423655E-06  0.368E-03    8.56       5.3  T
   6    -50.7159454 -0.154729E-07  0.218E-03    8.56       9.0  T
   7    -50.7159454 -0.812356E-08  0.550E-04    8.56      35.7  T
speedup  1.11
cpu  time for SCC    0.01 s
wall time for SCC    0.01 s
speedup  1.06
cpu  time for grad    0.01 s
wall time for grad    0.01 s
 E :    -50.43659595  G :  0.028522    pred/act E change: -0.117D-02 -0.689D-03
Maxdispl :   0.0879   ||displ|| :   0.2114   Lambda : -0.131D-02
Largest |displ|/coords:  0.0879 (   2)  0.0716 (  14)  0.0598 (   3)
................................................................................
.............................. CYCLE   22 ......................................
................................................................................
   1    -50.7144486 -0.507144E+02  0.153E-01    8.54       0.0  T
   2    -50.7144636 -0.149317E-04  0.115E-01    8.54       1.0  T
   3    -50.7144710 -0.743102E-05  0.226E-02    8.53       1.0  T
   4    -50.7144732 -0.223235E-05  0.862E-03    8.53       2.3  T
   5    -50.7144734 -0.114334E-06  0.225E-03    8.53       8.7  T
   6    -50.7144734 -0.634534E-08  0.135E-03    8.53      14.6  T
speedup  0.94
cpu  time for SCC    0.00 s
wall time for SCC    0.01 s
speedup  0.98
cpu  time for grad    0.01 s
wall time for grad    0.01 s
 E :    -50.43744533  G :  0.023416    pred/act E change: -0.835D-03 -0.849D-03
Maxdispl :   0.1196   ||displ|| :   0.3400   Lambda : -0.196D-02
Largest |displ|/coords:  0.1196 (   4)  0.1115 (   5)  0.1065 (  10)
................................................................................
.............................. CYCLE   23 ......................................
................................................................................
   1    -50.7151948 -0.507152E+02  0.274E-01    8.54       0.0  T
   2    -50.7152410 -0.461180E-04  0.207E-01    8.53       1.0  T
   3    -50.7152649 -0.239397E-04  0.388E-02    8.51       1.0  T
   4    -50.7152722 -0.727979E-05  0.146E-02    8.51       1.3  T
   5    -50.7152725 -0.307043E-06  0.422E-03    8.51       4.6  T
   6    -50.7152725 -0.244692E-07  0.251E-03    8.51       7.8  T
speedup  0.94
cpu  time for SCC    0.00 s
wall time for SCC    0.01 s
speedup  0.98
cpu  time for grad    0.01 s
wall time for grad    0.01 s
 E :    -50.43846512  G :  0.027433    pred/act E change: -0.684D-03 -0.102D-02
Maxdispl :   0.1667   ||displ|| :   0.3155   Lambda : -0.152D-02
Largest |displ|/coords:  0.1667 (   2)  0.1297 (   3)  0.0940 (  10)
................................................................................
.............................. CYCLE   24 ......................................
................................................................................
   1    -50.7191116 -0.507191E+02  0.198E-01    8.49       0.0  T
   2    -50.7191368 -0.251844E-04  0.150E-01    8.48       1.0  T
   3    -50.7191538 -0.170626E-04  0.296E-02    8.46       1.0  T
   4    -50.7191574 -0.354716E-05  0.120E-02    8.46       1.6  T
   5    -50.7191576 -0.199940E-06  0.368E-03    8.46       5.3  T
   6    -50.7191576 -0.165001E-07  0.209E-03    8.46       9.4  T
speedup  1.13
cpu  time for SCC    0.01 s
wall time for SCC    0.01 s
speedup  1.07
cpu  time for grad    0.01 s
wall time for grad    0.01 s
 E :    -50.43945528  G :  0.027877    pred/act E change: -0.109D-02 -0.990D-03
Maxdispl :   0.1585   ||displ|| :   0.3400   Lambda : -0.191D-02
Largest |displ|/coords:  0.1585 (   2)  0.1509 (   3)  0.0867 (   5)
................................................................................
.............................. CYCLE   25 ......................................
................................................................................
   1    -50.7238626 -0.507239E+02  0.197E-01    8.46       0.0  T
   2    -50.7238771 -0.145297E-04  0.148E-01    8.45       1.0  T
   3    -50.7238887 -0.115768E-04  0.206E-02    8.44       1.0  T
   4    -50.7238906 -0.195040E-05  0.106E-02    8.44       1.9  T
   5    -50.7238907 -0.115307E-06  0.261E-03    8.44       7.5  T
   6    -50.7238908 -0.975707E-08  0.159E-03    8.44      12.4  T
speedup  1.11
cpu  time for SCC    0.01 s
wall time for SCC    0.01 s
speedup  0.97
cpu  time for grad    0.01 s
wall time for grad    0.01 s
 E :    -50.44072447  G :  0.026786    pred/act E change: -0.837D-03 -0.127D-02
Maxdispl :   0.1702   ||displ|| :   0.4098   Lambda : -0.192D-02
Largest |displ|/coords:  0.1702 (   3)  0.1634 (   5)  0.1260 (   2)

generating ANC from model Hessian ...
 Shifting diagonal of input Hessian by   4.895400660650656E-003
 Lowest  eigenvalues of input Hessian
   -0.000000   -0.000000   -0.000000    0.000000    0.000000    0.000000
    0.005000    0.005201    0.005687    0.005932    0.006468    0.006523
    0.007080    0.007646    0.008437    0.009273    0.010275    0.011198
 Highest eigenvalues
    1.406684    1.411794    1.438034    2.187567    3.503949    3.759418
 
cpu  time for ANC gen    0.02 s
wall time for ANC gen    0.02 s
................................................................................
.............................. CYCLE   26 ......................................
................................................................................
   1    -50.7251385 -0.507251E+02  0.243E-01    8.40       0.0  T
   2    -50.7251704 -0.319529E-04  0.183E-01    8.40       1.0  T
   3    -50.7251930 -0.225831E-04  0.361E-02    8.38       1.0  T
   4    -50.7251973 -0.429925E-05  0.147E-02    8.38       1.3  T
   5    -50.7251975 -0.227082E-06  0.338E-03    8.38       5.8  T
   6    -50.7251975 -0.153342E-07  0.214E-03    8.38       9.2  T
   7    -50.7251975 -0.727110E-08  0.532E-04    8.38      36.9  T
   8    -50.7251975 -0.789449E-09  0.204E-04    8.38      96.1  T
speedup  0.99
cpu  time for SCC    0.01 s
wall time for SCC    0.01 s
speedup  1.03
cpu  time for grad    0.02 s
wall time for grad    0.02 s
 E :    -50.44165713  G :  0.022441    pred/act E change:  0.000D+00 -0.933D-03
Maxdispl :   0.1257   ||displ|| :   0.3465   Lambda : -0.230D-02
Largest |displ|/coords:  0.1257 (   5)  0.1107 (   3)  0.0962 (  20)
................................................................................
.............................. CYCLE   27 ......................................
................................................................................
   1    -50.7259404 -0.507259E+02  0.294E-01    8.42       0.0  T
   2    -50.7259564 -0.160148E-04  0.223E-01    8.42       1.0  T
   3    -50.7259728 -0.164055E-04  0.237E-02    8.42       1.0  T
   4    -50.7259743 -0.151361E-05  0.800E-03    8.41       2.5  T
   5    -50.7259744 -0.737948E-07  0.292E-03    8.42       6.7  T
   6    -50.7259744 -0.723910E-08  0.144E-03    8.42      13.6  T
speedup  1.11
cpu  time for SCC    0.01 s
wall time for SCC    0.01 s
speedup  1.05
cpu  time for grad    0.01 s
wall time for grad    0.01 s
 E :    -50.44320846  G :  0.018643    pred/act E change:  0.000D+00 -0.155D-02
Maxdispl :   0.1935   ||displ|| :   0.3998   Lambda : -0.160D-02
Largest |displ|/coords:  0.1935 (   3)  0.1404 (   9)  0.1201 (  16)
................................................................................
.............................. CYCLE   28 ......................................
................................................................................
   1    -50.7262092 -0.507262E+02  0.255E-01    8.45       0.0  T
   2    -50.7262201 -0.108734E-04  0.192E-01    8.45       1.0  T
   3    -50.7262278 -0.775051E-05  0.198E-02    8.45       1.0  T
   4    -50.7262296 -0.177589E-05  0.812E-03    8.45       2.4  T
   5    -50.7262297 -0.753443E-07  0.254E-03    8.45       7.7  T
   6    -50.7262297 -0.595866E-08  0.139E-03    8.45      14.1  T
speedup  1.11
cpu  time for SCC    0.01 s
wall time for SCC    0.01 s
speedup  1.05
cpu  time for grad    0.01 s
wall time for grad    0.01 s
 E :    -50.44407743  G :  0.027889    pred/act E change: -0.129D-02 -0.869D-03
Maxdispl :   0.1411   ||displ|| :   0.3002   Lambda : -0.155D-02
Largest |displ|/coords:  0.1411 (  15)  0.0972 (  16)  0.0831 (   5)
................................................................................
.............................. CYCLE   29 ......................................
................................................................................
   1    -50.7312505 -0.507313E+02  0.185E-01    8.48       0.0  T
   2    -50.7312798 -0.293128E-04  0.137E-01    8.48       1.0  T
   3    -50.7312960 -0.161966E-04  0.324E-02    8.48       1.0  T
   4    -50.7312992 -0.322431E-05  0.116E-02    8.48       1.7  T
   5    -50.7312995 -0.252435E-06  0.299E-03    8.48       6.6  T
   6    -50.7312995 -0.791501E-08  0.172E-03    8.48      11.4  T
speedup  1.11
cpu  time for SCC    0.01 s
wall time for SCC    0.01 s
speedup  1.05
cpu  time for grad    0.01 s
wall time for grad    0.01 s
 E :    -50.44444773  G :  0.019684    pred/act E change: -0.925D-03 -0.370D-03
Maxdispl :   0.1111   ||displ|| :   0.2269   Lambda : -0.120D-02
Largest |displ|/coords:  0.1111 (  16)  0.0919 (   3)  0.0906 (   5)
................................................................................
.............................. CYCLE   30 ......................................
................................................................................
   1    -50.7290956 -0.507291E+02  0.199E-01    8.47       0.0  T
   2    -50.7291094 -0.138298E-04  0.149E-01    8.47       1.0  T
   3    -50.7291219 -0.124585E-04  0.250E-02    8.47       1.0  T
   4    -50.7291234 -0.150426E-05  0.762E-03    8.47       2.6  T
   5    -50.7291235 -0.808646E-07  0.250E-03    8.47       7.9  T
   6    -50.7291235 -0.708391E-08  0.147E-03    8.47      13.3  T
speedup  0.93
cpu  time for SCC    0.00 s
wall time for SCC    0.01 s
speedup  0.97
cpu  time for grad    0.01 s
wall time for grad    0.01 s
 E :    -50.44522149  G :  0.014755    pred/act E change: -0.843D-03 -0.774D-03
Maxdispl :   0.1369   ||displ|| :   0.2655   Lambda : -0.748D-03
Largest |displ|/coords:  0.1369 (  16)  0.1204 (   2)  0.0871 (   9)
................................................................................
.............................. CYCLE   31 ......................................
................................................................................
   1    -50.7270379 -0.507270E+02  0.196E-01    8.47       0.0  T
   2    -50.7270472 -0.931600E-05  0.146E-01    8.47       1.0  T
   3    -50.7270567 -0.944805E-05  0.224E-02    8.47       1.0  T
   4    -50.7270575 -0.832093E-06  0.693E-03    8.46       2.8  T
   5    -50.7270576 -0.655936E-07  0.222E-03    8.46       8.8  T
   6    -50.7270576 -0.597574E-08  0.127E-03    8.46      15.4  T
speedup  1.11
cpu  time for SCC    0.01 s
wall time for SCC    0.01 s
speedup  1.04
cpu  time for grad    0.01 s
wall time for grad    0.01 s
 E :    -50.44561472  G :  0.019943    pred/act E change: -0.633D-03 -0.393D-03
Maxdispl :   0.1186   ||displ|| :   0.2515   Lambda : -0.651D-03
Largest |displ|/coords:  0.1186 (  16)  0.1038 (   3)  0.0785 (   5)
................................................................................
.............................. CYCLE   32 ......................................
................................................................................
   1    -50.7265064 -0.507265E+02  0.166E-01    8.46       0.0  T
   2    -50.7265113 -0.482832E-05  0.122E-01    8.46       1.0  T
   3    -50.7265161 -0.483953E-05  0.190E-02    8.46       1.0  T
   4    -50.7265165 -0.367898E-06  0.554E-03    8.46       3.5  T
   5    -50.7265165 -0.492891E-07  0.160E-03    8.46      12.3  T
   6    -50.7265165 -0.289022E-08  0.944E-04    8.46      20.8  T
speedup  1.11
cpu  time for SCC    0.01 s
wall time for SCC    0.01 s
speedup  1.04
cpu  time for grad    0.01 s
wall time for grad    0.01 s
 E :    -50.44608444  G :  0.017731    pred/act E change: -0.400D-03 -0.470D-03
Maxdispl :   0.1944   ||displ|| :   0.3691   Lambda : -0.103D-02
Largest |displ|/coords:  0.1944 (  16)  0.0994 (  19)  0.0943 (   3)
................................................................................
.............................. CYCLE   33 ......................................
................................................................................
   1    -50.7292653 -0.507293E+02  0.246E-01    8.46       0.0  T
   2    -50.7292819 -0.166476E-04  0.179E-01    8.46       1.0  T
   3    -50.7292977 -0.157839E-04  0.324E-02    8.45       1.0  T
   4    -50.7292989 -0.121849E-05  0.637E-03    8.45       3.1  T
   5    -50.7292990 -0.808438E-07  0.271E-03    8.45       7.2  T
   6    -50.7292990 -0.114421E-07  0.128E-03    8.45      15.3  T
speedup  1.11
cpu  time for SCC    0.01 s
wall time for SCC    0.01 s
speedup  1.04
cpu  time for grad    0.01 s
wall time for grad    0.01 s
 E :    -50.44633032  G :  0.022420    pred/act E change: -0.346D-03 -0.246D-03
Maxdispl :   0.1713   ||displ|| :   0.3649   Lambda : -0.107D-02
Largest |displ|/coords:  0.1713 (   3)  0.1485 (   5)  0.1407 (  16)
................................................................................
.............................. CYCLE   34 ......................................
................................................................................
   1    -50.7239778 -0.507240E+02  0.230E-01    8.46       0.0  T
   2    -50.7239927 -0.148996E-04  0.172E-01    8.46       1.0  T
   3    -50.7240073 -0.146507E-04  0.258E-02    8.45       1.0  T
   4    -50.7240088 -0.152831E-05  0.736E-03    8.45       2.7  T
   5    -50.7240089 -0.818106E-07  0.315E-03    8.45       6.2  T
   6    -50.7240089 -0.142452E-07  0.169E-03    8.45      11.6  T
speedup  1.11
cpu  time for SCC    0.01 s
wall time for SCC    0.01 s
speedup  1.04
cpu  time for grad    0.01 s
wall time for grad    0.01 s
 E :    -50.44683689  G :  0.017746    pred/act E change: -0.586D-03 -0.507D-03
Maxdispl :   0.0499   ||displ|| :   0.1367   Lambda : -0.443D-03
Largest |displ|/coords:  0.0499 (   1)  0.0476 (  16)  0.0426 (  14)
................................................................................
.............................. CYCLE   35 ......................................
................................................................................
   1    -50.7295733 -0.507296E+02  0.984E-02    8.58       0.0  T
   2    -50.7295766 -0.329070E-05  0.714E-02    8.57       1.0  T
   3    -50.7295790 -0.236300E-05  0.138E-02    8.57       1.4  T
   4    -50.7295793 -0.266909E-06  0.453E-03    8.57       4.3  T
   5    -50.7295793 -0.269577E-07  0.109E-03    8.57      18.0  T
   6    -50.7295793 -0.166569E-08  0.670E-04    8.57      29.3  T
speedup  1.11
cpu  time for SCC    0.01 s
wall time for SCC    0.01 s
speedup  1.03
cpu  time for grad    0.01 s
wall time for grad    0.01 s
 E :    -50.44706458  G :  0.010289    pred/act E change: -0.607D-03 -0.228D-03
Maxdispl :   0.1222   ||displ|| :   0.2593   Lambda : -0.424D-03
Largest |displ|/coords:  0.1222 (   2)  0.1151 (  16)  0.0636 (   8)
................................................................................
.............................. CYCLE   36 ......................................
................................................................................
   1    -50.7311073 -0.507311E+02  0.159E-01    8.62       0.0  T
   2    -50.7311125 -0.521976E-05  0.119E-01    8.62       1.0  T
   3    -50.7311180 -0.547449E-05  0.168E-02    8.61       1.2  T
   4    -50.7311184 -0.429668E-06  0.361E-03    8.61       5.4  T
   5    -50.7311185 -0.391078E-07  0.171E-03    8.61      11.5  T
   6    -50.7311185 -0.591731E-08  0.971E-04    8.61      20.2  T
speedup  1.09
cpu  time for SCC    0.01 s
wall time for SCC    0.01 s
speedup  1.03
cpu  time for grad    0.01 s
wall time for grad    0.01 s
 E :    -50.44737726  G :  0.006664    pred/act E change: -0.226D-03 -0.313D-03
Maxdispl :   0.2315   ||displ|| :   0.4752   Lambda : -0.516D-03
Largest |displ|/coords:  0.2315 (   2)  0.1955 (   5)  0.1871 (  16)
................................................................................
.............................. CYCLE   37 ......................................
................................................................................
   1    -50.7297397 -0.507297E+02  0.293E-01    8.61       0.0  T
   2    -50.7297561 -0.163646E-04  0.217E-01    8.61       1.0  T
   3    -50.7297729 -0.168132E-04  0.320E-02    8.60       1.0  T
   4    -50.7297742 -0.130821E-05  0.616E-03    8.60       3.2  T
   5    -50.7297743 -0.128087E-06  0.304E-03    8.60       6.4  T
   6    -50.7297744 -0.227506E-07  0.170E-03    8.60      11.5  T
   7    -50.7297744 -0.476737E-08  0.387E-04    8.60      50.7  T
speedup  0.95
cpu  time for SCC    0.01 s
wall time for SCC    0.01 s
speedup  0.97
cpu  time for grad    0.01 s
wall time for grad    0.01 s
 E :    -50.44761793  G :  0.012906    pred/act E change: -0.226D-03 -0.241D-03
Maxdispl :   0.0822   ||displ|| :   0.1615   Lambda : -0.355D-03
Largest |displ|/coords:  0.0822 (   2)  0.0528 (   9)  0.0506 (  19)
................................................................................
.............................. CYCLE   38 ......................................
................................................................................
   1    -50.7328357 -0.507328E+02  0.929E-02    8.67       0.0  T
   2    -50.7328396 -0.385555E-05  0.682E-02    8.67       1.0  T
   3    -50.7328415 -0.194663E-05  0.155E-02    8.67       1.3  T
   4    -50.7328420 -0.437080E-06  0.344E-03    8.67       5.7  T
   5    -50.7328420 -0.328768E-07  0.106E-03    8.67      18.5  T
   6    -50.7328420 -0.108776E-08  0.577E-04    8.67      34.0  T
speedup  0.94
cpu  time for SCC    0.00 s
wall time for SCC    0.01 s
speedup  0.96
cpu  time for grad    0.01 s
wall time for grad    0.01 s
 E :    -50.44781749  G :  0.007340    pred/act E change: -0.316D-03 -0.200D-03
Maxdispl :   0.0922   ||displ|| :   0.1797   Lambda : -0.223D-03
Largest |displ|/coords:  0.0922 (   4)  0.0862 (   2)  0.0554 (   7)
................................................................................
.............................. CYCLE   39 ......................................
................................................................................
   1    -50.7346890 -0.507347E+02  0.960E-02    8.71       0.0  T
   2    -50.7346912 -0.223077E-05  0.716E-02    8.71       1.0  T
   3    -50.7346928 -0.162102E-05  0.110E-02    8.71       1.8  T
   4    -50.7346931 -0.306504E-06  0.326E-03    8.71       6.0  T
   5    -50.7346931 -0.197244E-07  0.992E-04    8.71      19.8  T
   6    -50.7346931 -0.129242E-08  0.613E-04    8.71      32.0  T
speedup  0.93
cpu  time for SCC    0.01 s
wall time for SCC    0.01 s
speedup  0.96
cpu  time for grad    0.01 s
wall time for grad    0.01 s
 E :    -50.44799473  G :  0.005819    pred/act E change: -0.182D-03 -0.177D-03
Maxdispl :   0.2510   ||displ|| :   0.4564   Lambda : -0.430D-03
Largest |displ|/coords:  0.2510 (   2)  0.1849 (   4)  0.1330 (  29)
................................................................................
.............................. CYCLE   40 ......................................
................................................................................
   1    -50.7337641 -0.507338E+02  0.262E-01    8.69       0.0  T
   2    -50.7337790 -0.148725E-04  0.195E-01    8.69       1.0  T
   3    -50.7337921 -0.130952E-04  0.298E-02    8.69       1.0  T
   4    -50.7337937 -0.161941E-05  0.106E-02    8.69       1.8  T
   5    -50.7337938 -0.146237E-06  0.259E-03    8.69       7.6  T
   6    -50.7337939 -0.823525E-08  0.172E-03    8.69      11.4  T
speedup  1.09
cpu  time for SCC    0.01 s
wall time for SCC    0.01 s
speedup  1.02
cpu  time for grad    0.01 s
wall time for grad    0.01 s
 E :    -50.44828282  G :  0.009194    pred/act E change: -0.115D-03 -0.288D-03
Maxdispl :   0.2121   ||displ|| :   0.4433   Lambda : -0.482D-03
Largest |displ|/coords:  0.2121 (   1)  0.1723 (   3)  0.1616 (   4)
................................................................................
.............................. CYCLE   41 ......................................
................................................................................
   1    -50.7376916 -0.507377E+02  0.180E-01    8.77       0.0  T
   2    -50.7377063 -0.146599E-04  0.135E-01    8.77       1.0  T
   3    -50.7377135 -0.716245E-05  0.245E-02    8.77       1.0  T
   4    -50.7377157 -0.220634E-05  0.777E-03    8.77       2.5  T
   5    -50.7377158 -0.171599E-06  0.226E-03    8.77       8.7  T
   6    -50.7377158 -0.475827E-08  0.134E-03    8.77      14.7  T
speedup  1.11
cpu  time for SCC    0.01 s
wall time for SCC    0.01 s
speedup  1.04
cpu  time for grad    0.01 s
wall time for grad    0.01 s
 E :    -50.44843818  G :  0.018646    pred/act E change: -0.260D-03 -0.155D-03
Maxdispl :   0.2207   ||displ|| :   0.3801   Lambda : -0.556D-03
Largest |displ|/coords:  0.2207 (   1)  0.1908 (   2)  0.1371 (   4)
................................................................................
.............................. CYCLE   42 ......................................
................................................................................
   1    -50.7354180 -0.507354E+02  0.177E-01    8.75       0.0  T
   2    -50.7354260 -0.799608E-05  0.133E-01    8.75       1.0  T
   3    -50.7354364 -0.104124E-04  0.176E-02    8.76       1.1  T
   4    -50.7354369 -0.525752E-06  0.558E-03    8.76       3.5  T
   5    -50.7354370 -0.553967E-07  0.237E-03    8.76       8.3  T
   6    -50.7354370 -0.862643E-08  0.124E-03    8.76      15.8  T
speedup  1.07
cpu  time for SCC    0.01 s
wall time for SCC    0.01 s
speedup  1.01
cpu  time for grad    0.01 s
wall time for grad    0.01 s
 E :    -50.44878905  G :  0.015606    pred/act E change: -0.288D-03 -0.351D-03
Maxdispl :   0.1860   ||displ|| :   0.2853   Lambda : -0.516D-03
Largest |displ|/coords:  0.1860 (   1)  0.1233 (   2)  0.0872 (   5)
................................................................................
.............................. CYCLE   43 ......................................
................................................................................
   1    -50.7339248 -0.507339E+02  0.113E-01    8.70       0.0  T
   2    -50.7339309 -0.612487E-05  0.840E-02    8.70       1.0  T
   3    -50.7339360 -0.511619E-05  0.166E-02    8.70       1.2  T
   4    -50.7339368 -0.786930E-06  0.574E-03    8.70       3.4  T
   5    -50.7339369 -0.534542E-07  0.184E-03    8.70      10.7  T
   6    -50.7339369 -0.473042E-08  0.102E-03    8.70      19.3  T
speedup  0.93
cpu  time for SCC    0.00 s
wall time for SCC    0.01 s
speedup  0.96
cpu  time for grad    0.01 s
wall time for grad    0.01 s
 E :    -50.44911451  G :  0.013271    pred/act E change: -0.318D-03 -0.325D-03
Maxdispl :   0.2454   ||displ|| :   0.4257   Lambda : -0.672D-03
Largest |displ|/coords:  0.2454 (   1)  0.1668 (   2)  0.1506 (   5)
................................................................................
.............................. CYCLE   44 ......................................
................................................................................
   1    -50.7303625 -0.507304E+02  0.168E-01    8.73       0.0  T
   2    -50.7303742 -0.117076E-04  0.127E-01    8.73       1.0  T
   3    -50.7303825 -0.835807E-05  0.235E-02    8.73       1.0  T
   4    -50.7303844 -0.187088E-05  0.825E-03    8.73       2.4  T
   5    -50.7303845 -0.857785E-07  0.267E-03    8.73       7.3  T
   6    -50.7303845 -0.865150E-08  0.141E-03    8.73      13.9  T
speedup  1.09
cpu  time for SCC    0.01 s
wall time for SCC    0.01 s
speedup  1.02
cpu  time for grad    0.01 s
wall time for grad    0.01 s
 E :    -50.44940929  G :  0.016230    pred/act E change: -0.279D-03 -0.295D-03
Maxdispl :   0.1537   ||displ|| :   0.2880   Lambda : -0.780D-03
Largest |displ|/coords:  0.1537 (   1)  0.1006 (  16)  0.0978 (   3)
................................................................................
.............................. CYCLE   45 ......................................
................................................................................
   1    -50.7351250 -0.507351E+02  0.177E-01    8.75       0.0  T
   2    -50.7351344 -0.937236E-05  0.133E-01    8.75       1.0  T
   3    -50.7351394 -0.493249E-05  0.203E-02    8.75       1.0  T
   4    -50.7351409 -0.152361E-05  0.661E-03    8.75       3.0  T
   5    -50.7351409 -0.568787E-07  0.171E-03    8.75      11.4  T
   6    -50.7351409 -0.210019E-08  0.946E-04    8.75      20.7  T
speedup  1.13
cpu  time for SCC    0.01 s
wall time for SCC    0.01 s
speedup  1.04
cpu  time for grad    0.01 s
wall time for grad    0.01 s
 E :    -50.44970487  G :  0.014407    pred/act E change: -0.397D-03 -0.296D-03
Maxdispl :   0.2192   ||displ|| :   0.4889   Lambda : -0.693D-03
Largest |displ|/coords:  0.2192 (   2)  0.1991 (   1)  0.1828 (   4)
................................................................................
.............................. CYCLE   46 ......................................
................................................................................
   1    -50.7295560 -0.507296E+02  0.263E-01    8.60       0.0  T
   2    -50.7295748 -0.187977E-04  0.195E-01    8.60       1.0  T
   3    -50.7295864 -0.116380E-04  0.314E-02    8.61       1.0  T
   4    -50.7295889 -0.242066E-05  0.118E-02    8.61       1.7  T
   5    -50.7295890 -0.158039E-06  0.247E-03    8.61       7.9  T
   6    -50.7295890 -0.786951E-08  0.159E-03    8.61      12.3  T
speedup  0.93
cpu  time for SCC    0.00 s
wall time for SCC    0.01 s
speedup  0.96
cpu  time for grad    0.01 s
wall time for grad    0.01 s
 E :    -50.44966842  G :  0.024218    pred/act E change: -0.423D-03  0.365D-04
Maxdispl :   0.1170   ||displ|| :   0.2082   Lambda : -0.119D-02
Largest |displ|/coords:  0.1170 (   1)  0.0728 (   4)  0.0554 (   2)
................................................................................
.............................. CYCLE   47 ......................................
................................................................................
   1    -50.7359191 -0.507359E+02  0.142E-01    8.70       0.0  T
   2    -50.7359329 -0.137829E-04  0.106E-01    8.70       1.0  T
   3    -50.7359416 -0.870555E-05  0.232E-02    8.70       1.0  T
   4    -50.7359433 -0.168119E-05  0.679E-03    8.70       2.9  T
   5    -50.7359434 -0.793467E-07  0.251E-03    8.70       7.8  T
   6    -50.7359434 -0.462630E-08  0.135E-03    8.70      14.6  T
speedup  0.93
cpu  time for SCC    0.00 s
wall time for SCC    0.01 s
speedup  0.96
cpu  time for grad    0.01 s
wall time for grad    0.01 s
 E :    -50.44977348  G :  0.018433    pred/act E change: -0.429D-03 -0.105D-03
Maxdispl :   0.0781   ||displ|| :   0.2190   Lambda : -0.106D-02
Largest |displ|/coords:  0.0781 (   4)  0.0767 (   5)  0.0714 (   1)
................................................................................
.............................. CYCLE   48 ......................................
................................................................................
   1    -50.7345691 -0.507346E+02  0.161E-01    8.80       0.0  T
   2    -50.7345777 -0.857135E-05  0.119E-01    8.80       1.0  T
   3    -50.7345845 -0.681340E-05  0.221E-02    8.80       1.0  T
   4    -50.7345855 -0.924137E-06  0.793E-03    8.80       2.5  T
   5    -50.7345855 -0.751517E-07  0.215E-03    8.80       9.1  T
   6    -50.7345855 -0.532420E-08  0.131E-03    8.80      15.0  T
speedup  0.93
cpu  time for SCC    0.00 s
wall time for SCC    0.01 s
speedup  1.01
cpu  time for grad    0.01 s
wall time for grad    0.01 s
 E :    -50.45004070  G :  0.012522    pred/act E change: -0.621D-03 -0.267D-03
Maxdispl :   0.0909   ||displ|| :   0.1714   Lambda : -0.532D-03
Largest |displ|/coords:  0.0909 (   5)  0.0602 (   2)  0.0593 (  19)
................................................................................
.............................. CYCLE   49 ......................................
................................................................................
   1    -50.7354262 -0.507354E+02  0.119E-01    8.73       0.0  T
   2    -50.7354304 -0.422611E-05  0.872E-02    8.73       1.0  T
   3    -50.7354336 -0.323715E-05  0.150E-02    8.73       1.3  T
   4    -50.7354340 -0.371030E-06  0.389E-03    8.73       5.0  T
   5    -50.7354340 -0.272950E-07  0.119E-03    8.73      16.4  T
   6    -50.7354340 -0.312441E-08  0.736E-04    8.73      26.6  T
speedup  0.93
cpu  time for SCC    0.00 s
wall time for SCC    0.01 s
speedup  0.96
cpu  time for grad    0.01 s
wall time for grad    0.01 s
 E :    -50.45024944  G :  0.010027    pred/act E change: -0.555D-03 -0.209D-03
Maxdispl :   0.0761   ||displ|| :   0.1936   Lambda : -0.275D-03
Largest |displ|/coords:  0.0761 (   2)  0.0751 (   3)  0.0710 (   1)
................................................................................
.............................. CYCLE   50 ......................................
................................................................................
   1    -50.7343804 -0.507344E+02  0.123E-01    8.71       0.0  T
   2    -50.7343842 -0.382541E-05  0.918E-02    8.71       1.0  T
   3    -50.7343872 -0.292154E-05  0.143E-02    8.71       1.4  T
   4    -50.7343877 -0.501933E-06  0.580E-03    8.71       3.4  T
   5    -50.7343877 -0.338974E-07  0.131E-03    8.71      15.0  T
   6    -50.7343877 -0.182256E-08  0.844E-04    8.71      23.2  T
speedup  0.94
cpu  time for SCC    0.00 s
wall time for SCC    0.01 s
speedup  0.96
cpu  time for grad    0.01 s
wall time for grad    0.01 s
 E :    -50.45033541  G :  0.011661    pred/act E change: -0.274D-03 -0.860D-04
Maxdispl :   0.0687   ||displ|| :   0.1434   Lambda : -0.263D-03
Largest |displ|/coords:  0.0687 (   3)  0.0624 (   4)  0.0355 (   2)
................................................................................
.............................. CYCLE   51 ......................................
................................................................................
   1    -50.7336816 -0.507337E+02  0.900E-02    8.74       0.0  T
   2    -50.7336847 -0.307466E-05  0.676E-02    8.73       1.0  T
   3    -50.7336872 -0.248442E-05  0.108E-02    8.73       1.8  T
   4    -50.7336876 -0.379794E-06  0.415E-03    8.74       4.7  T
   5    -50.7336876 -0.249069E-07  0.125E-03    8.74      15.6  T
   6    -50.7336876 -0.258243E-08  0.719E-04    8.74      27.3  T
speedup  0.94
cpu  time for SCC    0.00 s
wall time for SCC    0.01 s
speedup  0.96
cpu  time for grad    0.01 s
wall time for grad    0.01 s
 E :    -50.45042189  G :  0.011173    pred/act E change: -0.143D-03 -0.865D-04
Maxdispl :   0.0684   ||displ|| :   0.1806   Lambda : -0.337D-03
Largest |displ|/coords:  0.0684 (   5)  0.0631 (  14)  0.0621 (  13)
................................................................................
.............................. CYCLE   52 ......................................
................................................................................
   1    -50.7348396 -0.507348E+02  0.125E-01    8.78       0.0  T
   2    -50.7348435 -0.385777E-05  0.942E-02    8.78       1.0  T
   3    -50.7348471 -0.362064E-05  0.122E-02    8.77       1.6  T
   4    -50.7348475 -0.413580E-06  0.488E-03    8.77       4.0  T
   5    -50.7348475 -0.302655E-07  0.144E-03    8.77      13.6  T
   6    -50.7348475 -0.291072E-08  0.793E-04    8.77      24.7  T
speedup  0.93
cpu  time for SCC    0.00 s
wall time for SCC    0.01 s
speedup  0.96
cpu  time for grad    0.01 s
wall time for grad    0.01 s
 E :    -50.45055668  G :  0.010928    pred/act E change: -0.134D-03 -0.135D-03
Maxdispl :   0.1042   ||displ|| :   0.1858   Lambda : -0.306D-03
Largest |displ|/coords:  0.1042 (  14)  0.0618 (   5)  0.0576 (  13)

generating ANC from model Hessian ...
 Shifting diagonal of input Hessian by   4.759916289749133E-003
 Lowest  eigenvalues of input Hessian
   -0.000000   -0.000000    0.000000    0.000000    0.000000    0.000000
    0.005000    0.005066    0.005402    0.005717    0.006314    0.006764
    0.007670    0.008311    0.009072    0.009452    0.010448    0.010712
 Highest eigenvalues
    1.398725    1.404184    1.460929    2.308090    3.464636    3.798987
 
cpu  time for ANC gen    0.03 s
wall time for ANC gen    0.03 s
................................................................................
.............................. CYCLE   53 ......................................
................................................................................
   1    -50.7369521 -0.507370E+02  0.121E-01    8.78       0.0  T
   2    -50.7369556 -0.348630E-05  0.898E-02    8.78       1.0  T
   3    -50.7369585 -0.287959E-05  0.133E-02    8.78       1.5  T
   4    -50.7369588 -0.382851E-06  0.424E-03    8.78       4.6  T
   5    -50.7369589 -0.232194E-07  0.137E-03    8.78      14.3  T
   6    -50.7369589 -0.208762E-08  0.796E-04    8.78      24.6  T
   7    -50.7369589 -0.901068E-09  0.219E-04    8.78      89.6  T
speedup  0.97
cpu  time for SCC    0.01 s
wall time for SCC    0.01 s
speedup  0.99
cpu  time for grad    0.01 s
wall time for grad    0.02 s
 E :    -50.45069065  G :  0.009403    pred/act E change:  0.000D+00 -0.134D-03
Maxdispl :   0.0685   ||displ|| :   0.1629   Lambda : -0.336D-03
Largest |displ|/coords:  0.0685 (  13)  0.0596 (   2)  0.0560 (   6)
................................................................................
.............................. CYCLE   54 ......................................
................................................................................
   1    -50.7360377 -0.507360E+02  0.112E-01    8.77       0.0  T
   2    -50.7360397 -0.197949E-05  0.846E-02    8.78       1.0  T
   3    -50.7360422 -0.247849E-05  0.845E-03    8.78       2.3  T
   4    -50.7360423 -0.129419E-06  0.254E-03    8.78       7.7  T
   5    -50.7360423 -0.869377E-08  0.124E-03    8.78      15.8  T
speedup  0.89
cpu  time for SCC    0.00 s
wall time for SCC    0.00 s
speedup  1.02
cpu  time for grad    0.01 s
wall time for grad    0.01 s
 E :    -50.45090677  G :  0.003248    pred/act E change:  0.000D+00 -0.216D-03
Maxdispl :   0.1410   ||displ|| :   0.2658   Lambda : -0.338D-03
Largest |displ|/coords:  0.1410 (  13)  0.1158 (   4)  0.1039 (   3)
................................................................................
.............................. CYCLE   55 ......................................
................................................................................
   1    -50.7335776 -0.507336E+02  0.200E-01    8.77       0.0  T
   2    -50.7335852 -0.761546E-05  0.152E-01    8.77       1.0  T
   3    -50.7335935 -0.833783E-05  0.151E-02    8.77       1.3  T
   4    -50.7335942 -0.651224E-06  0.500E-03    8.77       3.9  T
   5    -50.7335942 -0.276154E-07  0.190E-03    8.77      10.3  T
   6    -50.7335942 -0.396080E-08  0.103E-03    8.77      19.0  T
   7    -50.7335942 -0.157519E-08  0.255E-04    8.77      76.9  T
   8    -50.7335942 -0.136488E-09  0.663E-05    8.77     295.9  T
speedup  0.99
cpu  time for SCC    0.01 s
wall time for SCC    0.01 s
speedup  0.95
cpu  time for grad    0.01 s
wall time for grad    0.02 s
 E :    -50.45092601  G :  0.009903    pred/act E change: -0.172D-03 -0.192D-04
Maxdispl :   0.1585   ||displ|| :   0.1896   Lambda : -0.422D-03
Largest |displ|/coords:  0.1585 (   2)  0.0584 (  12)  0.0487 (  14)
................................................................................
.............................. CYCLE   56 ......................................
................................................................................
   1    -50.7338126 -0.507338E+02  0.132E-01    8.75       0.0  T
   2    -50.7338137 -0.106726E-05  0.985E-02    8.75       1.0  T
   3    -50.7338149 -0.116421E-05  0.735E-03    8.75       2.7  T
   4    -50.7338149 -0.745526E-07  0.178E-03    8.75      11.0  T
   5    -50.7338150 -0.461203E-08  0.841E-04    8.75      23.3  T
speedup  1.09
cpu  time for SCC    0.00 s
wall time for SCC    0.00 s
speedup  1.02
cpu  time for grad    0.01 s
wall time for grad    0.01 s
 E :    -50.45120396  G :  0.009402    pred/act E change: -0.181D-03 -0.278D-03
Maxdispl :   0.2125   ||displ|| :   0.2830   Lambda : -0.336D-03
Largest |displ|/coords:  0.2125 (   2)  0.1009 (  13)  0.0827 (  12)
................................................................................
.............................. CYCLE   57 ......................................
................................................................................
   1    -50.7342807 -0.507343E+02  0.158E-01    8.73       0.0  T
   2    -50.7342833 -0.254093E-05  0.119E-01    8.73       1.0  T
   3    -50.7342860 -0.279147E-05  0.111E-02    8.74       1.8  T
   4    -50.7342862 -0.173356E-06  0.357E-03    8.74       5.5  T
   5    -50.7342862 -0.154058E-07  0.117E-03    8.74      16.7  T
   6    -50.7342862 -0.141741E-08  0.708E-04    8.74      27.7  T
speedup  0.94
cpu  time for SCC    0.00 s
wall time for SCC    0.01 s
speedup  0.96
cpu  time for grad    0.01 s
wall time for grad    0.01 s
 E :    -50.45148404  G :  0.007200    pred/act E change: -0.219D-03 -0.280D-03
Maxdispl :   0.4692   ||displ|| :   0.6718   Lambda : -0.684D-03
Largest |displ|/coords:  0.4692 (   2)  0.2502 (  13)  0.1955 (   4)
................................................................................
.............................. CYCLE   58 ......................................
................................................................................
   1    -50.7311582 -0.507312E+02  0.363E-01    8.63       0.0  T
   2    -50.7311750 -0.168047E-04  0.272E-01    8.63       1.0  T
   3    -50.7311926 -0.176148E-04  0.280E-02    8.63       1.0  T
   4    -50.7311940 -0.134037E-05  0.108E-02    8.64       1.8  T
   5    -50.7311941 -0.128220E-06  0.308E-03    8.63       6.4  T
   6    -50.7311941 -0.988943E-08  0.192E-03    8.63      10.2  T
   7    -50.7311941 -0.532803E-08  0.419E-04    8.63      46.8  T
speedup  0.95
cpu  time for SCC    0.01 s
wall time for SCC    0.01 s
speedup  0.97
cpu  time for grad    0.01 s
wall time for grad    0.01 s
 E :    -50.45200415  G :  0.015622    pred/act E change: -0.182D-03 -0.520D-03
Maxdispl :   0.3056   ||displ|| :   0.5122   Lambda : -0.841D-03
Largest |displ|/coords:  0.3056 (   2)  0.1976 (   1)  0.1690 (   4)
................................................................................
.............................. CYCLE   59 ......................................
................................................................................
   1    -50.7342881 -0.507343E+02  0.239E-01    8.61       0.0  T
   2    -50.7343005 -0.124284E-04  0.179E-01    8.61       1.0  T
   3    -50.7343105 -0.999063E-05  0.218E-02    8.61       1.0  T
   4    -50.7343120 -0.150115E-05  0.948E-03    8.61       2.1  T
   5    -50.7343121 -0.122020E-06  0.251E-03    8.61       7.8  T
   6    -50.7343121 -0.571798E-08  0.152E-03    8.61      12.9  T
speedup  1.11
cpu  time for SCC    0.01 s
wall time for SCC    0.01 s
speedup  1.04
cpu  time for grad    0.01 s
wall time for grad    0.01 s
 E :    -50.45236452  G :  0.025446    pred/act E change: -0.496D-03 -0.360D-03
Maxdispl :   0.2195   ||displ|| :   0.4286   Lambda : -0.111D-02
Largest |displ|/coords:  0.2195 (   2)  0.2145 (  13)  0.1659 (   1)
................................................................................
.............................. CYCLE   60 ......................................
................................................................................
   1    -50.7312663 -0.507313E+02  0.268E-01    8.63       0.0  T
   2    -50.7312834 -0.170546E-04  0.202E-01    8.62       1.0  T
   3    -50.7312989 -0.155254E-04  0.229E-02    8.62       1.0  T
   4    -50.7313009 -0.198930E-05  0.997E-03    8.62       2.0  T
   5    -50.7313010 -0.161036E-06  0.316E-03    8.62       6.2  T
   6    -50.7313010 -0.921929E-08  0.191E-03    8.62      10.3  T
speedup  1.11
cpu  time for SCC    0.01 s
wall time for SCC    0.01 s
speedup  1.03
cpu  time for grad    0.01 s
wall time for grad    0.01 s
 E :    -50.45293022  G :  0.023210    pred/act E change: -0.531D-03 -0.566D-03
Maxdispl :   0.1606   ||displ|| :   0.2483   Lambda : -0.115D-02
Largest |displ|/coords:  0.1606 (   1)  0.0846 (   6)  0.0653 (   5)
................................................................................
.............................. CYCLE   61 ......................................
................................................................................
   1    -50.7399535 -0.507400E+02  0.174E-01    8.89       0.0  T
   2    -50.7399653 -0.118528E-04  0.128E-01    8.88       1.0  T
   3    -50.7399733 -0.801432E-05  0.239E-02    8.87       1.0  T
   4    -50.7399745 -0.116654E-05  0.380E-03    8.87       5.2  T
   5    -50.7399745 -0.231129E-07  0.211E-03    8.87       9.3  T
speedup  0.87
cpu  time for SCC    0.00 s
wall time for SCC    0.00 s
speedup  0.94
cpu  time for grad    0.01 s
wall time for grad    0.01 s
 E :    -50.45325435  G :  0.014755    pred/act E change: -0.656D-03 -0.324D-03
Maxdispl :   0.3284   ||displ|| :   0.5296   Lambda : -0.123D-02
Largest |displ|/coords:  0.3284 (   2)  0.2219 (   1)  0.1428 (  13)
................................................................................
.............................. CYCLE   62 ......................................
................................................................................
   1    -50.7312159 -0.507312E+02  0.291E-01    8.75       0.0  T
   2    -50.7312339 -0.180614E-04  0.219E-01    8.75       1.0  T
   3    -50.7312514 -0.175046E-04  0.258E-02    8.75       1.0  T
   4    -50.7312532 -0.180825E-05  0.119E-02    8.76       1.7  T
   5    -50.7312534 -0.183698E-06  0.340E-03    8.76       5.8  T
   6    -50.7312534 -0.137400E-07  0.207E-03    8.76       9.5  T
   7    -50.7312534 -0.838259E-08  0.520E-04    8.75      37.7  T
speedup  1.11
cpu  time for SCC    0.01 s
wall time for SCC    0.01 s
speedup  1.03
cpu  time for grad    0.01 s
wall time for grad    0.01 s
 E :    -50.45356865  G :  0.021970    pred/act E change: -0.612D-03 -0.314D-03
Maxdispl :   0.1455   ||displ|| :   0.2714   Lambda : -0.124D-02
Largest |displ|/coords:  0.1455 (   8)  0.1233 (   2)  0.0873 (   3)
................................................................................
.............................. CYCLE   63 ......................................
................................................................................
   1    -50.7352531 -0.507353E+02  0.171E-01    8.74       0.0  T
   2    -50.7352619 -0.881515E-05  0.129E-01    8.73       1.0  T
   3    -50.7352706 -0.868766E-05  0.166E-02    8.73       1.2  T
   4    -50.7352715 -0.876810E-06  0.614E-03    8.73       3.2  T
   5    -50.7352715 -0.475102E-07  0.223E-03    8.73       8.8  T
   6    -50.7352715 -0.544333E-08  0.115E-03    8.73      17.0  T
speedup  1.09
cpu  time for SCC    0.01 s
wall time for SCC    0.01 s
speedup  1.03
cpu  time for grad    0.01 s
wall time for grad    0.01 s
 E :    -50.45398847  G :  0.020399    pred/act E change: -0.791D-03 -0.420D-03
Maxdispl :   0.1335   ||displ|| :   0.2477   Lambda : -0.102D-02
Largest |displ|/coords:  0.1335 (  13)  0.0996 (   1)  0.0723 (  19)
................................................................................
.............................. CYCLE   64 ......................................
................................................................................
   1    -50.7404354 -0.507404E+02  0.163E-01    8.82       0.0  T
   2    -50.7404450 -0.958482E-05  0.123E-01    8.82       1.0  T
   3    -50.7404543 -0.933079E-05  0.190E-02    8.81       1.0  T
   4    -50.7404553 -0.977158E-06  0.739E-03    8.81       2.7  T
   5    -50.7404554 -0.791882E-07  0.223E-03    8.81       8.8  T
   6    -50.7404554 -0.486825E-08  0.126E-03    8.81      15.5  T
speedup  0.93
cpu  time for SCC    0.01 s
wall time for SCC    0.01 s
speedup  0.97
cpu  time for grad    0.01 s
wall time for grad    0.01 s
 E :    -50.45422224  G :  0.016578    pred/act E change: -0.665D-03 -0.234D-03
[...]
.............................. CYCLE   84 ......................................
................................................................................
   1    -50.7430172 -0.507430E+02  0.815E-02    8.95       0.0  T
   2    -50.7430183 -0.112848E-05  0.613E-02    8.95       1.0  T
   3    -50.7430191 -0.778464E-06  0.615E-03    8.95       3.2  T
   4    -50.7430193 -0.190396E-06  0.189E-03    8.95      10.4  T
   5    -50.7430193 -0.483739E-08  0.747E-04    8.95      26.3  T
   6    -50.7430193 -0.502929E-09  0.372E-04    8.95      52.7  T
speedup  0.93
cpu  time for SCC    0.00 s
wall time for SCC    0.01 s
speedup  0.98
cpu  time for grad    0.01 s
wall time for grad    0.01 s
 E :    -50.45743376  G :  0.002093    pred/act E change: -0.179D-04 -0.226D-04
Maxdispl :   0.0321   ||displ|| :   0.0566   Lambda : -0.173D-04
Largest |displ|/coords:  0.0321 (   1)  0.0318 (   2)  0.0170 (   4)
................................................................................
.............................. CYCLE   85 ......................................
................................................................................
   1    -50.7428603 -0.507429E+02  0.426E-02    8.94       0.0  T
   2    -50.7428606 -0.295502E-06  0.321E-02    8.95       1.0  T
   3    -50.7428609 -0.206005E-06  0.305E-03    8.95       6.4  T
   4    -50.7428609 -0.481119E-07  0.956E-04    8.95      20.5  T
   5    -50.7428609 -0.144742E-08  0.374E-04    8.95      52.4  T
speedup  1.11
cpu  time for SCC    0.00 s
wall time for SCC    0.00 s
speedup  0.98
cpu  time for grad    0.01 s
wall time for grad    0.01 s
 E :    -50.45744100  G :  0.002058    pred/act E change: -0.217D-04 -0.724D-05
Maxdispl :   0.0247   ||displ|| :   0.0366   Lambda : -0.122D-04
Largest |displ|/coords:  0.0247 (   2)  0.0135 (   1)  0.0093 (   6)
................................................................................
.............................. CYCLE   86 ......................................
................................................................................
   1    -50.7430447 -0.507430E+02  0.250E-02    8.95       0.0  T
   2    -50.7430448 -0.948990E-07  0.188E-02    8.95       1.0  T
   3    -50.7430449 -0.564277E-07  0.166E-03    8.95      11.8  T
   4    -50.7430449 -0.164887E-07  0.548E-04    8.95      35.8  T
   5    -50.7430449 -0.553207E-09  0.199E-04    8.95      98.4  T
speedup  1.09
cpu  time for SCC    0.00 s
wall time for SCC    0.00 s
speedup  0.97
cpu  time for grad    0.01 s
wall time for grad    0.01 s
 E :    -50.45744907  G :  0.001116    pred/act E change: -0.866D-05 -0.807D-05
Maxdispl :   0.0377   ||displ|| :   0.0489   Lambda : -0.677D-05
Largest |displ|/coords:  0.0377 (   2)  0.0194 (   1)  0.0120 (   4)
................................................................................
.............................. CYCLE   87 ......................................
................................................................................
   1    -50.7431119 -0.507431E+02  0.301E-02    8.95       0.0  T
   2    -50.7431120 -0.904262E-07  0.226E-02    8.95       1.0  T
   3    -50.7431121 -0.645349E-07  0.169E-03    8.95      11.6  T
   4    -50.7431121 -0.141584E-07  0.589E-04    8.95      33.3  T
   5    -50.7431121 -0.460190E-09  0.223E-04    8.95      88.0  T
speedup  1.11
cpu  time for SCC    0.00 s
wall time for SCC    0.00 s
speedup  1.05
cpu  time for grad    0.01 s
wall time for grad    0.01 s
 E :    -50.45745308  G :  0.000775    pred/act E change: -0.612D-05 -0.402D-05
Maxdispl :   0.0299   ||displ|| :   0.0376   Lambda : -0.285D-05
Largest |displ|/coords:  0.0299 (   2)  0.0153 (   1)  0.0088 (   4)
................................................................................
.............................. CYCLE   88 ......................................
................................................................................
   1    -50.7431445 -0.507431E+02  0.200E-02    8.96       0.0  T
   2    -50.7431445 -0.322623E-07  0.150E-02    8.96       1.3  T
   3    -50.7431445 -0.293585E-07  0.111E-03    8.96      17.6  T
   4    -50.7431445 -0.351214E-08  0.336E-04    8.96      58.3  T
   5    -50.7431445 -0.156732E-09  0.130E-04    8.96     151.3  T
speedup  0.89
cpu  time for SCC    0.00 s
wall time for SCC    0.00 s
speedup  0.98
cpu  time for grad    0.01 s
wall time for grad    0.01 s
 E :    -50.45745496  G :  0.000598    pred/act E change: -0.339D-05 -0.188D-05
Maxdispl :   0.0234   ||displ|| :   0.0282   Lambda : -0.162D-05
Largest |displ|/coords:  0.0234 (   2)  0.0098 (   4)  0.0087 (   1)
................................................................................
.............................. CYCLE   89 ......................................
................................................................................
   1    -50.7431979 -0.507432E+02  0.127E-02    8.96       0.0  T
   2    -50.7431979 -0.145104E-07  0.951E-03    8.96       2.1  T
   3    -50.7431979 -0.120304E-07  0.846E-04    8.96      23.2  T
   4    -50.7431979 -0.182219E-08  0.235E-04    8.96      83.3  T
speedup  0.81
cpu  time for SCC    0.00 s
wall time for SCC    0.00 s
speedup  0.97
cpu  time for grad    0.01 s
wall time for grad    0.01 s
 E :    -50.45745604  G :  0.000451    pred/act E change: -0.143D-05 -0.108D-05
Maxdispl :   0.0121   ||displ|| :   0.0150   Lambda : -0.689D-06
Largest |displ|/coords:  0.0121 (   2)  0.0053 (   4)  0.0034 (  13)
................................................................................
.............................. CYCLE   90 ......................................
................................................................................
   1    -50.7432445 -0.507432E+02  0.527E-03    8.96       0.0  T
   2    -50.7432445 -0.980934E-08  0.393E-03    8.96       5.0  T
   3    -50.7432445 -0.502558E-08  0.656E-04    8.96      29.9  T
   4    -50.7432445 -0.163467E-08  0.200E-04    8.96      98.3  T
speedup  1.08
cpu  time for SCC    0.00 s
wall time for SCC    0.00 s
speedup  0.97
cpu  time for grad    0.01 s
wall time for grad    0.01 s
 E :    -50.45745650  G :  0.000349    pred/act E change: -0.813D-06 -0.463D-06
Maxdispl :   0.0085   ||displ|| :   0.0122   Lambda : -0.399D-06
Largest |displ|/coords:  0.0085 (   2)  0.0061 (   4)  0.0027 (   6)
................................................................................
.............................. CYCLE   91 ......................................
................................................................................
   1    -50.7432531 -0.507433E+02  0.413E-03    8.96       0.0  T
   2    -50.7432531 -0.691783E-08  0.305E-03    8.96       6.4  T
   3    -50.7432531 -0.350076E-08  0.539E-04    8.96      36.4  T
   4    -50.7432531 -0.103006E-08  0.192E-04    8.96     102.2  T
speedup  1.03
cpu  time for SCC    0.00 s
wall time for SCC    0.00 s
speedup  1.03
cpu  time for grad    0.01 s
wall time for grad    0.01 s
 E :    -50.45745676  G :  0.000237    pred/act E change: -0.345D-06 -0.261D-06
Maxdispl :   0.0043   ||displ|| :   0.0088   Lambda : -0.225D-06
Largest |displ|/coords:  0.0043 (   2)  0.0042 (   4)  0.0030 (   6)
................................................................................
.............................. CYCLE   92 ......................................
................................................................................
   1    -50.7432651 -0.507433E+02  0.396E-03    8.96       0.0  T
   2    -50.7432651 -0.422236E-08  0.294E-03    8.96       6.7  T
   3    -50.7432651 -0.347153E-08  0.454E-04    8.96      43.2  T
   4    -50.7432651 -0.472646E-09  0.156E-04    8.96     126.0  T
speedup  0.83
cpu  time for SCC    0.00 s
wall time for SCC    0.00 s
speedup  0.98
cpu  time for grad    0.01 s
wall time for grad    0.01 s
 E :    -50.45745691  G :  0.000161    pred/act E change: -0.200D-06 -0.151D-06
Maxdispl :   0.0035   ||displ|| :   0.0056   Lambda : -0.101D-06
Largest |displ|/coords:  0.0035 (   4)  0.0028 (   2)  0.0018 (   6)
................................................................................
.............................. CYCLE   93 ......................................
................................................................................
   1    -50.7432491 -0.507432E+02  0.249E-03    8.96       0.0  T
   2    -50.7432491 -0.118297E-08  0.183E-03    8.96      10.7  T
   3    -50.7432491 -0.946841E-09  0.275E-04    8.96      71.3  T
   4    -50.7432491 -0.124579E-09  0.925E-05    8.96     212.0  T
speedup  1.08
cpu  time for SCC    0.00 s
wall time for SCC    0.00 s
speedup  0.97
cpu  time for grad    0.01 s
wall time for grad    0.01 s
 E :    -50.45745698  G :  0.000127    pred/act E change: -0.113D-06 -0.644D-07
Maxdispl :   0.0028   ||displ|| :   0.0043   Lambda : -0.395D-07
Largest |displ|/coords:  0.0028 (   4)  0.0022 (   2)  0.0015 (   3)

   *** GEOMETRY OPTIMIZATION CONVERGED AFTER 93 ITERATIONS ***

------------------------------------------------------------------------
 total energy gain (kcal):     -0.0446
------------------------------------------------------------------------
================
 final structure:
================
$coord
       -3.31757197501274       -1.30342137545201       -0.62718467934658      S 
       -0.99589114707804       -1.49060312993055        0.88690236128606      O 
       -5.50207714009653       -0.74890125620540        0.86399934856278      O 
       -2.76757089703220        1.12263544806999       -2.41359274633596      O 
       -3.49287079115182       -3.37092752896551       -2.40681966303408      O 
       -0.77454530034494       -4.61911859897100       -2.57142556242196      H 
       -2.38296557765248        2.57313134726819       -1.25248598355556      H 
        0.99758655259965       -5.10231450885242       -3.01007730950273      O 
        0.85611618637215       -6.21468834710971       -4.43443553102712      H 
        3.93845052121643        2.40795303692696        0.48739864805193      O 
        5.64720532721763        2.95951115459458        0.72001070162363      H 
       -2.51900482305745        1.52169484654213        4.54397170169865      O 
       -4.33155747269203        1.47940886978103        4.64291549876228      H 
       -2.12886394525881        0.21236695641430        3.28633214232776      H 
       -1.06784682118020        4.48000620439442        0.69947518298280      O 
        0.72628457835178        4.12976853692150        0.62615706102538      H 
       -1.64937535292814        3.76350904169202        2.31154469377605      H 
        2.67147446189995       -0.57560977176224        4.17882800606697      O 
        1.57679477095258        0.28513772204346        5.35188380906430      H 
        1.51686724045871       -1.49346362192437        3.07430347953795      H 
        3.53333057595191        1.30055790290172        1.97219076590572      H 
        1.94153619414544       -0.25363368777574       -3.42012852981962      N 
        2.90152585348494        0.61307066966765       -1.92368553559445      H 
        1.89434641872101       -2.25678018254492       -3.20397929136773      H 
        0.03807950144810        0.32161510693732       -3.27133576563057      H 
        2.69054307959313        0.25909512751478       -5.11076278413744      H 
$end
 
 Bond Distances (Angstroems)
 ---------------------------
S1-O2=1.4701         S1-O3=1.4301         S1-O4=1.6207         S1-O5=1.4465         O2-S1=1.4701         O3-S1=1.4301         
O4-S1=1.6207         O4-H7=1.0040         O5-S1=1.4465         H6-O8=0.9993         H7-O4=1.0040         O8-H6=0.9993         
O8-H9=0.9593         H9-O8=0.9593         O10-H11=0.9581       O10-H21=1.0034       H11-O10=0.9581       O12-H13=0.9609       
O12-H14=0.9826       H13-O12=0.9609       H14-O12=0.9826       O15-H16=0.9681       O15-H17=0.9829       H16-O15=0.9681       
H17-O15=0.9829       O18-H19=0.9635       O18-H20=0.9751       H19-O18=0.9635       H20-O18=0.9751       H21-O10=1.0034       
N22-H23=1.0467       N22-H24=1.0665       N22-H25=1.0552       N22-H26=1.0154       H23-N22=1.0467       H24-N22=1.0665       
H25-N22=1.0552       H26-N22=1.0154       
 N  H  Rav=1.0459 sigma=0.0190  Rmin=1.0154  Rmax=1.0665     4
 O  H  Rav=0.9779 sigma=0.0170  Rmin=0.9581  Rmax=1.0040    11
 S  O  Rav=1.4918 sigma=0.0757  Rmin=1.4301  Rmax=1.6207     4
 
 selected bond angles (degree)
 --------------------
O3-S1-O2=112.87                O4-S1-O2=102.78                O4-S1-O3=107.73                O5-S1-O2=110.94                
O5-S1-O3=117.55                O5-S1-O4=103.35                H7-O4-S1=106.56                H9-O8-H6=105.44                
H21-O10-H11=106.20             
 
 selected dihedral angles (degree)
 ---------------------------------
H7-O4-S1-O2=303.39            H7-O4-S1-O3= 62.79            H7-O4-S1-O5=187.89            
 
 CMA Distance (Angstroems)
 ---------------------------
R(CMA):  2.4761

========================================================================
 FINAL SINGLEPOINT CALCULATION ON OPTIMIZED GEOMETRY
========================================================================

 Ncao       : 65
 Nao        : 64
 Nshell     : 38
 Nel        : 80
 T(el)      :   300.0
 intcut     :    25.0
 scfconv/Eh :  0.100E-05
   qconv/e  :  0.100E-03
 intneglect :  0.100E-07
 broydamp   :      0.250
 iter      E             dE          RMSdq      gap      omega  full diag
   1    -50.7432491 -0.507432E+02  0.346E-05    8.96       0.0  T
   2    -50.7432491 -0.788702E-12  0.214E-05    8.96     917.3  T
   3    -50.7432491 -0.376588E-12  0.419E-06    8.96    4684.5  T
speedup  0.74
cpu  time for SCC    0.00 s
wall time for SCC    0.00 s

   *** convergence criteria satisfied after 3 iterations ***

          eigenvalues
 #    :          28         29         30         31         32         33         34         35
 occ. :        2.000      2.000      2.000      2.000      2.000      2.000      2.000      2.000
 eps  :       -13.320    -12.893    -12.809    -12.356    -12.245    -12.230    -12.043    -11.899
 #    :          36         37         38         39         40         41         42         43
 occ. :        2.000      2.000      2.000      2.000      2.000      0.000      0.000      0.000
 eps  :       -11.863    -11.842    -11.523    -11.495    -11.297     -2.341     -1.314     -0.115
 #    :          44         45         46         47         48         49         50         51
 occ. :        0.000      0.000      0.000      0.000      0.000      0.000      0.000      0.000
 eps  :         0.487      1.363      2.005      2.154      2.485      3.026      4.577      5.024


   #   Z            q   n(s)   n(p)   n(d)      C6AA      α(0)
   1  16 S      1.647  1.593  1.800  0.960    89.977    15.965
   2   8 O     -0.786  1.771  5.016  0.000    31.172     7.486
   3   8 O     -0.703  1.764  4.939  0.000    28.784     7.193
   4   8 O     -0.656  1.778  4.879  0.000    26.544     6.955
   5   8 O     -0.721  1.768  4.953  0.000    29.294     7.257
   6   1 H      0.339  0.661  0.000  0.000     0.614     1.231
   7   1 H      0.374  0.626  0.000  0.000     0.534     1.147
   8   8 O     -0.610  1.745  4.865  0.000    25.430     6.806
   9   1 H      0.290  0.710  0.000  0.000     0.751     1.362
  10   8 O     -0.632  1.748  4.884  0.000    25.965     6.877
  11   1 H      0.286  0.714  0.000  0.000     0.765     1.374
  12   8 O     -0.630  1.746  4.884  0.000    25.915     6.871
  13   1 H      0.301  0.699  0.000  0.000     0.719     1.332
  14   1 H      0.321  0.679  0.000  0.000     0.662     1.279
  15   8 O     -0.627  1.763  4.863  0.000    25.836     6.860
  16   1 H      0.316  0.684  0.000  0.000     0.675     1.291
  17   1 H      0.329  0.671  0.000  0.000     0.639     1.256
  18   8 O     -0.599  1.747  4.852  0.000    25.166     6.771
  19   1 H      0.313  0.687  0.000  0.000     0.683     1.299
  20   1 H      0.337  0.663  0.000  0.000     0.620     1.237
  21   1 H      0.346  0.654  0.000  0.000     0.598     1.215
  22   7 N     -0.344  1.270  4.073  0.000    28.826     7.974
  23   1 H      0.292  0.708  0.000  0.000     0.738     1.346
  24   1 H      0.303  0.697  0.000  0.000     0.706     1.316
  25   1 H      0.286  0.714  0.000  0.000     0.756     1.362
  26   1 H      0.229  0.771  0.000  0.000     0.971     1.544

 Mol. C6AA /au·bohr⁶  :       5451.639590
 Mol. C8AA /au·bohr⁸  :     118111.738265
 Mol. α(0) /au        :        106.602509

 
 Wiberg/Mayer (AO) data. WBOs > 0.1 written file <wbo>
 largest (>0.05) Wiberg bond orders for each atom
           total WBO             WBO to atom ...
     1  S   4.878    O    3 1.424    O    5 1.341    O    2 1.247    O    4 0.838
     2  O   1.678    S    1 1.247    O    3 0.112    O    5 0.102    O    4 0.072    H   14 0.063
     3  O   1.748    S    1 1.424    O    5 0.114    O    2 0.112    O    4 0.079
     4  O   1.976    S    1 0.838    H    7 0.730    H   25 0.099    O    3 0.079    O    2 0.072    O    5 0.063
     5  O   1.757    S    1 1.341    O    3 0.114    O    2 0.102    H    6 0.091    O    4 0.063
     6  H   0.885    O    8 0.789    O    5 0.091
     7  H   0.860    O    4 0.730    O   15 0.115
     8  O   1.916    H    9 0.910    H    6 0.789    H   24 0.118    N   22 0.055
     9  H   0.916    O    8 0.910
    10  O   1.886    H   11 0.910    H   21 0.773    H   23 0.081
    11  H   0.918    O   10 0.910
    12  O   1.863    H   13 0.901    H   14 0.824    H   17 0.063
    13  H   0.910    O   12 0.901
    14  H   0.897    O   12 0.824    O    2 0.063
    15  O   1.908    H   16 0.873    H   17 0.826    H    7 0.115
    16  H   0.900    O   15 0.873
    17  H   0.891    O   15 0.826    O   12 0.063
    18  O   1.920    H   19 0.893    H   20 0.847    H   21 0.104
    19  H   0.902    O   18 0.893
    20  H   0.886    O   18 0.847
    21  H   0.880    O   10 0.773    O   18 0.104
    22  N   3.526    H   26 0.944    H   23 0.829    H   25 0.812    H   24 0.784    O    8 0.055
    23  H   0.915    N   22 0.829    O   10 0.081
    24  H   0.908    N   22 0.784    O    8 0.118
    25  H   0.918    N   22 0.812    O    4 0.099
    26  H   0.948    N   22 0.944
 MOs/occ written to file <molden.input>
 
molecular dipole:
                 x           y           z       tot (Debye)
 q only:        3.098       0.681      -1.374
   full:        2.730       0.529      -1.400       7.914
molecular quadrupole (traceless):
                xx          xy          yy          xz          yz          zz
 q only:       -7.704      -0.646      -3.808      -9.994       2.912      11.512
  q+dip:       -6.243       2.222      -5.589     -10.678       4.386      11.832
   full:       -6.106       2.369      -5.758     -10.901       4.611      11.865

SCC energy    :     -50.7432491
rep           :       0.2854546
ES            :       0.2743621
AES           :      -0.0733493
AXC           :      -0.0079961
disp          :      -0.0204137
XB            :       0.0000000
fix           :       0.0000000
total E       :     -50.4574570
atomizationE  :       4.9877611     3129.87
(atE without considering molecular charge,
 total energy contains solvation terms)
H-L gap (eV)  :          8.9560
optimized geometry written to: xtbopt.xyz


------------------------------------------------------------------------
 * finished run on 2019/09/16 at 12:08:26.018     
------------------------------------------------------------------------
 total:
 * wall-time:     0 d,  0 h,  0 min,  2.221 sec
 *  cpu-time:     0 d,  0 h,  0 min,  2.193 sec
 * ratio c/w:     0.987 speedup
 SCF:
 * wall-time:     0 d,  0 h,  0 min,  0.162 sec
 *  cpu-time:     0 d,  0 h,  0 min,  0.158 sec
 * ratio c/w:     0.976 speedup
 ANC optimizer:
 * wall-time:     0 d,  0 h,  0 min,  2.031 sec
 *  cpu-time:     0 d,  0 h,  0 min,  2.009 sec
 * ratio c/w:     0.989 speedup

