      -----------------------------------------------------------      
     |                   =====================                   |     
     |                           x T B                           |     
     |                   =====================                   |     
     |                         S. Grimme                         |     
     |          Mulliken Center for Theoretical Chemistry        |     
     |                    University of Bonn                     |     
     |                 Version 6.0.1 (SAW181210)                 |     
      -----------------------------------------------------------      

   This program is distributed in the hope that it will be useful,
   but WITHOUT ANY WARRANTY; without even the implied warranty of
   MERCHANTABILITY or FITNESS FOR A PARTICULAR PURPOSE.
   
   FOR NON-COMMERCIAL, ACADEMIA USE ONLY.
   
   Cite this work as:
   S. Grimme, C. Bannwarth, P. Shushkov, J. Comput. Theory Chem., 2017,
   13, 1989-2009.
   C. Bannwarth, S. Ehlert and S. Grimme., ChemRxiv, 2018, preprint.
   http://doi.org/10.26434/chemrxiv.7246238.v1
   
   for sTDA-xTB:
   S. Grimme and C. Bannwarth, J. Chem. Phys., 2016, 145, 054103.
   
   in the mass-spec context:
   V. Asgeirsson, C. Bauer and S. Grimme, Chem. Sci., 2017, 8, 4879.
   
   if GBSA is used:
   P. Shushkov, F. März and S. Grimme, unpublished.
   
   for ANC optimizer:
   S. Grimme, unpublished.
   Rational Function algorithm used in ANCopt:
   F. Eckert, P. Pulay, H.-J. Werner, J. Comput. Chem., 1997, 18, 1473.
   
   with help from (in alphabetical order)
   C. Bannwarth, F. Bohle, G. Brandenburg, E. Caldeweyher, M. Checinski,
   S. Dohm, S. Ehlert, S. Ehrlich, F. März, H. Neugebauer, J. Pisarek,
   P. Pracht, P. Shushkov, and S. Spicher.
   
 * started run on 2019/09/16 at 12:45:03.999     
========================================================================
 # omp threads = 1
========================================================================
number of atoms            : 26
number of electrons        : 80
charge                     : 0
spin                       : .0
first test random number   : .2070

########################################################################
# WARNING! Please study the warnings concerning your input carefully
#  - XTBPATH is not set, using XTBHOME instead
#  - the use of '-opt' is discouraged, please use '--opt' next time
#  - the use of '-chrg' is discouraged, please use '--chrg' next time
#  - the use of '-uhf' is discouraged, please use '--uhf' next time
########################################################################

           ------------------------------------------------- 
          |                 G F N 2 - x T B                 |
          | Geometry, Frequencies, Noncovalent interactions |
          |            JCTC 2018 parametrisation            |
           ------------------------------------------------- 
      method parameters     
 k(s)        :  1.8500
 k(p)        :  2.2300
 k(d)        :  2.2300
 k(f)        :  2.0000
 kEN (H0ij)  : -2.0000
 D4 a1       :  0.5200
 D4 a2       :  5.0000
 D4 s6       :  1.0000
 D4 s8       :  2.7000
 D4 s9       :  5.0000
 alphaj      :  2.0000


            Z     q(EN)     CN     RAES       Cart. coordinates
     1  S   6.0    0.59    4.30    4.23     4.01137     0.06501     2.73248
     2  O   6.0   -0.31    1.16    1.80     2.56454     2.35786     3.21306
     3  O   6.0   -0.27    1.09    1.80     5.69150    -1.04262     4.57313
     4  O   6.0   -0.25    2.07    1.83     2.02076    -2.05836     1.69607
     5  O   6.0   -0.23    2.07    1.83     5.65665     0.35220     0.18724
     6  H   1.0    0.17    1.25    1.48     4.65925     1.23042    -1.08566
     7  H   1.0    0.18    1.29    1.49     0.40582    -1.73664     2.51754
     8  O   6.0   -0.39    1.62    1.81     2.39326     2.12449    -2.74350
     9  H   1.0    0.17    0.95    1.42     3.26707     3.00670    -4.13702
    10  O   6.0   -0.40    1.60    1.81    -2.25785    -0.90383     2.99371
    11  H   1.0    0.18    0.95    1.42    -2.77346    -0.85028     4.78676
    12  O   6.0   -0.30    2.09    1.84    -4.78720     1.97225     0.38472
    13  H   1.0    0.15    0.97    1.43    -6.49951     1.35409     0.36282
    14  H   1.0    0.18    1.16    1.45    -3.87688     0.83011     1.47166
    15  O   6.0   -0.30    2.05    1.83    -3.38815    -3.76179    -0.50856
    16  H   1.0    0.18    1.15    1.45    -2.95796    -2.65986     0.87539
    17  H   1.0    0.15    0.97    1.43    -4.39021    -5.09134     0.22818
    18  O   6.0   -0.22    2.92    2.59    -0.55371     4.32921    -0.07608
    19  H   1.0    0.14    1.07    1.44    -2.28040     3.61691    -0.10834
    20  H   1.0    0.15    1.02    1.43     0.23121     4.18680     1.61319
    21  H   1.0    0.16    1.19    1.46     0.52866     3.59989    -1.41326
    22  N   5.0   -0.14    3.94    2.72     0.46705    -2.18425    -3.51270
    23  H   1.0    0.13    1.16    1.45     1.13467    -0.38191    -3.21224
    24  H   1.0    0.08    0.99    1.43    -0.03936    -2.38525    -5.38021
    25  H   1.0    0.09    0.99    1.43     1.85796    -3.47223    -3.07576
    26  H   1.0    0.11    1.06    1.44    -1.08508    -2.49762    -2.38260

  Z AO/shell   Hii/eV     exponent
  1     Wed Apr 25 08:07:45 CEST 2018   EN: 2.200 GM2: 0.406  GM3: 0.0800  RAES: 1.40
     1s    -10.707211    1.230000
  7     Wed Apr 25 08:07:45 CEST 2018   EN: 3.040 GM2: 0.461  GM3:-0.0640  RAES: 1.90
     2s    -16.686243    2.339881
     2p    -12.523956    2.014332
  8     Wed Apr 25 08:07:45 CEST 2018   EN: 3.440 GM2: 0.452  GM3:-0.0517  RAES: 1.80
     2s    -20.229985    2.439742
     2p    -15.503117    2.137023
 16     Tue Apr 24 11:44:34 CEST 2018   EN: 2.580 GM2: 0.340  GM3:-0.0502  RAES: 3.10
     3s    -20.029654    1.981333
     3p    -11.377694    2.025643
     3d     -0.420282    1.702555
 no old-style atom pair restraining (fixing) potential

molecular fragmentation (1/2 indicates fragments):
11111112222222222222222222
# atoms in fragment 1/2:     7    19
 fragment masses (1/2) :       98.07      107.11
CMA distance (Bohr)    :   6.154
constraining FC (au)   :  0.0500
           ------------------------------------------------- 
          |        Self-Consistent Charge Iterations        |
           ------------------------------------------------- 

 Ncao       : 65
 Nao        : 64
 Nshell     : 38
 Nel        : 80
 T(el)      :   300.0
 intcut     :    25.0
 scfconv/Eh :  0.100E-05
   qconv/e  :  0.100E-03
 intneglect :  0.100E-07
 broydamp   :      0.250
 iter      E             dE          RMSdq      gap      omega  full diag
   1    -50.5405118 -0.505405E+02  0.707E+00    8.23       0.0  T
   2    -50.5902508 -0.497390E-01  0.499E+00    7.29       1.0  T
   3    -50.6302438 -0.399930E-01  0.117E+00    5.04       1.0  T
   4    -50.6339208 -0.367696E-02  0.658E-01    5.20       1.0  T
   5    -50.6353959 -0.147512E-02  0.259E-01    5.25       1.0  T
   6    -50.6357030 -0.307091E-03  0.160E-01    5.28       1.0  T
   7    -50.6358683 -0.165334E-03  0.426E-02    5.28       1.0  T
   8    -50.6358772 -0.885515E-05  0.243E-02    5.28       1.0  T
   9    -50.6358804 -0.322883E-05  0.921E-03    5.29       2.1  T
  10    -50.6358808 -0.370005E-06  0.269E-03    5.29       7.3  T
  11    -50.6358808 -0.233763E-07  0.121E-03    5.29      16.2  T
  12    -50.6358808 -0.630422E-08  0.379E-04    5.29      51.7  T
  13    -50.6358808 -0.494808E-09  0.190E-04    5.29     103.0  T
speedup  1.01
cpu  time for SCC    0.01 s
wall time for SCC    0.01 s

   *** convergence criteria satisfied after 13 iterations ***

          eigenvalues
 #    :          28         29         30         31         32         33         34         35
 occ. :        2.000      2.000      2.000      2.000      2.000      2.000      2.000      2.000
 eps  :       -12.822    -12.317    -12.046    -11.982    -11.886    -11.783    -11.610    -11.560
 #    :          36         37         38         39         40         41         42         43
 occ. :        2.000      2.000      2.000      2.000      2.000      0.000      0.000      0.000
 eps  :       -11.497    -10.877    -10.667     -9.434     -9.344     -4.057     -1.391     -1.193
 #    :          44         45         46         47         48         49         50         51
 occ. :        0.000      0.000      0.000      0.000      0.000      0.000      0.000      0.000
 eps  :        -0.239      0.068      1.402      1.800      2.671      3.173      3.857      4.167


   #   Z            q   n(s)   n(p)   n(d)      C6AA      α(0)
   1  16 S      1.622  1.634  1.814  0.931    90.564    16.017
   2   8 O     -0.680  1.763  4.917  0.000    28.169     7.116
   3   8 O     -0.631  1.772  4.860  0.000    26.901     6.954
   4   8 O     -0.632  1.766  4.866  0.000    25.931     6.874
   5   8 O     -0.608  1.761  4.847  0.000    25.357     6.798
   6   1 H      0.375  0.625  0.000  0.000     0.531     1.143
   7   1 H      0.382  0.618  0.000  0.000     0.515     1.125
   8   8 O     -0.854  1.834  5.021  0.000    33.262     7.733
   9   1 H      0.211  0.789  0.000  0.000     1.063     1.620
  10   8 O     -0.888  1.844  5.044  0.000    34.380     7.862
  11   1 H      0.196  0.804  0.000  0.000     1.141     1.678
  12   8 O     -0.669  1.742  4.927  0.000    26.896     7.000
  13   1 H      0.276  0.724  0.000  0.000     0.796     1.402
  14   1 H      0.344  0.656  0.000  0.000     0.599     1.214
  15   8 O     -0.659  1.741  4.918  0.000    26.639     6.966
  16   1 H      0.346  0.654  0.000  0.000     0.595     1.210
  17   1 H      0.270  0.730  0.000  0.000     0.818     1.421
  18   8 O     -0.446  1.653  4.793  0.000    21.704     6.292
  19   1 H      0.412  0.588  0.000  0.000     0.463     1.069
  20   1 H      0.402  0.598  0.000  0.000     0.481     1.090
  21   1 H      0.402  0.598  0.000  0.000     0.475     1.080
  22   7 N     -0.296  1.256  4.039  0.000    27.599     7.803
  23   1 H      0.319  0.681  0.000  0.000     0.657     1.269
  24   1 H      0.233  0.767  0.000  0.000     0.952     1.528
  25   1 H      0.257  0.743  0.000  0.000     0.858     1.451
  26   1 H      0.317  0.683  0.000  0.000     0.666     1.278

 Mol. C6AA /au·bohr⁶  :       5500.569246
 Mol. C8AA /au·bohr⁸  :     119169.774824
 Mol. α(0) /au        :        106.992770

 
 Wiberg/Mayer (AO) data. WBOs > 0.1 written file <wbo>
 largest (>0.05) Wiberg bond orders for each atom
           total WBO             WBO to atom ...
     1  S   4.786    O    3 1.479    O    2 1.371    O    5 0.967    O    4 0.937
     2  O   1.761    S    1 1.371    O    3 0.132    O    4 0.100    O    5 0.095
     3  O   1.810    S    1 1.479    O    2 0.132    O    4 0.100    O    5 0.083
     4  O   1.939    S    1 0.937    H    7 0.681    O    2 0.100    O    3 0.100    O    5 0.060
     5  O   1.975    S    1 0.967    H    6 0.715    O    2 0.095    O    3 0.083    O    4 0.060
     6  H   0.860    O    5 0.715    O    8 0.129
     7  H   0.854    O    4 0.681    O   10 0.156
     8  O   1.614    H    9 0.947    H   21 0.191    H   23 0.158    H    6 0.129    N   22 0.067    O   18 0.061
     9  H   0.955    O    8 0.947
    10  O   1.519    H   11 0.946    H    7 0.156    H   14 0.136    H   16 0.118    O   12 0.054
    11  H   0.962    O   10 0.946
    12  O   1.810    H   13 0.905    H   14 0.741    H   19 0.077    O   10 0.054
    13  H   0.924    O   12 0.905
    14  H   0.882    O   12 0.741    O   10 0.136
    15  O   1.812    H   17 0.913    H   16 0.757    H   26 0.060
    16  H   0.880    O   15 0.757    O   10 0.118
    17  H   0.927    O   15 0.913
    18  O   2.296    H   20 0.785    H   19 0.744    H   21 0.644    O    8 0.061
    19  H   0.830    O   18 0.744    O   12 0.077
    20  H   0.838    O   18 0.785
    21  H   0.838    O   18 0.644    O    8 0.191
    22  N   3.547    H   24 0.942    H   25 0.929    H   26 0.832    H   23 0.735    O    8 0.067
    23  H   0.898    N   22 0.735    O    8 0.158
    24  H   0.946    N   22 0.942
    25  H   0.934    N   22 0.929
    26  H   0.900    N   22 0.832    O   15 0.060
 MOs/occ written to file <molden.input>
 
molecular dipole:
                 x           y           z       tot (Debye)
 q only:       -1.484       0.001      -3.191
   full:       -1.772      -0.319      -2.843       8.553
molecular quadrupole (traceless):
                xx          xy          yy          xz          yz          zz
 q only:      -14.633       1.627      10.830     -11.169       9.248       3.803
  q+dip:      -13.426       5.327       7.396     -16.097       7.623       6.030
   full:      -13.314       5.707       6.938     -16.351       7.412       6.376

SCC energy    :     -50.6358808
rep           :       0.2772777
ES            :       0.3268508
AES           :      -0.0654759
AXC           :      -0.0049386
disp          :      -0.0193297
XB            :       0.0000000
fix           :       0.0000000
total E       :     -50.3582069
atomizationE  :       4.8885111     3067.59
(atE without considering molecular charge,
 total energy contains solvation terms)
H-L gap (eV)  :          5.2873
           ------------------------------------------------- 
          |                 ===============                 |
          |                   A N C O P T                   |
          |                 ===============                 |
          |          Approximate Normal Coordinate          |
          |           Rational Function Optimizer           |
           ------------------------------------------------- 
dumping coords to <xtbopt.coord> and <xtbopt.log>
 optlevel               2
 Maxcycle             520
 Maxmicro              25
 Econv         1.000000000000000E-007
 Gconv         2.000000000000000E-004
 Maxdispl       1.00000000000000     
 Hlow          5.000000000000000E-003
 S6             20.0000000000000     
 Nvar               72

generating ANC from model Hessian ...
 Shifting diagonal of input Hessian by   6.134862065009121E-003
 Lowest  eigenvalues of input Hessian
    0.005000   -0.000000   -0.000000    0.000000    0.000000    0.000000
    0.000000    0.006286    0.006710    0.007061    0.007147    0.007584
    0.008106    0.008510    0.008885    0.009380    0.009854    0.010298
 Highest eigenvalues
    1.457546    1.566764    1.587214    1.954349    2.771947    3.592333
 
cpu  time for ANC gen    0.02 s
wall time for ANC gen    0.02 s
................................................................................
.............................. CYCLE    1 ......................................
................................................................................
   1    -50.6358808 -0.506359E+02  0.509E-05    5.29       0.0  T
   2    -50.6358808 -0.559197E-11  0.399E-05    5.29     491.8  T
   3    -50.6358808 -0.521538E-11  0.160E-05    5.29    1224.4  T
speedup  1.00
cpu  time for SCC    0.00 s
wall time for SCC    0.00 s
speedup  1.02
cpu  time for grad    0.01 s
wall time for grad    0.01 s
 E :    -50.35820686  G :  0.190679    pred/act E change:  0.000D+00  0.354D-07
Maxdispl :   0.0940   ||displ|| :   0.2853   Lambda : -0.339D-01
Largest |displ|/coords:  0.0940 (  21)  0.0777 (  22)  0.0695 (  55)
................................................................................
.............................. CYCLE    2 ......................................
................................................................................
   1    -50.6471881 -0.506472E+02  0.313E-01    6.04       0.0  T
   2    -50.6473753 -0.187169E-03  0.229E-01    6.09       1.0  T
   3    -50.6474684 -0.931385E-04  0.697E-02    6.18       1.0  T
   4    -50.6474820 -0.136157E-04  0.246E-02    6.20       1.0  T
   5    -50.6474832 -0.115437E-05  0.694E-03    6.19       2.8  T
   6    -50.6474833 -0.104923E-06  0.350E-03    6.19       5.6  T
   7    -50.6474833 -0.191873E-07  0.158E-03    6.19      12.4  T
speedup  1.09
cpu  time for SCC    0.01 s
wall time for SCC    0.01 s
speedup  1.03
cpu  time for grad    0.01 s
wall time for grad    0.01 s
 E :    -50.38397285  G :  0.100280    pred/act E change:  0.000D+00 -0.258D-01
Maxdispl :   0.1144   ||displ|| :   0.3271   Lambda : -0.142D-01
Largest |displ|/coords:  0.1144 (  21)  0.0981 (   6)  0.0935 (   4)
................................................................................
.............................. CYCLE    3 ......................................
................................................................................
   1    -50.6531122 -0.506531E+02  0.288E-01    6.77       0.0  T
   2    -50.6532967 -0.184469E-03  0.209E-01    6.84       1.0  T
   3    -50.6533761 -0.793777E-04  0.639E-02    6.99       1.0  T
   4    -50.6533890 -0.129901E-04  0.172E-02    6.99       1.1  T
   5    -50.6533898 -0.721505E-06  0.507E-03    6.98       3.9  T
   6    -50.6533898 -0.390855E-07  0.310E-03    6.98       6.3  T
speedup  0.91
cpu  time for SCC    0.00 s
wall time for SCC    0.01 s
speedup  0.96
cpu  time for grad    0.01 s
wall time for grad    0.01 s
 E :    -50.39564779  G :  0.065481    pred/act E change: -0.183D-01 -0.117D-01
Maxdispl :   0.1217   ||displ|| :   0.3617   Lambda : -0.806D-02
Largest |displ|/coords:  0.1217 (   4)  0.1155 (   6)  0.1081 (  12)
................................................................................
.............................. CYCLE    4 ......................................
................................................................................
   1    -50.6541926 -0.506542E+02  0.298E-01    7.37       0.0  T
   2    -50.6543679 -0.175289E-03  0.217E-01    7.45       1.0  T
   3    -50.6544416 -0.737063E-04  0.643E-02    7.61       1.0  T
   4    -50.6544561 -0.145224E-04  0.140E-02    7.60       1.4  T
   5    -50.6544567 -0.568215E-06  0.494E-03    7.59       4.0  T
   6    -50.6544567 -0.244368E-07  0.299E-03    7.59       6.5  T
speedup  1.03
cpu  time for SCC    0.01 s
wall time for SCC    0.01 s
speedup  1.01
cpu  time for grad    0.01 s
wall time for grad    0.01 s
 E :    -50.40241668  G :  0.050197    pred/act E change: -0.784D-02 -0.677D-02
Maxdispl :   0.1570   ||displ|| :   0.3728   Lambda : -0.521D-02
Largest |displ|/coords:  0.1570 (   6)  0.1517 (   4)  0.0993 (   7)
................................................................................
.............................. CYCLE    5 ......................................
................................................................................
   1    -50.6554518 -0.506555E+02  0.275E-01    7.83       0.0  T
   2    -50.6555695 -0.117644E-03  0.203E-01    7.90       1.0  T
   3    -50.6556191 -0.495657E-04  0.545E-02    8.05       1.0  T
   4    -50.6556316 -0.125203E-04  0.121E-02    8.03       1.6  T
   5    -50.6556319 -0.355756E-06  0.466E-03    8.03       4.2  T
   6    -50.6556319 -0.208503E-07  0.273E-03    8.03       7.2  T
speedup  1.11
cpu  time for SCC    0.01 s
wall time for SCC    0.01 s
speedup  1.04
cpu  time for grad    0.01 s
wall time for grad    0.01 s
 E :    -50.40662139  G :  0.043446    pred/act E change: -0.456D-02 -0.420D-02
Maxdispl :   0.3415   ||displ|| :   0.7142   Lambda : -0.106D-01
Largest |displ|/coords:  0.3415 (   1)  0.1944 (   7)  0.1866 (  12)
................................................................................
.............................. CYCLE    6 ......................................
................................................................................
   1    -50.6505576 -0.506506E+02  0.622E-01    8.46       0.0  T
   2    -50.6515051 -0.947491E-03  0.450E-01    8.63       1.0  T
   3    -50.6519278 -0.422750E-03  0.149E-01    8.84       1.0  T
   4    -50.6519912 -0.633132E-04  0.345E-02    8.83       1.0  T
   5    -50.6519946 -0.341429E-05  0.129E-02    8.82       1.5  T
   6    -50.6519948 -0.212844E-06  0.829E-03    8.82       2.4  T
   7    -50.6519949 -0.799616E-07  0.207E-03    8.82       9.5  T
   8    -50.6519949 -0.866991E-08  0.593E-04    8.82      33.1  T
speedup  0.97
cpu  time for SCC    0.01 s
wall time for SCC    0.01 s
speedup  0.99
cpu  time for grad    0.01 s
wall time for grad    0.02 s
 E :    -50.41016962  G :  0.061298    pred/act E change: -0.297D-02 -0.355D-02
Maxdispl :   0.1590   ||displ|| :   0.4254   Lambda : -0.121D-01
Largest |displ|/coords:  0.1590 (   1)  0.1481 (  15)  0.1448 (   6)
................................................................................
.............................. CYCLE    7 ......................................
................................................................................
   1    -50.6660115 -0.506660E+02  0.550E-01    8.78       0.0  T
   2    -50.6662235 -0.212040E-03  0.412E-01    8.78       1.0  T
   3    -50.6663460 -0.122457E-03  0.809E-02    8.77       1.0  T
   4    -50.6663755 -0.295165E-04  0.155E-02    8.77       1.3  T
   5    -50.6663761 -0.579958E-06  0.723E-03    8.77       2.7  T
   6    -50.6663761 -0.318137E-07  0.328E-03    8.77       6.0  T
   7    -50.6663761 -0.197240E-07  0.818E-04    8.77      24.0  T
speedup  0.95
cpu  time for SCC    0.01 s
wall time for SCC    0.01 s
speedup  1.02
cpu  time for grad    0.01 s
wall time for grad    0.01 s
 E :    -50.41268125  G :  0.060238    pred/act E change: -0.802D-02 -0.251D-02
Maxdispl :   0.1547   ||displ|| :   0.4096   Lambda : -0.784D-02
Largest |displ|/coords:  0.1547 (  12)  0.1222 (  11)  0.1159 (  21)
................................................................................
.............................. CYCLE    8 ......................................
................................................................................
   1    -50.6582859 -0.506583E+02  0.465E-01    8.79       0.0  T
   2    -50.6585622 -0.276313E-03  0.341E-01    8.80       1.0  T
   3    -50.6587054 -0.143183E-03  0.897E-02    8.80       1.0  T
   4    -50.6587330 -0.276419E-04  0.213E-02    8.80       1.0  T
   5    -50.6587342 -0.115239E-05  0.796E-03    8.80       2.5  T
   6    -50.6587343 -0.894700E-07  0.509E-03    8.80       3.9  T
   7    -50.6587343 -0.296103E-07  0.114E-03    8.80      17.1  T
speedup  0.79
cpu  time for SCC    0.00 s
wall time for SCC    0.01 s
speedup  0.97
cpu  time for grad    0.01 s
wall time for grad    0.01 s
 E :    -50.41635554  G :  0.057386    pred/act E change: -0.717D-02 -0.367D-02
Maxdispl :   0.1760   ||displ|| :   0.3975   Lambda : -0.645D-02
Largest |displ|/coords:  0.1760 (   3)  0.1640 (   7)  0.1239 (   6)
................................................................................
.............................. CYCLE    9 ......................................
................................................................................
   1    -50.6716438 -0.506716E+02  0.356E-01    8.81       0.0  T
   2    -50.6717793 -0.135502E-03  0.264E-01    8.81       1.0  T
   3    -50.6718577 -0.783887E-04  0.639E-02    8.81       1.0  T
   4    -50.6718727 -0.149426E-04  0.205E-02    8.80       1.0  T
   5    -50.6718735 -0.816908E-06  0.688E-03    8.80       2.8  T
   6    -50.6718735 -0.359014E-07  0.378E-03    8.80       5.2  T
   7    -50.6718735 -0.310528E-07  0.863E-04    8.80      22.7  T
speedup  1.13
cpu  time for SCC    0.01 s
wall time for SCC    0.01 s
speedup  1.04
cpu  time for grad    0.01 s
wall time for grad    0.01 s
 E :    -50.41831027  G :  0.058563    pred/act E change: -0.458D-02 -0.195D-02
Maxdispl :   0.1928   ||displ|| :   0.3374   Lambda : -0.602D-02
Largest |displ|/coords:  0.1928 (   6)  0.1226 (  10)  0.1040 (   8)
................................................................................
.............................. CYCLE   10 ......................................
................................................................................
   1    -50.6684099 -0.506684E+02  0.322E-01    8.77       0.0  T
   2    -50.6684919 -0.819422E-04  0.238E-01    8.76       1.0  T
   3    -50.6685414 -0.495126E-04  0.506E-02    8.73       1.0  T
   4    -50.6685510 -0.957658E-05  0.133E-02    8.73       1.5  T
   5    -50.6685512 -0.291874E-06  0.554E-03    8.73       3.5  T
   6    -50.6685513 -0.487922E-07  0.320E-03    8.73       6.1  T
speedup  0.93
cpu  time for SCC    0.00 s
wall time for SCC    0.01 s
speedup  0.97
cpu  time for grad    0.01 s
wall time for grad    0.01 s
 E :    -50.42150164  G :  0.046439    pred/act E change: -0.373D-02 -0.319D-02
Maxdispl :   0.2553   ||displ|| :   0.4533   Lambda : -0.544D-02
Largest |displ|/coords:  0.2553 (   5)  0.1565 (   4)  0.1560 (   2)
................................................................................
.............................. CYCLE   11 ......................................
................................................................................
   1    -50.6854383 -0.506854E+02  0.470E-01    8.75       0.0  T
   2    -50.6856333 -0.194950E-03  0.353E-01    8.73       1.0  T
   3    -50.6857598 -0.126594E-03  0.787E-02    8.67       1.0  T
   4    -50.6857839 -0.240533E-04  0.200E-02    8.67       1.0  T
   5    -50.6857846 -0.691330E-06  0.844E-03    8.67       2.3  T
   6    -50.6857846 -0.529483E-07  0.455E-03    8.67       4.3  T
   7    -50.6857847 -0.320801E-07  0.104E-03    8.68      18.9  T
speedup  0.95
cpu  time for SCC    0.01 s
wall time for SCC    0.01 s
speedup  0.97
cpu  time for grad    0.01 s
wall time for grad    0.01 s
 E :    -50.42096873  G :  0.097732    pred/act E change: -0.335D-02  0.533D-03
Maxdispl :   0.2054   ||displ|| :   0.4372   Lambda : -0.140D-01
Largest |displ|/coords:  0.2054 (   3)  0.1762 (   7)  0.1465 (   8)
................................................................................
.............................. CYCLE   12 ......................................
................................................................................
   1    -50.6713151 -0.506713E+02  0.648E-01    8.63       0.0  T
   2    -50.6716636 -0.348440E-03  0.480E-01    8.64       1.0  T
   3    -50.6718362 -0.172620E-03  0.105E-01    8.65       1.0  T
   4    -50.6718788 -0.425959E-04  0.222E-02    8.64       1.0  T
   5    -50.6718799 -0.110379E-05  0.839E-03    8.64       2.3  T
   6    -50.6718801 -0.200471E-06  0.507E-03    8.64       3.9  T
   7    -50.6718801 -0.400161E-07  0.853E-04    8.64      23.0  T
speedup  0.92
cpu  time for SCC    0.01 s
wall time for SCC    0.01 s
speedup  1.03
cpu  time for grad    0.01 s
wall time for grad    0.01 s
 E :    -50.42379242  G :  0.067119    pred/act E change: -0.328D-02 -0.282D-02
Maxdispl :   0.1914   ||displ|| :   0.4351   Lambda : -0.136D-01
Largest |displ|/coords:  0.1914 (   5)  0.1463 (   3)  0.1351 (   2)
................................................................................
.............................. CYCLE   13 ......................................
................................................................................
   1    -50.6942723 -0.506943E+02  0.628E-01    8.71       0.0  T
   2    -50.6945638 -0.291465E-03  0.471E-01    8.70       1.0  T
   3    -50.6947544 -0.190608E-03  0.966E-02    8.66       1.0  T
   4    -50.6947916 -0.372071E-04  0.180E-02    8.66       1.1  T
   5    -50.6947921 -0.572642E-06  0.996E-03    8.66       2.0  T
   6    -50.6947922 -0.615707E-07  0.429E-03    8.66       4.6  T
   7    -50.6947923 -0.405839E-07  0.894E-04    8.66      21.9  T
speedup  1.09
cpu  time for SCC    0.01 s
wall time for SCC    0.01 s
speedup  1.03
cpu  time for grad    0.01 s
wall time for grad    0.01 s
 E :    -50.42614908  G :  0.061725    pred/act E change: -0.835D-02 -0.236D-02
Maxdispl :   0.1262   ||displ|| :   0.2570   Lambda : -0.484D-02
Largest |displ|/coords:  0.1262 (   7)  0.0902 (   4)  0.0834 (  14)
................................................................................
.............................. CYCLE   14 ......................................
................................................................................
   1    -50.6892697 -0.506893E+02  0.291E-01    8.63       0.0  T
   2    -50.6893337 -0.639313E-04  0.218E-01    8.62       1.0  T
   3    -50.6893722 -0.385203E-04  0.457E-02    8.60       1.0  T
   4    -50.6893803 -0.809823E-05  0.104E-02    8.60       1.9  T
   5    -50.6893806 -0.287189E-06  0.409E-03    8.60       4.8  T
   6    -50.6893806 -0.154123E-07  0.254E-03    8.60       7.7  T
speedup  1.11
cpu  time for SCC    0.01 s
wall time for SCC    0.01 s
speedup  1.04
cpu  time for grad    0.01 s
wall time for grad    0.01 s
 E :    -50.42922508  G :  0.028626    pred/act E change: -0.811D-02 -0.308D-02
Maxdispl :   0.1409   ||displ|| :   0.2854   Lambda : -0.311D-02
Largest |displ|/coords:  0.1409 (   4)  0.0800 (  23)  0.0773 (  14)
................................................................................
.............................. CYCLE   15 ......................................
................................................................................
   1    -50.6899371 -0.506899E+02  0.257E-01    8.57       0.0  T
   2    -50.6899882 -0.511077E-04  0.191E-01    8.58       1.0  T
   3    -50.6900175 -0.293226E-04  0.399E-02    8.58       1.0  T
   4    -50.6900240 -0.646488E-05  0.103E-02    8.58       1.9  T
   5    -50.6900242 -0.177898E-06  0.351E-03    8.58       5.6  T
   6    -50.6900242 -0.148004E-07  0.189E-03    8.58      10.4  T
speedup  1.09
cpu  time for SCC    0.01 s
wall time for SCC    0.01 s
speedup  1.03
cpu  time for grad    0.01 s
wall time for grad    0.01 s
 E :    -50.43034530  G :  0.042282    pred/act E change: -0.258D-02 -0.112D-02
Maxdispl :   0.2006   ||displ|| :   0.3472   Lambda : -0.343D-02
Largest |displ|/coords:  0.2006 (   4)  0.0898 (  12)  0.0890 (  10)
................................................................................
.............................. CYCLE   16 ......................................
................................................................................
   1    -50.6969853 -0.506970E+02  0.210E-01    8.56       0.0  T
   2    -50.6970487 -0.633823E-04  0.156E-01    8.55       1.0  T
   3    -50.6970876 -0.389429E-04  0.428E-02    8.50       1.0  T
   4    -50.6970949 -0.729697E-05  0.105E-02    8.50       1.9  T
   5    -50.6970951 -0.167036E-06  0.435E-03    8.50       4.5  T
   6    -50.6970951 -0.173260E-07  0.206E-03    8.50       9.5  T
speedup  0.91
cpu  time for SCC    0.00 s
wall time for SCC    0.01 s
speedup  0.96
cpu  time for grad    0.01 s
wall time for grad    0.01 s
 E :    -50.43300774  G :  0.034987    pred/act E change: -0.168D-02 -0.266D-02
Maxdispl :   0.1755   ||displ|| :   0.4980   Lambda : -0.583D-02
Largest |displ|/coords:  0.1755 (   5)  0.1631 (   4)  0.1490 (  17)
................................................................................
.............................. CYCLE   17 ......................................
................................................................................
   1    -50.7191126 -0.507191E+02  0.409E-01    8.69       0.0  T
   2    -50.7192641 -0.151457E-03  0.305E-01    8.68       1.0  T
   3    -50.7193573 -0.932323E-04  0.704E-02    8.63       1.0  T
   4    -50.7193763 -0.190277E-04  0.176E-02    8.63       1.1  T
   5    -50.7193768 -0.469255E-06  0.684E-03    8.63       2.9  T
   6    -50.7193769 -0.449829E-07  0.353E-03    8.63       5.6  T
   7    -50.7193769 -0.160030E-07  0.898E-04    8.64      21.8  T
speedup  0.97
cpu  time for SCC    0.01 s
wall time for SCC    0.01 s
speedup  0.99
cpu  time for grad    0.01 s
wall time for grad    0.01 s
 E :    -50.43482883  G :  0.047312    pred/act E change: -0.192D-02 -0.182D-02
Maxdispl :   0.2543   ||displ|| :   0.4785   Lambda : -0.530D-02
Largest |displ|/coords:  0.2543 (   4)  0.2179 (  10)  0.1601 (  12)
................................................................................
.............................. CYCLE   18 ......................................
................................................................................
   1    -50.7140335 -0.507140E+02  0.269E-01    8.24       0.0  T
   2    -50.7140841 -0.506306E-04  0.199E-01    8.25       1.0  T
   3    -50.7141162 -0.320194E-04  0.369E-02    8.28       1.0  T
   4    -50.7141223 -0.610831E-05  0.941E-03    8.28       2.1  T
   5    -50.7141224 -0.156213E-06  0.436E-03    8.28       4.5  T
   6    -50.7141225 -0.250030E-07  0.197E-03    8.28       9.9  T
speedup  0.91
cpu  time for SCC    0.01 s
wall time for SCC    0.01 s
speedup  0.96
cpu  time for grad    0.01 s
wall time for grad    0.01 s
 E :    -50.43680547  G :  0.050542    pred/act E change: -0.364D-02 -0.198D-02
Maxdispl :   0.1409   ||displ|| :   0.2503   Lambda : -0.453D-02
Largest |displ|/coords:  0.1409 (  10)  0.0903 (   2)  0.0886 (   7)
................................................................................
.............................. CYCLE   19 ......................................
................................................................................
   1    -50.7291810 -0.507292E+02  0.185E-01    8.71       0.0  T
   2    -50.7292053 -0.242910E-04  0.137E-01    8.70       1.0  T
   3    -50.7292202 -0.149105E-04  0.297E-02    8.66       1.0  T
   4    -50.7292226 -0.233739E-05  0.935E-03    8.67       2.1  T
   5    -50.7292227 -0.126117E-06  0.258E-03    8.67       7.6  T
   6    -50.7292227 -0.858638E-08  0.152E-03    8.67      12.9  T
speedup  0.93
cpu  time for SCC    0.00 s
wall time for SCC    0.01 s
speedup  0.97
cpu  time for grad    0.01 s
wall time for grad    0.01 s
 E :    -50.43779120  G :  0.036257    pred/act E change: -0.326D-02 -0.986D-03
Maxdispl :   0.1216   ||displ|| :   0.2251   Lambda : -0.330D-02
Largest |displ|/coords:  0.1216 (   4)  0.0694 (  12)  0.0597 (  16)
................................................................................
.............................. CYCLE   20 ......................................
................................................................................
   1    -50.7175055 -0.507175E+02  0.158E-01    8.56       0.0  T
   2    -50.7175288 -0.233479E-04  0.116E-01    8.57       1.0  T
   3    -50.7175425 -0.137140E-04  0.274E-02    8.58       1.0  T
   4    -50.7175448 -0.221409E-05  0.782E-03    8.59       2.5  T
   5    -50.7175449 -0.123022E-06  0.272E-03    8.59       7.2  T
   6    -50.7175449 -0.884341E-08  0.157E-03    8.59      12.5  T
speedup  0.91
cpu  time for SCC    0.01 s
wall time for SCC    0.01 s
speedup  0.96
cpu  time for grad    0.01 s
wall time for grad    0.01 s
 E :    -50.43929710  G :  0.027052    pred/act E change: -0.241D-02 -0.151D-02
Maxdispl :   0.1292   ||displ|| :   0.3584   Lambda : -0.295D-02
Largest |displ|/coords:  0.1292 (  12)  0.1176 (   8)  0.1155 (  14)
................................................................................
.............................. CYCLE   21 ......................................
................................................................................
   1    -50.7195205 -0.507195E+02  0.229E-01    8.37       0.0  T
   2    -50.7195865 -0.659455E-04  0.170E-01    8.39       1.0  T
   3    -50.7196199 -0.334073E-04  0.425E-02    8.42       1.0  T
   4    -50.7196280 -0.810504E-05  0.109E-02    8.41       1.8  T
   5    -50.7196283 -0.303597E-06  0.408E-03    8.41       4.8  T
   6    -50.7196283 -0.140029E-07  0.211E-03    8.41       9.3  T
speedup  0.93
cpu  time for SCC    0.00 s
wall time for SCC    0.01 s
speedup  0.97
cpu  time for grad    0.01 s
wall time for grad    0.01 s
 E :    -50.44077704  G :  0.031023    pred/act E change: -0.174D-02 -0.148D-02
Maxdispl :   0.1084   ||displ|| :   0.2557   Lambda : -0.221D-02
Largest |displ|/coords:  0.1084 (   8)  0.0957 (  16)  0.0919 (   2)
................................................................................
.............................. CYCLE   22 ......................................
................................................................................
   1    -50.7248037 -0.507248E+02  0.158E-01    8.45       0.0  T
   2    -50.7248150 -0.113493E-04  0.115E-01    8.46       1.0  T
   3    -50.7248222 -0.715667E-05  0.237E-02    8.47       1.0  T
   4    -50.7248233 -0.110083E-05  0.700E-03    8.47       2.8  T
   5    -50.7248233 -0.829045E-07  0.212E-03    8.47       9.3  T
   6    -50.7248233 -0.560338E-08  0.127E-03    8.47      15.4  T
speedup  1.11
cpu  time for SCC    0.01 s
wall time for SCC    0.01 s
speedup  0.98
cpu  time for grad    0.01 s
wall time for grad    0.01 s
 E :    -50.44243097  G :  0.027360    pred/act E change: -0.166D-02 -0.165D-02
Maxdispl :   0.2476   ||displ|| :   0.5331   Lambda : -0.419D-02
Largest |displ|/coords:  0.2476 (  16)  0.2206 (   8)  0.1824 (   2)
................................................................................
.............................. CYCLE   23 ......................................
................................................................................
   1    -50.7322806 -0.507323E+02  0.331E-01    8.69       0.0  T
   2    -50.7323367 -0.560900E-04  0.240E-01    8.69       1.0  T
   3    -50.7323646 -0.278910E-04  0.521E-02    8.69       1.0  T
   4    -50.7323709 -0.626951E-05  0.153E-02    8.70       1.3  T
   5    -50.7323712 -0.295202E-06  0.405E-03    8.70       4.8  T
   6    -50.7323712 -0.193783E-07  0.240E-03    8.70       8.2  T
speedup  1.09
cpu  time for SCC    0.01 s
wall time for SCC    0.01 s
speedup  1.04
cpu  time for grad    0.01 s
wall time for grad    0.01 s
 E :    -50.44482789  G :  0.022563    pred/act E change: -0.118D-02 -0.240D-02
Maxdispl :   0.2273   ||displ|| :   0.4246   Lambda : -0.219D-02
Largest |displ|/coords:  0.2273 (   8)  0.1533 (  12)  0.1148 (   9)
................................................................................
.............................. CYCLE   24 ......................................
................................................................................
   1    -50.7328691 -0.507329E+02  0.239E-01    8.69       0.0  T
   2    -50.7329271 -0.580025E-04  0.176E-01    8.71       1.0  T
   3    -50.7329490 -0.218928E-04  0.510E-02    8.75       1.0  T
   4    -50.7329556 -0.660745E-05  0.136E-02    8.75       1.4  T
   5    -50.7329559 -0.252957E-06  0.384E-03    8.75       5.1  T
   6    -50.7329559 -0.256525E-07  0.210E-03    8.75       9.3  T
speedup  1.09
cpu  time for SCC    0.01 s
wall time for SCC    0.01 s
speedup  1.04
cpu  time for grad    0.01 s
wall time for grad    0.01 s
 E :    -50.44598165  G :  0.026388    pred/act E change: -0.269D-02 -0.115D-02
Maxdispl :   0.1184   ||displ|| :   0.2543   Lambda : -0.149D-02
Largest |displ|/coords:  0.1184 (   4)  0.1089 (   8)  0.0867 (  17)
................................................................................
.............................. CYCLE   25 ......................................
................................................................................
   1    -50.7396857 -0.507397E+02  0.133E-01    8.82       0.0  T
   2    -50.7397113 -0.256543E-04  0.971E-02    8.82       1.0  T
   3    -50.7397237 -0.124092E-04  0.305E-02    8.81       1.0  T
   4    -50.7397261 -0.241649E-05  0.834E-03    8.81       2.4  T
   5    -50.7397263 -0.138568E-06  0.264E-03    8.81       7.4  T
   6    -50.7397263 -0.106610E-07  0.131E-03    8.81      15.0  T
speedup  1.09
cpu  time for SCC    0.01 s
wall time for SCC    0.01 s
speedup  1.04
cpu  time for grad    0.01 s
wall time for grad    0.01 s
 E :    -50.44668654  G :  0.026713    pred/act E change: -0.129D-02 -0.705D-03
Maxdispl :   0.1028   ||displ|| :   0.2512   Lambda : -0.145D-02
Largest |displ|/coords:  0.1028 (   8)  0.0979 (   2)  0.0707 (  25)

generating ANC from model Hessian ...
 Shifting diagonal of input Hessian by   5.018839213889740E-003
 Lowest  eigenvalues of input Hessian
    0.005000   -0.000000   -0.000000    0.000000    0.000000    0.000000
    0.000000    0.005336    0.005499    0.005833    0.005945    0.006451
    0.007090    0.007196    0.008488    0.008737    0.009246    0.010473
 Highest eigenvalues
    1.425337    1.429596    1.448477    2.639121    3.244195    3.795298
 
cpu  time for ANC gen    0.02 s
wall time for ANC gen    0.02 s
................................................................................
.............................. CYCLE   26 ......................................
................................................................................
   1    -50.7386050 -0.507386E+02  0.141E-01    8.80       0.0  T
   2    -50.7386218 -0.167575E-04  0.105E-01    8.81       1.0  T
   3    -50.7386291 -0.731991E-05  0.282E-02    8.81       1.0  T
   4    -50.7386313 -0.216917E-05  0.825E-03    8.81       2.4  T
   5    -50.7386314 -0.106701E-06  0.225E-03    8.81       8.7  T
   6    -50.7386314 -0.698203E-08  0.117E-03    8.81      16.7  T
   7    -50.7386314 -0.249547E-08  0.504E-04    8.81      38.9  T
   8    -50.7386314 -0.480355E-09  0.137E-04    8.81     143.4  T
speedup  1.11
cpu  time for SCC    0.01 s
wall time for SCC    0.01 s
speedup  1.01
cpu  time for grad    0.02 s
wall time for grad    0.02 s
 E :    -50.44753276  G :  0.018256    pred/act E change:  0.000D+00 -0.846D-03
Maxdispl :   0.1120   ||displ|| :   0.2531   Lambda : -0.135D-02
Largest |displ|/coords:  0.1120 (  10)  0.0868 (  23)  0.0795 (  13)
................................................................................
.............................. CYCLE   27 ......................................
................................................................................
   1    -50.7374581 -0.507375E+02  0.231E-01    8.79       0.0  T
   2    -50.7374696 -0.114815E-04  0.176E-01    8.80       1.0  T
   3    -50.7374804 -0.108489E-04  0.186E-02    8.80       1.1  T
   4    -50.7374816 -0.119939E-05  0.643E-03    8.80       3.1  T
   5    -50.7374817 -0.502349E-07  0.215E-03    8.80       9.1  T
   6    -50.7374817 -0.347391E-08  0.102E-03    8.80      19.3  T
speedup  1.07
cpu  time for SCC    0.01 s
wall time for SCC    0.01 s
speedup  1.02
cpu  time for grad    0.01 s
wall time for grad    0.01 s
 E :    -50.44847657  G :  0.009680    pred/act E change:  0.000D+00 -0.944D-03
Maxdispl :   0.1721   ||displ|| :   0.4032   Lambda : -0.138D-02
Largest |displ|/coords:  0.1721 (  23)  0.1580 (  13)  0.1342 (   6)
................................................................................
.............................. CYCLE   28 ......................................
................................................................................
   1    -50.7350525 -0.507351E+02  0.275E-01    8.72       0.0  T
   2    -50.7350707 -0.181377E-04  0.206E-01    8.73       1.0  T
   3    -50.7350841 -0.134336E-04  0.290E-02    8.74       1.0  T
   4    -50.7350865 -0.235672E-05  0.973E-03    8.73       2.0  T
   5    -50.7350866 -0.112591E-06  0.279E-03    8.73       7.0  T
   6    -50.7350866 -0.852425E-08  0.150E-03    8.73      13.0  T
speedup  1.07
cpu  time for SCC    0.01 s
wall time for SCC    0.01 s
speedup  0.96
cpu  time for grad    0.01 s
wall time for grad    0.01 s
 E :    -50.44910495  G :  0.014853    pred/act E change: -0.720D-03 -0.628D-03
Maxdispl :   0.1173   ||displ|| :   0.2644   Lambda : -0.717D-03
Largest |displ|/coords:  0.1173 (   3)  0.0879 (   1)  0.0734 (   5)
................................................................................
.............................. CYCLE   29 ......................................
................................................................................
   1    -50.7331531 -0.507332E+02  0.289E-01    8.73       0.0  T
   2    -50.7331682 -0.151031E-04  0.220E-01    8.73       1.0  T
   3    -50.7331829 -0.146927E-04  0.188E-02    8.74       1.0  T
   4    -50.7331845 -0.156902E-05  0.696E-03    8.73       2.8  T
   5    -50.7331845 -0.520306E-07  0.216E-03    8.73       9.1  T
   6    -50.7331845 -0.193290E-08  0.102E-03    8.73      19.2  T
speedup  1.09
cpu  time for SCC    0.01 s
wall time for SCC    0.01 s
speedup  1.03
cpu  time for grad    0.01 s
wall time for grad    0.01 s
 E :    -50.44944213  G :  0.016004    pred/act E change: -0.801D-03 -0.337D-03
Maxdispl :   0.1144   ||displ|| :   0.2166   Lambda : -0.658D-03
Largest |displ|/coords:  0.1144 (   4)  0.0902 (   1)  0.0783 (   3)
................................................................................
.............................. CYCLE   30 ......................................
................................................................................
   1    -50.7375923 -0.507376E+02  0.175E-01    8.74       0.0  T
   2    -50.7376037 -0.113423E-04  0.133E-01    8.74       1.0  T
   3    -50.7376117 -0.804657E-05  0.192E-02    8.75       1.0  T
   4    -50.7376133 -0.157420E-05  0.552E-03    8.74       3.6  T
   5    -50.7376134 -0.713740E-07  0.191E-03    8.74      10.3  T
   6    -50.7376134 -0.169612E-08  0.104E-03    8.74      18.8  T
speedup  1.07
cpu  time for SCC    0.01 s
wall time for SCC    0.01 s
speedup  1.03
cpu  time for grad    0.01 s
wall time for grad    0.01 s
 E :    -50.44969626  G :  0.010763    pred/act E change: -0.384D-03 -0.254D-03
Maxdispl :   0.1115   ||displ|| :   0.2139   Lambda : -0.376D-03
Largest |displ|/coords:  0.1115 (   1)  0.1052 (   3)  0.0634 (  12)
................................................................................
.............................. CYCLE   31 ......................................
................................................................................
   1    -50.7376148 -0.507376E+02  0.120E-01    8.76       0.0  T
   2    -50.7376180 -0.322982E-05  0.912E-02    8.76       1.0  T
   3    -50.7376212 -0.317879E-05  0.978E-03    8.76       2.0  T
   4    -50.7376216 -0.342982E-06  0.326E-03    8.76       6.0  T
   5    -50.7376216 -0.149041E-07  0.129E-03    8.76      15.2  T
   6    -50.7376216 -0.192895E-08  0.646E-04    8.76      30.4  T
speedup  1.07
cpu  time for SCC    0.01 s
wall time for SCC    0.01 s
speedup  1.01
cpu  time for grad    0.01 s
wall time for grad    0.01 s
 E :    -50.44993324  G :  0.009631    pred/act E change: -0.344D-03 -0.237D-03
Maxdispl :   0.2064   ||displ|| :   0.3558   Lambda : -0.448D-03
Largest |displ|/coords:  0.2064 (   1)  0.1693 (   3)  0.1184 (   6)
................................................................................
.............................. CYCLE   32 ......................................
................................................................................
   1    -50.7370702 -0.507371E+02  0.177E-01    8.79       0.0  T
   2    -50.7370742 -0.397204E-05  0.133E-01    8.79       1.0  T
   3    -50.7370786 -0.434970E-05  0.104E-02    8.79       1.9  T
   4    -50.7370789 -0.322594E-06  0.330E-03    8.79       5.9  T
   5    -50.7370789 -0.111710E-07  0.161E-03    8.79      12.2  T
   6    -50.7370789 -0.387399E-08  0.447E-04    8.79      43.8  T
speedup  0.93
cpu  time for SCC    0.00 s
wall time for SCC    0.01 s
speedup  0.97
cpu  time for grad    0.01 s
wall time for grad    0.01 s
 E :    -50.45023822  G :  0.010092    pred/act E change: -0.197D-03 -0.305D-03
Maxdispl :   0.3204   ||displ|| :   0.4943   Lambda : -0.513D-03
Largest |displ|/coords:  0.3204 (   1)  0.2506 (   3)  0.1404 (   6)
................................................................................
.............................. CYCLE   33 ......................................
................................................................................
   1    -50.7356859 -0.507357E+02  0.227E-01    8.83       0.0  T
   2    -50.7356949 -0.892160E-05  0.172E-01    8.83       1.0  T
   3    -50.7357040 -0.917021E-05  0.154E-02    8.83       1.3  T
   4    -50.7357049 -0.887765E-06  0.544E-03    8.83       3.6  T
   5    -50.7357049 -0.356267E-07  0.209E-03    8.83       9.4  T
   6    -50.7357050 -0.356022E-08  0.980E-04    8.83      20.0  T
speedup  0.93
cpu  time for SCC    0.00 s
wall time for SCC    0.01 s
speedup  0.96
cpu  time for grad    0.01 s
wall time for grad    0.01 s
 E :    -50.45057175  G :  0.015506    pred/act E change: -0.252D-03 -0.334D-03
Maxdispl :   0.3260   ||displ|| :   0.4727   Lambda : -0.620D-03
Largest |displ|/coords:  0.3260 (   1)  0.1902 (   3)  0.1458 (   4)
................................................................................
.............................. CYCLE   34 ......................................
................................................................................
   1    -50.7384020 -0.507384E+02  0.177E-01    8.86       0.0  T
   2    -50.7384089 -0.684220E-05  0.132E-01    8.86       1.0  T
   3    -50.7384129 -0.402276E-05  0.174E-02    8.85       1.1  T
   4    -50.7384140 -0.104267E-05  0.502E-03    8.86       3.9  T
   5    -50.7384140 -0.461308E-07  0.179E-03    8.86      11.0  T
   6    -50.7384140 -0.201189E-08  0.956E-04    8.86      20.5  T
speedup  1.09
cpu  time for SCC    0.01 s
wall time for SCC    0.01 s
speedup  1.02
cpu  time for grad    0.01 s
wall time for grad    0.01 s
 E :    -50.45092768  G :  0.015590    pred/act E change: -0.319D-03 -0.356D-03
Maxdispl :   0.3414   ||displ|| :   0.5184   Lambda : -0.674D-03
Largest |displ|/coords:  0.3414 (   1)  0.1598 (   3)  0.1458 (   6)
................................................................................
.............................. CYCLE   35 ......................................
................................................................................
   1    -50.7348092 -0.507348E+02  0.258E-01    8.85       0.0  T
   2    -50.7348271 -0.178678E-04  0.195E-01    8.84       1.0  T
   3    -50.7348383 -0.111970E-04  0.268E-02    8.84       1.0  T
   4    -50.7348413 -0.299692E-05  0.843E-03    8.84       2.3  T
   5    -50.7348414 -0.112791E-06  0.264E-03    8.84       7.4  T
   6    -50.7348414 -0.493112E-08  0.145E-03    8.84      13.6  T
speedup  0.93
cpu  time for SCC    0.00 s
wall time for SCC    0.01 s
speedup  0.96
cpu  time for grad    0.01 s
wall time for grad    0.01 s
 E :    -50.45094252  G :  0.023282    pred/act E change: -0.379D-03 -0.148D-04
Maxdispl :   0.0626   ||displ|| :   0.1487   Lambda : -0.876D-03
Largest |displ|/coords:  0.0626 (   7)  0.0525 (   2)  0.0494 (   1)
................................................................................
.............................. CYCLE   36 ......................................
................................................................................
   1    -50.7394585 -0.507395E+02  0.145E-01    8.84       0.0  T
   2    -50.7394677 -0.913885E-05  0.110E-01    8.85       1.0  T
   3    -50.7394755 -0.782164E-05  0.169E-02    8.85       1.2  T
   4    -50.7394767 -0.114956E-05  0.401E-03    8.85       4.9  T
   5    -50.7394767 -0.179701E-07  0.209E-03    8.85       9.4  T
speedup  0.89
cpu  time for SCC    0.00 s
wall time for SCC    0.00 s
speedup  0.95
cpu  time for grad    0.01 s
wall time for grad    0.01 s
 E :    -50.45132551  G :  0.009985    pred/act E change: -0.428D-03 -0.383D-03
Maxdispl :   0.1955   ||displ|| :   0.2971   Lambda : -0.497D-03
Largest |displ|/coords:  0.1955 (   1)  0.1201 (   3)  0.0891 (  12)
................................................................................
.............................. CYCLE   37 ......................................
................................................................................
   1    -50.7350875 -0.507351E+02  0.200E-01    8.85       0.0  T
   2    -50.7350955 -0.805603E-05  0.151E-01    8.85       1.0  T
   3    -50.7351036 -0.810731E-05  0.153E-02    8.84       1.3  T
   4    -50.7351044 -0.769947E-06  0.576E-03    8.85       3.4  T
   5    -50.7351044 -0.413281E-07  0.222E-03    8.85       8.8  T
   6    -50.7351044 -0.702844E-08  0.112E-03    8.85      17.5  T
speedup  1.09
cpu  time for SCC    0.01 s
wall time for SCC    0.01 s
speedup  1.02
cpu  time for grad    0.01 s
wall time for grad    0.01 s
 E :    -50.45111913  G :  0.024420    pred/act E change: -0.448D-03  0.206D-03
Maxdispl :   0.0716   ||displ|| :   0.1399   Lambda : -0.852D-03
Largest |displ|/coords:  0.0716 (   3)  0.0496 (   5)  0.0467 (   8)
................................................................................
.............................. CYCLE   38 ......................................
................................................................................
   1    -50.7399879 -0.507400E+02  0.129E-01    8.86       0.0  T
   2    -50.7399950 -0.707892E-05  0.969E-02    8.86       1.0  T
   3    -50.7400006 -0.561520E-05  0.150E-02    8.86       1.3  T
   4    -50.7400015 -0.861285E-06  0.464E-03    8.86       4.2  T
   5    -50.7400015 -0.328944E-07  0.176E-03    8.86      11.2  T
speedup  1.09
cpu  time for SCC    0.00 s
wall time for SCC    0.00 s
speedup  1.02
cpu  time for grad    0.01 s
wall time for grad    0.01 s
 E :    -50.45148175  G :  0.008829    pred/act E change: -0.271D-03 -0.363D-03
Maxdispl :   0.0937   ||displ|| :   0.2000   Lambda : -0.343D-03
Largest |displ|/coords:  0.0937 (  11)  0.0820 (   6)  0.0737 (   1)
................................................................................
.............................. CYCLE   39 ......................................
................................................................................
   1    -50.7390105 -0.507390E+02  0.148E-01    8.87       0.0  T
   2    -50.7390198 -0.923146E-05  0.111E-01    8.87       1.0  T
   3    -50.7390260 -0.628007E-05  0.171E-02    8.86       1.1  T
   4    -50.7390274 -0.133008E-05  0.467E-03    8.86       4.2  T
   5    -50.7390274 -0.398591E-07  0.208E-03    8.86       9.4  T
   6    -50.7390274 -0.371202E-08  0.106E-03    8.86      18.5  T
speedup  0.93
cpu  time for SCC    0.01 s
wall time for SCC    0.01 s
speedup  0.96
cpu  time for grad    0.01 s
wall time for grad    0.01 s
 E :    -50.45131271  G :  0.016785    pred/act E change: -0.435D-03  0.169D-03
Maxdispl :   0.0498   ||displ|| :   0.1057   Lambda : -0.529D-03
Largest |displ|/coords:  0.0498 (  11)  0.0358 (  17)  0.0325 (   8)
................................................................................
.............................. CYCLE   40 ......................................
................................................................................
   1    -50.7398982 -0.507399E+02  0.962E-02    8.87       0.0  T
   2    -50.7399017 -0.352668E-05  0.722E-02    8.87       1.0  T
   3    -50.7399044 -0.267282E-05  0.103E-02    8.87       1.9  T
   4    -50.7399048 -0.469109E-06  0.265E-03    8.87       7.4  T
   5    -50.7399048 -0.865320E-08  0.134E-03    8.87      14.7  T
speedup  1.09
cpu  time for SCC    0.00 s
wall time for SCC    0.00 s
speedup  1.02
cpu  time for grad    0.01 s
wall time for grad    0.01 s
 E :    -50.45158320  G :  0.005142    pred/act E change: -0.178D-03 -0.270D-03
Maxdispl :   0.0278   ||displ|| :   0.0544   Lambda : -0.553D-04
Largest |displ|/coords:  0.0278 (   6)  0.0195 (  10)  0.0189 (   3)
................................................................................
.............................. CYCLE   41 ......................................
................................................................................
   1    -50.7400719 -0.507401E+02  0.370E-02    8.87       0.0  T
   2    -50.7400729 -0.962337E-06  0.273E-02    8.87       1.0  T
   3    -50.7400735 -0.596861E-06  0.628E-03    8.87       3.1  T
   4    -50.7400736 -0.106527E-06  0.119E-03    8.87      16.5  T
   5    -50.7400736 -0.348670E-08  0.560E-04    8.87      35.0  T
speedup  0.87
cpu  time for SCC    0.00 s
wall time for SCC    0.00 s
speedup  0.94
cpu  time for grad    0.01 s
wall time for grad    0.01 s
 E :    -50.45160052  G :  0.004283    pred/act E change: -0.268D-03 -0.173D-04
Maxdispl :   0.0846   ||displ|| :   0.1110   Lambda : -0.518D-04
Largest |displ|/coords:  0.0846 (   1)  0.0396 (   6)  0.0263 (   3)
................................................................................
.............................. CYCLE   42 ......................................
................................................................................
   1    -50.7401292 -0.507401E+02  0.511E-02    8.87       0.0  T
   2    -50.7401298 -0.563838E-06  0.383E-02    8.87       1.0  T
   3    -50.7401301 -0.346086E-06  0.498E-03    8.87       3.9  T
   4    -50.7401302 -0.908689E-07  0.195E-03    8.87      10.0  T
   5    -50.7401302 -0.326602E-08  0.423E-04    8.87      46.4  T
speedup  0.87
cpu  time for SCC    0.00 s
wall time for SCC    0.00 s
speedup  1.02
cpu  time for grad    0.01 s
wall time for grad    0.01 s
 E :    -50.45163508  G :  0.002978    pred/act E change: -0.277D-04 -0.346D-04
Maxdispl :   0.0541   ||displ|| :   0.1015   Lambda : -0.602D-04
Largest |displ|/coords:  0.0541 (   3)  0.0527 (   5)  0.0324 (   2)
................................................................................
.............................. CYCLE   43 ......................................
................................................................................
   1    -50.7416127 -0.507416E+02  0.668E-02    8.88       0.0  T
   2    -50.7416137 -0.969723E-06  0.495E-02    8.88       1.0  T
   3    -50.7416145 -0.833249E-06  0.770E-03    8.87       2.5  T
   4    -50.7416146 -0.969304E-07  0.206E-03    8.88       9.5  T
   5    -50.7416146 -0.770437E-08  0.697E-04    8.88      28.1  T
   6    -50.7416146 -0.616893E-09  0.419E-04    8.88      46.8  T
speedup  0.91
cpu  time for SCC    0.01 s
wall time for SCC    0.01 s
speedup  0.99
cpu  time for grad    0.01 s
wall time for grad    0.01 s
 E :    -50.45164567  G :  0.004296    pred/act E change: -0.262D-04 -0.106D-04
Maxdispl :   0.0411   ||displ|| :   0.0594   Lambda : -0.343D-04
Largest |displ|/coords:  0.0411 (   1)  0.0184 (  12)  0.0173 (   3)
................................................................................
.............................. CYCLE   44 ......................................
................................................................................
   1    -50.7409375 -0.507409E+02  0.315E-02    8.87       0.0  T
   2    -50.7409380 -0.450114E-06  0.235E-02    8.87       1.0  T
   3    -50.7409383 -0.307841E-06  0.404E-03    8.87       4.8  T
   4    -50.7409384 -0.559409E-07  0.700E-04    8.87      28.0  T
   5    -50.7409384 -0.601283E-09  0.344E-04    8.87      56.9  T
speedup  0.83
cpu  time for SCC    0.00 s
wall time for SCC    0.00 s
speedup  1.00
cpu  time for grad    0.01 s
wall time for grad    0.01 s
 E :    -50.45166168  G :  0.001733    pred/act E change: -0.304D-04 -0.160D-04
Maxdispl :   0.0091   ||displ|| :   0.0186   Lambda : -0.835D-05
Largest |displ|/coords:  0.0091 (  10)  0.0067 (   5)  0.0047 (   9)
................................................................................
.............................. CYCLE   45 ......................................
................................................................................
   1    -50.7410473 -0.507410E+02  0.151E-02    8.87       0.0  T
   2    -50.7410474 -0.952043E-07  0.114E-02    8.87       1.7  T
   3    -50.7410475 -0.666146E-07  0.195E-03    8.87      10.0  T
   4    -50.7410475 -0.140552E-07  0.660E-04    8.87      29.7  T
   5    -50.7410475 -0.746901E-09  0.188E-04    8.87     104.5  T
speedup  0.85
cpu  time for SCC    0.00 s
wall time for SCC    0.00 s
speedup  0.96
cpu  time for grad    0.01 s
wall time for grad    0.01 s
 E :    -50.45166532  G :  0.000883    pred/act E change: -0.172D-04 -0.364D-05
Maxdispl :   0.0084   ||displ|| :   0.0183   Lambda : -0.354D-05
Largest |displ|/coords:  0.0084 (   3)  0.0073 (   1)  0.0061 (   9)
................................................................................
.............................. CYCLE   46 ......................................
................................................................................
   1    -50.7410001 -0.507410E+02  0.896E-03    8.87       0.0  T
   2    -50.7410001 -0.252588E-07  0.652E-03    8.87       3.0  T
   3    -50.7410001 -0.154248E-07  0.135E-03    8.87      14.6  T
   4    -50.7410001 -0.286530E-08  0.397E-04    8.87      49.4  T
   5    -50.7410001 -0.216822E-09  0.895E-05    8.87     219.2  T
speedup  1.09
cpu  time for SCC    0.01 s
wall time for SCC    0.00 s
speedup  0.98
cpu  time for grad    0.01 s
wall time for grad    0.01 s
 E :    -50.45166792  G :  0.000579    pred/act E change: -0.418D-05 -0.260D-05
Maxdispl :   0.0119   ||displ|| :   0.0265   Lambda : -0.313D-05
Largest |displ|/coords:  0.0119 (   3)  0.0106 (   9)  0.0082 (  18)
................................................................................
.............................. CYCLE   47 ......................................
................................................................................
   1    -50.7409479 -0.507409E+02  0.169E-02    8.87       0.0  T
   2    -50.7409480 -0.655392E-07  0.122E-02    8.87       1.6  T
   3    -50.7409480 -0.495473E-07  0.238E-03    8.87       8.2  T
   4    -50.7409480 -0.623071E-08  0.676E-04    8.87      29.0  T
   5    -50.7409480 -0.772388E-09  0.161E-04    8.87     122.0  T
speedup  1.11
cpu  time for SCC    0.00 s
wall time for SCC    0.00 s
speedup  0.98
cpu  time for grad    0.01 s
wall time for grad    0.01 s
 E :    -50.45166964  G :  0.000539    pred/act E change: -0.177D-05 -0.172D-05
Maxdispl :   0.0041   ||displ|| :   0.0090   Lambda : -0.575D-06
Largest |displ|/coords:  0.0041 (   9)  0.0036 (  13)  0.0035 (   1)
................................................................................
.............................. CYCLE   48 ......................................
................................................................................
   1    -50.7409648 -0.507410E+02  0.538E-03    8.87       0.0  T
   2    -50.7409648 -0.100987E-07  0.396E-03    8.87       4.9  T
   3    -50.7409648 -0.558033E-08  0.823E-04    8.87      23.8  T
   4    -50.7409648 -0.132032E-08  0.268E-04    8.87      73.2  T
speedup  1.08
cpu  time for SCC    0.00 s
wall time for SCC    0.00 s
speedup  1.05
cpu  time for grad    0.01 s
wall time for grad    0.01 s
 E :    -50.45167003  G :  0.000533    pred/act E change: -0.157D-05 -0.384D-06
Maxdispl :   0.0039   ||displ|| :   0.0089   Lambda : -0.667D-06
Largest |displ|/coords:  0.0039 (   9)  0.0034 (  13)  0.0034 (   2)
................................................................................
.............................. CYCLE   49 ......................................
................................................................................
   1    -50.7409667 -0.507410E+02  0.596E-03    8.87       0.0  T
   2    -50.7409667 -0.165462E-07  0.435E-03    8.87       4.5  T
   3    -50.7409667 -0.767913E-08  0.964E-04    8.87      20.3  T
   4    -50.7409667 -0.198499E-08  0.326E-04    8.87      60.1  T
speedup  1.08
cpu  time for SCC    0.00 s
wall time for SCC    0.00 s
speedup  0.97
cpu  time for grad    0.01 s
wall time for grad    0.01 s
 E :    -50.45167044  G :  0.000400    pred/act E change: -0.287D-06 -0.416D-06
Maxdispl :   0.0036   ||displ|| :   0.0082   Lambda : -0.481D-06
Largest |displ|/coords:  0.0036 (   2)  0.0031 (   8)  0.0029 (  13)
................................................................................
.............................. CYCLE   50 ......................................
................................................................................
   1    -50.7409815 -0.507410E+02  0.596E-03    8.87       0.0  T
   2    -50.7409816 -0.111279E-07  0.446E-03    8.87       4.4  T
   3    -50.7409816 -0.675475E-08  0.779E-04    8.87      25.2  T
   4    -50.7409816 -0.171607E-08  0.284E-04    8.87      69.0  T
speedup  1.08
cpu  time for SCC    0.00 s
wall time for SCC    0.00 s
speedup  1.05
cpu  time for grad    0.01 s
wall time for grad    0.01 s
 E :    -50.45167073  G :  0.000338    pred/act E change: -0.334D-06 -0.286D-06
Maxdispl :   0.0027   ||displ|| :   0.0047   Lambda : -0.228D-06
Largest |displ|/coords:  0.0027 (  12)  0.0022 (   2)  0.0013 (  13)
................................................................................
.............................. CYCLE   51 ......................................
................................................................................
   1    -50.7409872 -0.507410E+02  0.278E-03    8.87       0.0  T
   2    -50.7409872 -0.212160E-08  0.209E-03    8.87       9.4  T
   3    -50.7409872 -0.148836E-08  0.290E-04    8.87      67.6  T
   4    -50.7409872 -0.319297E-09  0.109E-04    8.87     179.4  T
speedup  0.81
cpu  time for SCC    0.00 s
wall time for SCC    0.00 s
speedup  0.98
cpu  time for grad    0.01 s
wall time for grad    0.01 s
 E :    -50.45167091  G :  0.000271    pred/act E change: -0.240D-06 -0.177D-06
Maxdispl :   0.0052   ||displ|| :   0.0099   Lambda : -0.370D-06
Largest |displ|/coords:  0.0052 (  12)  0.0035 (   2)  0.0034 (  13)
................................................................................
.............................. CYCLE   52 ......................................
................................................................................
   1    -50.7409750 -0.507410E+02  0.636E-03    8.87       0.0  T
   2    -50.7409750 -0.509665E-08  0.480E-03    8.87       4.1  T
   3    -50.7409750 -0.614070E-08  0.395E-04    8.87      49.6  T
   4    -50.7409750 -0.342133E-09  0.149E-04    8.87     131.8  T
speedup  1.08
cpu  time for SCC    0.00 s
wall time for SCC    0.00 s
speedup  1.05
cpu  time for grad    0.01 s
wall time for grad    0.01 s
 E :    -50.45167117  G :  0.000281    pred/act E change: -0.114D-06 -0.259D-06
Maxdispl :   0.0034   ||displ|| :   0.0080   Lambda : -0.260D-06
Largest |displ|/coords:  0.0034 (  13)  0.0032 (  12)  0.0031 (   7)

generating ANC from model Hessian ...
 Shifting diagonal of input Hessian by   4.541379720451510E-003
 Lowest  eigenvalues of input Hessian
   -0.000000   -0.000000   -0.000000    0.000000    0.000000    0.000000
    0.005000    0.005256    0.005672    0.005972    0.006053    0.006646
    0.007211    0.007529    0.008130    0.008469    0.010155    0.010649
 Highest eigenvalues
    1.408934    1.412989    1.436217    2.591293    3.233730    3.783311
 
cpu  time for ANC gen    0.03 s
wall time for ANC gen    0.03 s
................................................................................
.............................. CYCLE   53 ......................................
................................................................................
   1    -50.7409571 -0.507410E+02  0.552E-03    8.87       0.0  T
   2    -50.7409571 -0.360323E-08  0.417E-03    8.87       4.7  T
   3    -50.7409571 -0.405501E-08  0.301E-04    8.87      65.1  T
   4    -50.7409571 -0.307082E-09  0.124E-04    8.87     158.0  T
speedup  1.08
cpu  time for SCC    0.00 s
wall time for SCC    0.00 s
speedup  1.05
cpu  time for grad    0.01 s
wall time for grad    0.01 s
 E :    -50.45167136  G :  0.000263    pred/act E change:  0.000D+00 -0.192D-06
Maxdispl :   0.0020   ||displ|| :   0.0036   Lambda : -0.187D-06
Largest |displ|/coords:  0.0020 (   4)  0.0014 (  12)  0.0010 (  15)
................................................................................
.............................. CYCLE   54 ......................................
................................................................................
   1    -50.7409616 -0.507410E+02  0.348E-03    8.87       0.0  T
   2    -50.7409616 -0.159900E-08  0.263E-03    8.87       7.5  T
   3    -50.7409616 -0.144351E-08  0.219E-04    8.87      89.6  T
   4    -50.7409616 -0.195143E-09  0.841E-05    8.87     233.3  T
speedup  1.11
cpu  time for SCC    0.00 s
wall time for SCC    0.00 s
speedup  1.07
cpu  time for grad    0.01 s
wall time for grad    0.01 s
 E :    -50.45167150  G :  0.000163    pred/act E change:  0.000D+00 -0.142D-06
Maxdispl :   0.0045   ||displ|| :   0.0077   Lambda : -0.255D-06
Largest |displ|/coords:  0.0045 (   4)  0.0025 (  12)  0.0024 (  17)
................................................................................
.............................. CYCLE   55 ......................................
................................................................................
   1    -50.7409630 -0.507410E+02  0.733E-03    8.87       0.0  T
   2    -50.7409630 -0.634984E-08  0.553E-03    8.87       3.5  T
   3    -50.7409630 -0.629971E-08  0.482E-04    8.87      40.7  T
   4    -50.7409630 -0.636803E-09  0.173E-04    8.87     113.1  T
speedup  0.79
cpu  time for SCC    0.00 s
wall time for SCC    0.00 s
speedup  0.96
cpu  time for grad    0.01 s
wall time for grad    0.01 s
 E :    -50.45167161  G :  0.000134    pred/act E change: -0.935D-07 -0.106D-06
Maxdispl :   0.0020   ||displ|| :   0.0036   Lambda : -0.110D-06
Largest |displ|/coords:  0.0020 (   4)  0.0013 (  12)  0.0012 (  15)
................................................................................
.............................. CYCLE   56 ......................................
................................................................................
   1    -50.7409590 -0.507410E+02  0.294E-03    8.87       0.0  T
   2    -50.7409590 -0.873591E-09  0.222E-03    8.87       8.8  T
   3    -50.7409590 -0.977451E-09  0.160E-04    8.87     122.5  T
   4    -50.7409590 -0.738041E-10  0.682E-05    8.87     287.4  T
speedup  1.08
cpu  time for SCC    0.00 s
wall time for SCC    0.00 s
speedup  0.97
cpu  time for grad    0.01 s
wall time for grad    0.01 s
 E :    -50.45167166  G :  0.000121    pred/act E change: -0.127D-06 -0.519D-07
Maxdispl :   0.0009   ||displ|| :   0.0016   Lambda : -0.390D-07
Largest |displ|/coords:  0.0009 (   4)  0.0008 (   6)  0.0006 (   1)

   *** GEOMETRY OPTIMIZATION CONVERGED AFTER 56 ITERATIONS ***

------------------------------------------------------------------------
 total energy gain (kcal):     -0.0002
------------------------------------------------------------------------
================
 final structure:
================
$coord
        3.77134768380708       -0.31696305599718        2.39432414802765      S 
        1.94158659705307        1.63522825564237        3.03566930118755      O 
        5.50670615428706       -0.99308437214956        4.32450509981582      O 
        2.35424425976168       -2.55627231232817        1.37882990694395      O 
        5.31036158428807        0.67746228170268        0.03557720924717      O 
        4.11035751123760        1.47222156047865       -1.12181849483351      H 
       -0.32279710379244       -2.10939535873283        2.83957047795805      H 
        2.03749143920229        2.78294536179540       -3.27587532231124      O 
        2.90470953086436        3.90388138598813       -4.40148695202248      H 
       -2.03302558580969       -1.67105938242880        3.45142552733010      O 
       -1.71862219390008       -0.48358100650942        4.78802267553584      H 
       -3.64837377880513        1.46892598159789       -0.37194288413527      O 
       -5.37479901766961        0.96532448958623       -0.57992123073536      H 
       -3.00649086825024        0.52392001332766        1.08028608641992      H 
       -4.20806723860516       -4.04707197139615       -0.63096823021664      O 
       -3.77176720259693       -3.40381910217606        1.03447073507714      H 
       -4.12154694886387       -5.85200305397279       -0.50914798798158      H 
       -0.13708233795676        5.20647541445181        0.28754228991075      O 
       -1.79210293094752        4.43854473590815        0.12197870989946      H 
        0.71629978873129        4.17329343285111        1.57722231493181      H 
        1.16348466101066        3.89688245680450       -1.97874039649382      H 
        0.03769365600730       -1.94356400893170       -2.76267542513696      N 
        0.20696607699265       -0.05219090917996       -3.20711863588183      H 
        0.72530318929481       -3.02997478413555       -4.18411934753445      H 
        1.15712441140332       -2.24379579159131       -1.01151263565643      H 
       -1.80900131792446       -2.44233024162505       -2.31409686377138      H 
$end
 
 Bond Distances (Angstroems)
 ---------------------------
S1-O2=1.4560         S1-O3=1.4194         S1-O4=1.5018         S1-O5=1.5806         O2-S1=1.4560         O3-S1=1.4194         
O4-S1=1.5018         O5-S1=1.5806         O5-H6=0.9774         H6-O5=0.9774         H7-O10=0.9888        O8-H9=0.9577         
O8-H21=1.0161        H9-O8=0.9577         O10-H7=0.9888        O10-H11=0.9606       H11-O10=0.9606       O12-H13=0.9580       
O12-H14=0.9778       H13-O12=0.9580       H14-O12=0.9778       O15-H16=0.9726       O15-H17=0.9584       H16-O15=0.9726       
H17-O15=0.9584       O18-H19=0.9695       O18-H20=0.9842       H19-O18=0.9695       H20-O18=0.9842       H21-O8=1.0161        
N22-H23=1.0320       N22-H24=1.0143       N22-H25=1.1113       N22-H26=1.0397       H23-N22=1.0320       H24-N22=1.0143       
H25-N22=1.1113       H26-N22=1.0397       
 N  H  Rav=1.0493 sigma=0.0369  Rmin=1.0143  Rmax=1.1113     4
 O  H  Rav=0.9746 sigma=0.0167  Rmin=0.9577  Rmax=1.0161    11
 S  O  Rav=1.4894 sigma=0.0602  Rmin=1.4194  Rmax=1.5806     4
 
 selected bond angles (degree)
 --------------------
O3-S1-O2=116.19                O4-S1-O2=108.13                O4-S1-O3=112.44                O5-S1-O2=106.89                
O5-S1-O3=108.59                O5-S1-O4=103.73                H6-O5-S1=107.66                H21-O8-H9=106.20               
H11-O10-H7=103.65              
 
 selected dihedral angles (degree)
 ---------------------------------
H6-O5-S1-O2=318.18            H6-O5-S1-O3=192.10            H6-O5-S1-O4= 72.32            
 
 CMA Distance (Angstroems)
 ---------------------------
R(CMA):  3.0706

========================================================================
 FINAL SINGLEPOINT CALCULATION ON OPTIMIZED GEOMETRY
========================================================================

 Ncao       : 65
 Nao        : 64
 Nshell     : 38
 Nel        : 80
 T(el)      :   300.0
 intcut     :    25.0
 scfconv/Eh :  0.100E-05
   qconv/e  :  0.100E-03
 intneglect :  0.100E-07
 broydamp   :      0.250
 iter      E             dE          RMSdq      gap      omega  full diag
   1    -50.7409590 -0.507410E+02  0.208E-05    8.87       0.0  T
   2    -50.7409590 -0.703437E-12  0.137E-05    8.87    1427.0  T
   3    -50.7409590 -0.234479E-12  0.376E-06    8.87    5212.4  T
speedup  0.74
cpu  time for SCC    0.00 s
wall time for SCC    0.00 s

   *** convergence criteria satisfied after 3 iterations ***

          eigenvalues
 #    :          28         29         30         31         32         33         34         35
 occ. :        2.000      2.000      2.000      2.000      2.000      2.000      2.000      2.000
 eps  :       -13.311    -12.841    -12.760    -12.582    -12.324    -12.250    -12.051    -11.920
 #    :          36         37         38         39         40         41         42         43
 occ. :        2.000      2.000      2.000      2.000      2.000      0.000      0.000      0.000
 eps  :       -11.843    -11.712    -11.558    -11.367    -11.120     -2.249     -1.157      0.015
 #    :          44         45         46         47         48         49         50         51
 occ. :        0.000      0.000      0.000      0.000      0.000      0.000      0.000      0.000
 eps  :         0.633      1.139      1.443      1.816      2.883      3.327      4.595      4.941


   #   Z            q   n(s)   n(p)   n(d)      C6AA      α(0)
   1  16 S      1.626  1.585  1.819  0.970    90.478    16.009
   2   8 O     -0.749  1.764  4.985  0.000    30.082     7.354
   3   8 O     -0.660  1.758  4.902  0.000    27.643     7.049
   4   8 O     -0.754  1.778  4.976  0.000    30.163     7.366
   5   8 O     -0.618  1.761  4.857  0.000    25.598     6.830
   6   1 H      0.363  0.637  0.000  0.000     0.555     1.168
   7   1 H      0.328  0.672  0.000  0.000     0.644     1.260
   8   8 O     -0.651  1.756  4.895  0.000    26.440     6.940
   9   1 H      0.288  0.712  0.000  0.000     0.758     1.367
  10   8 O     -0.637  1.744  4.894  0.000    26.093     6.894
  11   1 H      0.303  0.697  0.000  0.000     0.711     1.324
  12   8 O     -0.625  1.747  4.878  0.000    25.784     6.853
  13   1 H      0.285  0.715  0.000  0.000     0.769     1.378
  14   1 H      0.325  0.675  0.000  0.000     0.651     1.268
  15   8 O     -0.598  1.739  4.859  0.000    25.141     6.767
  16   1 H      0.336  0.664  0.000  0.000     0.622     1.239
  17   1 H      0.287  0.713  0.000  0.000     0.760     1.370
  18   8 O     -0.617  1.761  4.856  0.000    25.591     6.828
  19   1 H      0.320  0.680  0.000  0.000     0.663     1.279
  20   1 H      0.335  0.665  0.000  0.000     0.624     1.241
  21   1 H      0.348  0.652  0.000  0.000     0.594     1.211
  22   7 N     -0.343  1.275  4.068  0.000    28.818     7.973
  23   1 H      0.283  0.717  0.000  0.000     0.765     1.371
  24   1 H      0.225  0.775  0.000  0.000     0.986     1.555
  25   1 H      0.313  0.687  0.000  0.000     0.670     1.280
  26   1 H      0.287  0.713  0.000  0.000     0.755     1.361

 Mol. C6AA /au·bohr⁶  :       5441.912520
 Mol. C8AA /au·bohr⁸  :     117914.872092
 Mol. α(0) /au        :        106.534992

 
 Wiberg/Mayer (AO) data. WBOs > 0.1 written file <wbo>
 largest (>0.05) Wiberg bond orders for each atom
           total WBO             WBO to atom ...
     1  S   4.918    O    3 1.495    O    2 1.318    O    4 1.141    O    5 0.927
     2  O   1.703    S    1 1.318    O    3 0.115    O    4 0.099    O    5 0.081    H   20 0.056
     3  O   1.799    S    1 1.495    O    2 0.115    O    4 0.096    O    5 0.070
     4  O   1.780    S    1 1.141    H   25 0.193    O    2 0.099    O    3 0.096    H    7 0.076    O    5 0.070    N   22 0.069
     5  O   1.960    S    1 0.927    H    6 0.780    O    2 0.081    O    4 0.070    O    3 0.070
     6  H   0.868    O    5 0.780    O    8 0.070
     7  H   0.893    O   10 0.809    O    4 0.076
     8  O   1.876    H    9 0.908    H   21 0.744    H    6 0.070    O   18 0.056
     9  H   0.917    O    8 0.908
    10  O   1.863    H   11 0.893    H    7 0.809    H   14 0.052
    11  H   0.908    O   10 0.893
    12  O   1.832    H   13 0.912    H   14 0.838
    13  H   0.919    O   12 0.912
    14  H   0.895    O   12 0.838    O   10 0.052
    15  O   1.881    H   17 0.914    H   16 0.851    H   26 0.061
    16  H   0.887    O   15 0.851
    17  H   0.917    O   15 0.914
    18  O   1.934    H   19 0.867    H   20 0.827    H   21 0.133    O    8 0.056
    19  H   0.897    O   18 0.867
    20  H   0.888    O   18 0.827    O    2 0.056
    21  H   0.879    O    8 0.744    O   18 0.133
    22  N   3.515    H   24 0.946    H   23 0.868    H   26 0.850    H   25 0.698    O    4 0.069
    23  H   0.920    N   22 0.868
    24  H   0.949    N   22 0.946
    25  H   0.902    N   22 0.698    O    4 0.193
    26  H   0.918    N   22 0.850    O   15 0.061
 MOs/occ written to file <molden.input>
 
molecular dipole:
                 x           y           z       tot (Debye)
 q only:       -2.301      -0.849      -2.841
   full:       -2.136      -0.960      -2.613       8.919
molecular quadrupole (traceless):
                xx          xy          yy          xz          yz          zz
 q only:      -11.327       6.831       6.693     -16.717       3.896       4.634
  q+dip:      -11.284       7.939       6.145     -18.905       3.307       5.139
   full:      -11.289       8.109       5.967     -18.935       3.132       5.321

SCC energy    :     -50.7409590
rep           :       0.2889287
ES            :       0.2730938
AES           :      -0.0684953
AXC           :      -0.0080648
disp          :      -0.0199431
XB            :       0.0000000
fix           :       0.0000000
total E       :     -50.4516717
atomizationE  :       4.9819758     3126.24
(atE without considering molecular charge,
 total energy contains solvation terms)
H-L gap (eV)  :          8.8714
optimized geometry written to: xtbopt.xyz


------------------------------------------------------------------------
 * finished run on 2019/09/16 at 12:45:05.674     
------------------------------------------------------------------------
 total:
 * wall-time:     0 d,  0 h,  0 min,  1.673 sec
 *  cpu-time:     0 d,  0 h,  0 min,  1.431 sec
 * ratio c/w:     0.855 speedup
 SCF:
 * wall-time:     0 d,  0 h,  0 min,  0.137 sec
 *  cpu-time:     0 d,  0 h,  0 min,  0.133 sec
 * ratio c/w:     0.972 speedup
 ANC optimizer:
 * wall-time:     0 d,  0 h,  0 min,  1.398 sec
 *  cpu-time:     0 d,  0 h,  0 min,  1.276 sec
 * ratio c/w:     0.913 speedup

