      -----------------------------------------------------------      
     |                   =====================                   |     
     |                           x T B                           |     
     |                   =====================                   |     
     |                         S. Grimme                         |     
     |          Mulliken Center for Theoretical Chemistry        |     
     |                    University of Bonn                     |     
     |                 Version 6.0.1 (SAW181210)                 |     
      -----------------------------------------------------------      

   This program is distributed in the hope that it will be useful,
   but WITHOUT ANY WARRANTY; without even the implied warranty of
   MERCHANTABILITY or FITNESS FOR A PARTICULAR PURPOSE.
   
   FOR NON-COMMERCIAL, ACADEMIA USE ONLY.
   
   Cite this work as:
   S. Grimme, C. Bannwarth, P. Shushkov, J. Comput. Theory Chem., 2017,
   13, 1989-2009.
   C. Bannwarth, S. Ehlert and S. Grimme., ChemRxiv, 2018, preprint.
   http://doi.org/10.26434/chemrxiv.7246238.v1
   
   for sTDA-xTB:
   S. Grimme and C. Bannwarth, J. Chem. Phys., 2016, 145, 054103.
   
   in the mass-spec context:
   V. Asgeirsson, C. Bauer and S. Grimme, Chem. Sci., 2017, 8, 4879.
   
   if GBSA is used:
   P. Shushkov, F. März and S. Grimme, unpublished.
   
   for ANC optimizer:
   S. Grimme, unpublished.
   Rational Function algorithm used in ANCopt:
   F. Eckert, P. Pulay, H.-J. Werner, J. Comput. Chem., 1997, 18, 1473.
   
   with help from (in alphabetical order)
   C. Bannwarth, F. Bohle, G. Brandenburg, E. Caldeweyher, M. Checinski,
   S. Dohm, S. Ehlert, S. Ehrlich, F. März, H. Neugebauer, J. Pisarek,
   P. Pracht, P. Shushkov, and S. Spicher.
   
 * started run on 2019/09/16 at 12:52:56.993     
========================================================================
 # omp threads = 1
========================================================================
number of atoms            : 26
number of electrons        : 80
charge                     : 0
spin                       : .0
first test random number   : .0710

########################################################################
# WARNING! Please study the warnings concerning your input carefully
#  - XTBPATH is not set, using XTBHOME instead
#  - the use of '-opt' is discouraged, please use '--opt' next time
#  - the use of '-chrg' is discouraged, please use '--chrg' next time
#  - the use of '-uhf' is discouraged, please use '--uhf' next time
########################################################################

           ------------------------------------------------- 
          |                 G F N 2 - x T B                 |
          | Geometry, Frequencies, Noncovalent interactions |
          |            JCTC 2018 parametrisation            |
           ------------------------------------------------- 
      method parameters     
 k(s)        :  1.8500
 k(p)        :  2.2300
 k(d)        :  2.2300
 k(f)        :  2.0000
 kEN (H0ij)  : -2.0000
 D4 a1       :  0.5200
 D4 a2       :  5.0000
 D4 s6       :  1.0000
 D4 s8       :  2.7000
 D4 s9       :  5.0000
 alphaj      :  2.0000


            Z     q(EN)     CN     RAES       Cart. coordinates
     1  S   6.0    0.58    4.28    4.21    -3.48630     3.56192     0.13020
     2  O   6.0   -0.31    1.14    1.80    -3.40458     2.14033     2.48685
     3  O   6.0   -0.27    1.09    1.80    -4.44062     6.11152    -0.03251
     4  O   6.0   -0.24    2.04    1.83    -0.66569     3.40036    -1.12018
     5  O   6.0   -0.23    2.07    1.83    -4.96941     1.99181    -2.01522
     6  H   1.0    0.18    1.28    1.49    -4.50797     0.21438    -1.89621
     7  H   1.0    0.16    1.18    1.46     0.54104     3.32965     0.26732
     8  O   6.0   -0.39    1.63    1.81    -3.30639    -2.34322    -1.43585
     9  H   1.0    0.18    0.95    1.42    -4.45474    -3.39927    -2.46046
    10  O   6.0   -0.40    1.64    1.81     2.44050    -2.38408     2.52779
    11  H   1.0    0.17    0.94    1.42     3.82306    -3.26788     3.41727
    12  O   6.0   -0.31    2.08    1.84     3.04493     2.22080     2.10868
    13  H   1.0    0.15    0.97    1.43     3.97445     2.75585     3.57984
    14  H   1.0    0.18    1.14    1.45     2.84239     0.42115     2.29535
    15  O   6.0   -0.29    2.00    1.83     4.44766     1.67718    -2.95209
    16  H   1.0    0.15    1.01    1.43     4.35630     2.02371    -1.16710
    17  H   1.0    0.15    0.97    1.43     4.24178     3.29206    -3.76719
    18  O   6.0   -0.23    2.94    2.63    -2.06068    -2.68101     2.91226
    19  H   1.0    0.16    1.20    1.47    -0.19554    -2.76656     2.97371
    20  H   1.0    0.15    1.00    1.43    -2.71882    -1.14121     3.74044
    21  H   1.0    0.16    1.19    1.46    -2.71240    -2.87103     1.17139
    22  N   5.0   -0.15    3.98    2.80     1.44221    -2.45729    -2.15286
    23  H   1.0    0.08    0.99    1.43     1.98966    -4.04218    -3.13919
    24  H   1.0    0.10    1.04    1.43     2.22837    -0.87870    -2.97410
    25  H   1.0    0.12    1.13    1.45    -0.49718    -2.30908    -2.18846
    26  H   1.0    0.12    1.15    1.45     2.04798    -2.59919    -0.30967

  Z AO/shell   Hii/eV     exponent
  1     Wed Apr 25 08:07:45 CEST 2018   EN: 2.200 GM2: 0.406  GM3: 0.0800  RAES: 1.40
     1s    -10.707211    1.230000
  7     Wed Apr 25 08:07:45 CEST 2018   EN: 3.040 GM2: 0.461  GM3:-0.0640  RAES: 1.90
     2s    -16.686243    2.339881
     2p    -12.523956    2.014332
  8     Wed Apr 25 08:07:45 CEST 2018   EN: 3.440 GM2: 0.452  GM3:-0.0517  RAES: 1.80
     2s    -20.229985    2.439742
     2p    -15.503117    2.137023
 16     Tue Apr 24 11:44:34 CEST 2018   EN: 2.580 GM2: 0.340  GM3:-0.0502  RAES: 3.10
     3s    -20.029654    1.981333
     3p    -11.377694    2.025643
     3d     -0.420282    1.702555
 no old-style atom pair restraining (fixing) potential

molecular fragmentation (1/2 indicates fragments):
11111112222222222222222222
# atoms in fragment 1/2:     7    19
 fragment masses (1/2) :       98.07      107.11
CMA distance (Bohr)    :   6.231
constraining FC (au)   :  0.0500
           ------------------------------------------------- 
          |        Self-Consistent Charge Iterations        |
           ------------------------------------------------- 

 Ncao       : 65
 Nao        : 64
 Nshell     : 38
 Nel        : 80
 T(el)      :   300.0
 intcut     :    25.0
 scfconv/Eh :  0.100E-05
   qconv/e  :  0.100E-03
 intneglect :  0.100E-07
 broydamp   :      0.250
 iter      E             dE          RMSdq      gap      omega  full diag
   1    -50.5625907 -0.505626E+02  0.707E+00    8.16       0.0  T
   2    -50.6114211 -0.488305E-01  0.498E+00    7.39       1.0  T
   3    -50.6509711 -0.395499E-01  0.116E+00    5.60       1.0  T
   4    -50.6544006 -0.342949E-02  0.666E-01    5.82       1.0  T
   5    -50.6558979 -0.149737E-02  0.257E-01    5.93       1.0  T
   6    -50.6561917 -0.293795E-03  0.158E-01    5.95       1.0  T
   7    -50.6563501 -0.158399E-03  0.432E-02    5.93       1.0  T
   8    -50.6563590 -0.889948E-05  0.249E-02    5.93       1.0  T
   9    -50.6563625 -0.348115E-05  0.937E-03    5.94       2.1  T
  10    -50.6563629 -0.386810E-06  0.274E-03    5.95       7.2  T
  11    -50.6563629 -0.203393E-07  0.118E-03    5.94      16.6  T
  12    -50.6563629 -0.612340E-08  0.393E-04    5.95      49.9  T
  13    -50.6563629 -0.562999E-09  0.158E-04    5.95     123.8  T
speedup  0.96
cpu  time for SCC    0.01 s
wall time for SCC    0.01 s

   *** convergence criteria satisfied after 13 iterations ***

          eigenvalues
 #    :          28         29         30         31         32         33         34         35
 occ. :        2.000      2.000      2.000      2.000      2.000      2.000      2.000      2.000
 eps  :       -12.850    -12.814    -12.542    -12.325    -12.253    -12.217    -12.117    -12.054
 #    :          36         37         38         39         40         41         42         43
 occ. :        2.000      2.000      2.000      2.000      2.000      0.000      0.000      0.000
 eps  :       -11.875    -10.640    -10.353    -10.340    -10.267     -4.322     -1.519     -0.936
 #    :          44         45         46         47         48         49         50         51
 occ. :        0.000      0.000      0.000      0.000      0.000      0.000      0.000      0.000
 eps  :        -0.463      0.999      1.129      1.687      2.706      3.411      3.729      4.949


   #   Z            q   n(s)   n(p)   n(d)      C6AA      α(0)
   1  16 S      1.617  1.632  1.818  0.932    90.666    16.026
   2   8 O     -0.678  1.763  4.915  0.000    28.114     7.109
   3   8 O     -0.626  1.772  4.854  0.000    26.757     6.935
   4   8 O     -0.597  1.761  4.837  0.000    25.093     6.762
   5   8 O     -0.599  1.762  4.837  0.000    25.128     6.767
   6   1 H      0.380  0.620  0.000  0.000     0.520     1.131
   7   1 H      0.376  0.624  0.000  0.000     0.530     1.142
   8   8 O     -0.855  1.833  5.022  0.000    33.297     7.737
   9   1 H      0.207  0.793  0.000  0.000     1.086     1.637
  10   8 O     -0.857  1.826  5.031  0.000    33.332     7.742
  11   1 H      0.203  0.797  0.000  0.000     1.106     1.652
  12   8 O     -0.661  1.754  4.907  0.000    26.705     6.975
  13   1 H      0.279  0.721  0.000  0.000     0.788     1.395
  14   1 H      0.348  0.652  0.000  0.000     0.590     1.206
  15   8 O     -0.599  1.739  4.860  0.000    25.153     6.769
  16   1 H      0.325  0.675  0.000  0.000     0.650     1.266
  17   1 H      0.287  0.713  0.000  0.000     0.761     1.370
  18   8 O     -0.468  1.663  4.805  0.000    22.161     6.358
  19   1 H      0.399  0.601  0.000  0.000     0.480     1.084
  20   1 H      0.378  0.622  0.000  0.000     0.527     1.141
  21   1 H      0.400  0.600  0.000  0.000     0.479     1.084
  22   7 N     -0.338  1.273  4.064  0.000    28.678     7.954
  23   1 H      0.210  0.790  0.000  0.000     1.056     1.610
  24   1 H      0.271  0.729  0.000  0.000     0.807     1.407
  25   1 H      0.297  0.703  0.000  0.000     0.721     1.329
  26   1 H      0.302  0.698  0.000  0.000     0.706     1.315

 Mol. C6AA /au·bohr⁶  :       5486.080652
 Mol. C8AA /au·bohr⁸  :     118805.604649
 Mol. α(0) /au        :        106.904371

 
 Wiberg/Mayer (AO) data. WBOs > 0.1 written file <wbo>
 largest (>0.05) Wiberg bond orders for each atom
           total WBO             WBO to atom ...
     1  S   4.794    O    3 1.484    O    2 1.383    O    5 0.992    O    4 0.908
     2  O   1.755    S    1 1.383    O    3 0.137    O    5 0.100    O    4 0.096
     3  O   1.816    S    1 1.484    O    2 0.137    O    4 0.095    O    5 0.088
     4  O   1.969    S    1 0.908    H    7 0.786    O    2 0.096    O    3 0.095    O    5 0.057
     5  O   1.985    S    1 0.992    H    6 0.690    O    2 0.100    O    3 0.088    O    4 0.057    O    8 0.051
     6  H   0.856    O    5 0.690    O    8 0.151
     7  H   0.859    O    4 0.786    O   12 0.054
     8  O   1.604    H    9 0.947    H   21 0.182    H    6 0.151    H   25 0.138    N   22 0.064    O   18 0.058    O    5 0.051
     9  H   0.957    O    8 0.947
    10  O   1.592    H   11 0.944    H   19 0.187    H   26 0.144    H   14 0.131    N   22 0.065    O   18 0.059    O   12 0.052
    11  H   0.959    O   10 0.944
    12  O   1.838    H   13 0.911    H   14 0.746    H    7 0.054    O   10 0.052
    13  H   0.922    O   12 0.911
    14  H   0.879    O   12 0.746    O   10 0.131
    15  O   1.870    H   17 0.913    H   16 0.857    H   24 0.051
    16  H   0.894    O   15 0.857
    17  H   0.918    O   15 0.913
    18  O   2.268    H   20 0.821    H   21 0.653    H   19 0.648    O   10 0.059    O    8 0.058
    19  H   0.841    O   18 0.648    O   10 0.187
    20  H   0.857    O   18 0.821
    21  H   0.840    O   18 0.653    O    8 0.182
    22  N   3.521    H   23 0.951    H   24 0.870    H   25 0.769    H   26 0.760    O   10 0.065    O    8 0.064
    23  H   0.956    N   22 0.951
    24  H   0.927    N   22 0.870    O   15 0.051
    25  H   0.912    N   22 0.769    O    8 0.138
    26  H   0.909    N   22 0.760    O   10 0.144
 MOs/occ written to file <molden.input>
 
molecular dipole:
                 x           y           z       tot (Debye)
 q only:        1.737      -1.835      -0.020
   full:        2.017      -1.890       0.166       7.039
molecular quadrupole (traceless):
                xx          xy          yy          xz          yz          zz
 q only:       -6.129      14.126      -2.656      -5.283       4.868       8.786
  q+dip:       -5.638      16.164      -3.378      -0.929       6.359       9.016
   full:       -5.633      16.273      -3.358      -0.417       6.639       8.991

SCC energy    :     -50.6563629
rep           :       0.2771892
ES            :       0.2941958
AES           :      -0.0552824
AXC           :      -0.0056353
disp          :      -0.0192341
XB            :       0.0000000
fix           :       0.0000000
total E       :     -50.3787781
atomizationE  :       4.9090823     3080.50
(atE without considering molecular charge,
 total energy contains solvation terms)
H-L gap (eV)  :          5.9453
           ------------------------------------------------- 
          |                 ===============                 |
          |                   A N C O P T                   |
          |                 ===============                 |
          |          Approximate Normal Coordinate          |
          |           Rational Function Optimizer           |
           ------------------------------------------------- 
dumping coords to <xtbopt.coord> and <xtbopt.log>
 optlevel               2
 Maxcycle             520
 Maxmicro              25
 Econv         1.000000000000000E-007
 Gconv         2.000000000000000E-004
 Maxdispl       1.00000000000000     
 Hlow          5.000000000000000E-003
 S6             20.0000000000000     
 Nvar               72

generating ANC from model Hessian ...
 Shifting diagonal of input Hessian by   4.619202435784770E-003
 Lowest  eigenvalues of input Hessian
   -0.000000   -0.000000   -0.000000    0.000000    0.000000    0.000000
    0.005000    0.005450    0.005661    0.006081    0.006268    0.006844
    0.007794    0.007997    0.008467    0.009678    0.010939    0.011103
 Highest eigenvalues
    1.448230    1.564616    1.598893    1.951772    2.767857    3.589391
 
cpu  time for ANC gen    0.02 s
wall time for ANC gen    0.03 s
................................................................................
.............................. CYCLE    1 ......................................
................................................................................
   1    -50.6563629 -0.506564E+02  0.518E-05    5.95       0.0  T
   2    -50.6563629 -0.498090E-11  0.403E-05    5.95     486.4  T
   3    -50.6563629 -0.521538E-11  0.152E-05    5.95    1291.5  T
speedup  1.03
cpu  time for SCC    0.00 s
wall time for SCC    0.00 s
speedup  0.95
cpu  time for grad    0.01 s
wall time for grad    0.01 s
 E :    -50.37877807  G :  0.187225    pred/act E change:  0.000D+00  0.316D-07
Maxdispl :   0.0941   ||displ|| :   0.2695   Lambda : -0.334D-01
Largest |displ|/coords:  0.0941 (  55)  0.0807 (  44)  0.0731 (  21)
................................................................................
.............................. CYCLE    2 ......................................
................................................................................
   1    -50.6677498 -0.506677E+02  0.337E-01    6.67       0.0  T
   2    -50.6679806 -0.230791E-03  0.249E-01    6.73       1.0  T
   3    -50.6680769 -0.963254E-04  0.749E-02    6.84       1.0  T
   4    -50.6680947 -0.177923E-04  0.258E-02    6.85       1.0  T
   5    -50.6680963 -0.160470E-05  0.715E-03    6.84       2.7  T
   6    -50.6680964 -0.108590E-06  0.336E-03    6.84       5.8  T
   7    -50.6680964 -0.150779E-07  0.149E-03    6.84      13.2  T
speedup  0.97
cpu  time for SCC    0.01 s
wall time for SCC    0.01 s
speedup  0.99
cpu  time for grad    0.01 s
wall time for grad    0.01 s
 E :    -50.40379593  G :  0.098833    pred/act E change:  0.000D+00 -0.250D-01
Maxdispl :   0.1009   ||displ|| :   0.2820   Lambda : -0.129D-01
Largest |displ|/coords:  0.1009 (  24)  0.0965 (  21)  0.0762 (  17)
................................................................................
.............................. CYCLE    3 ......................................
................................................................................
   1    -50.6729045 -0.506729E+02  0.289E-01    7.39       0.0  T
   2    -50.6731158 -0.211271E-03  0.211E-01    7.46       1.0  T
   3    -50.6731971 -0.812832E-04  0.665E-02    7.58       1.0  T
   4    -50.6732111 -0.140928E-04  0.194E-02    7.58       1.0  T
   5    -50.6732122 -0.107988E-05  0.449E-03    7.57       4.4  T
   6    -50.6732123 -0.410676E-07  0.252E-03    7.57       7.8  T
speedup  0.91
cpu  time for SCC    0.00 s
wall time for SCC    0.01 s
speedup  1.03
cpu  time for grad    0.01 s
wall time for grad    0.01 s
 E :    -50.41414756  G :  0.061860    pred/act E change: -0.179D-01 -0.104D-01
Maxdispl :   0.1060   ||displ|| :   0.3044   Lambda : -0.649D-02
Largest |displ|/coords:  0.1060 (  21)  0.1054 (  10)  0.0940 (   7)
................................................................................
.............................. CYCLE    4 ......................................
................................................................................
   1    -50.6751244 -0.506751E+02  0.244E-01    7.95       0.0  T
   2    -50.6752996 -0.175184E-03  0.176E-01    8.01       1.0  T
   3    -50.6753676 -0.680080E-04  0.592E-02    8.11       1.0  T
   4    -50.6753771 -0.952336E-05  0.145E-02    8.11       1.4  T
   5    -50.6753777 -0.554479E-06  0.358E-03    8.10       5.5  T
   6    -50.6753777 -0.214211E-07  0.206E-03    8.10       9.5  T
speedup  1.11
cpu  time for SCC    0.01 s
wall time for SCC    0.01 s
speedup  1.04
cpu  time for grad    0.01 s
wall time for grad    0.01 s
 E :    -50.41940793  G :  0.041197    pred/act E change: -0.697D-02 -0.526D-02
Maxdispl :   0.1583   ||displ|| :   0.4517   Lambda : -0.649D-02
Largest |displ|/coords:  0.1583 (  21)  0.1187 (   8)  0.1183 (  10)
................................................................................
.............................. CYCLE    5 ......................................
................................................................................
   1    -50.6746269 -0.506746E+02  0.383E-01    8.60       0.0  T
   2    -50.6750972 -0.470385E-03  0.274E-01    8.70       1.0  T
   3    -50.6752783 -0.181034E-03  0.974E-02    8.84       1.0  T
   4    -50.6753026 -0.243493E-04  0.229E-02    8.85       1.0  T
   5    -50.6753039 -0.128654E-05  0.638E-03    8.84       3.1  T
   6    -50.6753040 -0.603048E-07  0.355E-03    8.84       5.5  T
   7    -50.6753040 -0.236854E-07  0.130E-03    8.84      15.0  T
speedup  0.95
cpu  time for SCC    0.01 s
wall time for SCC    0.01 s
speedup  0.97
cpu  time for grad    0.01 s
wall time for grad    0.01 s
 E :    -50.42323084  G :  0.026417    pred/act E change: -0.354D-02 -0.382D-02
Maxdispl :   0.1771   ||displ|| :   0.4244   Lambda : -0.274D-02
Largest |displ|/coords:  0.1771 (   5)  0.1596 (   1)  0.1565 (  10)
................................................................................
.............................. CYCLE    6 ......................................
................................................................................
   1    -50.6764572 -0.506765E+02  0.288E-01    9.00       0.0  T
   2    -50.6765569 -0.997143E-04  0.212E-01    9.01       1.0  T
   3    -50.6765965 -0.395709E-04  0.513E-02    9.03       1.0  T
   4    -50.6766099 -0.133709E-04  0.995E-03    9.03       2.0  T
   5    -50.6766100 -0.155784E-06  0.472E-03    9.03       4.2  T
   6    -50.6766101 -0.233079E-07  0.207E-03    9.03       9.5  T
speedup  0.91
cpu  time for SCC    0.00 s
wall time for SCC    0.01 s
speedup  0.96
cpu  time for grad    0.01 s
wall time for grad    0.01 s
 E :    -50.42357025  G :  0.029052    pred/act E change: -0.391D-02 -0.339D-03
Maxdispl :   0.0969   ||displ|| :   0.2462   Lambda : -0.246D-02
Largest |displ|/coords:  0.0969 (   8)  0.0879 (   5)  0.0848 (   3)
................................................................................
.............................. CYCLE    7 ......................................
................................................................................
   1    -50.6770581 -0.506771E+02  0.214E-01    8.98       0.0  T
   2    -50.6770828 -0.247311E-04  0.161E-01    8.97       1.0  T
   3    -50.6770959 -0.130258E-04  0.295E-02    8.97       1.0  T
   4    -50.6770997 -0.381227E-05  0.679E-03    8.97       2.9  T
   5    -50.6770998 -0.148705E-06  0.247E-03    8.97       7.9  T
   6    -50.6770998 -0.523988E-08  0.137E-03    8.97      14.3  T
speedup  0.93
cpu  time for SCC    0.00 s
wall time for SCC    0.01 s
speedup  1.02
cpu  time for grad    0.01 s
wall time for grad    0.01 s
 E :    -50.42509762  G :  0.025893    pred/act E change: -0.162D-02 -0.153D-02
Maxdispl :   0.1166   ||displ|| :   0.2978   Lambda : -0.197D-02
Largest |displ|/coords:  0.1166 (   9)  0.1085 (  10)  0.1017 (   3)
................................................................................
.............................. CYCLE    8 ......................................
................................................................................
   1    -50.6815818 -0.506816E+02  0.198E-01    8.88       0.0  T
   2    -50.6816129 -0.311338E-04  0.147E-01    8.87       1.0  T
   3    -50.6816298 -0.169101E-04  0.367E-02    8.86       1.0  T
   4    -50.6816341 -0.430426E-05  0.102E-02    8.86       1.9  T
   5    -50.6816343 -0.186512E-06  0.341E-03    8.86       5.8  T
   6    -50.6816343 -0.142485E-07  0.179E-03    8.86      10.9  T
speedup  1.11
cpu  time for SCC    0.01 s
wall time for SCC    0.01 s
speedup  1.04
cpu  time for grad    0.01 s
wall time for grad    0.01 s
 E :    -50.42556837  G :  0.023021    pred/act E change: -0.130D-02 -0.471D-03
Maxdispl :   0.1009   ||displ|| :   0.2973   Lambda : -0.177D-02
Largest |displ|/coords:  0.1009 (   5)  0.0919 (   9)  0.0897 (  11)
................................................................................
.............................. CYCLE    9 ......................................
................................................................................
   1    -50.6770475 -0.506770E+02  0.251E-01    8.80       0.0  T
   2    -50.6770845 -0.369254E-04  0.187E-01    8.80       1.0  T
   3    -50.6771053 -0.208017E-04  0.370E-02    8.79       1.0  T
   4    -50.6771108 -0.558871E-05  0.979E-03    8.79       2.0  T
   5    -50.6771111 -0.232153E-06  0.395E-03    8.79       5.0  T
   6    -50.6771111 -0.158171E-07  0.213E-03    8.79       9.2  T
speedup  0.91
cpu  time for SCC    0.00 s
wall time for SCC    0.01 s
speedup  0.96
cpu  time for grad    0.01 s
wall time for grad    0.01 s
 E :    -50.42668399  G :  0.025978    pred/act E change: -0.107D-02 -0.112D-02
Maxdispl :   0.1423   ||displ|| :   0.3188   Lambda : -0.182D-02
Largest |displ|/coords:  0.1423 (   4)  0.1002 (  10)  0.0942 (   7)
................................................................................
.............................. CYCLE   10 ......................................
................................................................................
   1    -50.6845966 -0.506846E+02  0.253E-01    8.76       0.0  T
   2    -50.6846360 -0.394281E-04  0.190E-01    8.76       1.0  T
   3    -50.6846641 -0.280991E-04  0.406E-02    8.76       1.0  T
   4    -50.6846696 -0.549201E-05  0.120E-02    8.76       1.6  T
   5    -50.6846699 -0.229937E-06  0.404E-03    8.76       4.9  T
   6    -50.6846699 -0.163569E-07  0.195E-03    8.76      10.1  T
speedup  1.11
cpu  time for SCC    0.01 s
wall time for SCC    0.01 s
speedup  1.04
cpu  time for grad    0.01 s
wall time for grad    0.01 s
 E :    -50.42642360  G :  0.052387    pred/act E change: -0.962D-03  0.260D-03
Maxdispl :   0.1532   ||displ|| :   0.3468   Lambda : -0.579D-02
Largest |displ|/coords:  0.1532 (  13)  0.1342 (   1)  0.1050 (   4)
................................................................................
.............................. CYCLE   11 ......................................
................................................................................
   1    -50.6759208 -0.506759E+02  0.421E-01    8.76       0.0  T
   2    -50.6760439 -0.123071E-03  0.316E-01    8.76       1.0  T
   3    -50.6761314 -0.874824E-04  0.637E-02    8.77       1.0  T
   4    -50.6761478 -0.164787E-04  0.164E-02    8.76       1.2  T
   5    -50.6761482 -0.318275E-06  0.651E-03    8.77       3.0  T
   6    -50.6761482 -0.779784E-07  0.333E-03    8.77       5.9  T
   7    -50.6761483 -0.222449E-07  0.742E-04    8.76      26.4  T
speedup  0.94
cpu  time for SCC    0.01 s
wall time for SCC    0.01 s
speedup  0.97
cpu  time for grad    0.01 s
wall time for grad    0.01 s
 E :    -50.42537793  G :  0.063128    pred/act E change: -0.100D-02  0.105D-02
Maxdispl :   0.1262   ||displ|| :   0.3839   Lambda : -0.103D-01
Largest |displ|/coords:  0.1262 (  15)  0.1213 (  13)  0.1053 (  20)
................................................................................
.............................. CYCLE   12 ......................................
................................................................................
   1    -50.6874185 -0.506874E+02  0.470E-01    8.80       0.0  T
   2    -50.6875856 -0.167082E-03  0.353E-01    8.79       1.0  T
   3    -50.6877161 -0.130581E-03  0.723E-02    8.78       1.0  T
   4    -50.6877364 -0.202878E-04  0.189E-02    8.79       1.0  T
   5    -50.6877369 -0.475936E-06  0.851E-03    8.79       2.3  T
   6    -50.6877370 -0.478838E-07  0.365E-03    8.79       5.4  T
   7    -50.6877370 -0.275992E-07  0.777E-04    8.79      25.2  T
speedup  0.94
cpu  time for SCC    0.01 s
wall time for SCC    0.01 s
speedup  0.97
cpu  time for grad    0.01 s
wall time for grad    0.01 s
 E :    -50.42656604  G :  0.061754    pred/act E change: -0.324D-02 -0.119D-02
Maxdispl :   0.0811   ||displ|| :   0.2570   Lambda : -0.574D-02
Largest |displ|/coords:  0.0811 (  12)  0.0735 (   5)  0.0695 (  15)
................................................................................
.............................. CYCLE   13 ......................................
................................................................................
   1    -50.6826619 -0.506827E+02  0.317E-01    8.75       0.0  T
   2    -50.6827274 -0.654467E-04  0.239E-01    8.76       1.0  T
   3    -50.6827783 -0.509100E-04  0.449E-02    8.77       1.0  T
   4    -50.6827863 -0.807070E-05  0.100E-02    8.76       2.0  T
   5    -50.6827865 -0.118316E-06  0.490E-03    8.76       4.0  T
   6    -50.6827865 -0.446694E-07  0.186E-03    8.77      10.5  T
speedup  1.09
cpu  time for SCC    0.01 s
wall time for SCC    0.01 s
speedup  1.01
cpu  time for grad    0.01 s
wall time for grad    0.01 s
 E :    -50.42835532  G :  0.039420    pred/act E change: -0.593D-02 -0.179D-02
Maxdispl :   0.0634   ||displ|| :   0.1609   Lambda : -0.172D-02
Largest |displ|/coords:  0.0634 (   5)  0.0625 (  20)  0.0490 (  26)
................................................................................
.............................. CYCLE   14 ......................................
................................................................................
   1    -50.6842431 -0.506842E+02  0.140E-01    8.77       0.0  T
   2    -50.6842751 -0.319498E-04  0.103E-01    8.77       1.0  T
   3    -50.6842935 -0.184502E-04  0.311E-02    8.76       1.0  T
   4    -50.6842969 -0.340478E-05  0.788E-03    8.76       2.5  T
   5    -50.6842971 -0.152251E-06  0.298E-03    8.76       6.6  T
   6    -50.6842971 -0.118454E-07  0.160E-03    8.76      12.3  T
speedup  0.93
cpu  time for SCC    0.00 s
wall time for SCC    0.01 s
speedup  0.96
cpu  time for grad    0.01 s
wall time for grad    0.01 s
 E :    -50.42945497  G :  0.030003    pred/act E change: -0.306D-02 -0.110D-02
Maxdispl :   0.0700   ||displ|| :   0.2570   Lambda : -0.205D-02
Largest |displ|/coords:  0.0700 (  22)  0.0697 (  33)  0.0686 (   2)
................................................................................
.............................. CYCLE   15 ......................................
................................................................................
   1    -50.6895733 -0.506896E+02  0.197E-01    8.75       0.0  T
   2    -50.6896491 -0.758294E-04  0.147E-01    8.74       1.0  T
   3    -50.6896905 -0.413698E-04  0.506E-02    8.73       1.0  T
   4    -50.6896986 -0.810138E-05  0.147E-02    8.73       1.3  T
   5    -50.6896991 -0.527539E-06  0.538E-03    8.73       3.6  T
   6    -50.6896991 -0.388908E-07  0.263E-03    8.73       7.4  T
speedup  0.93
cpu  time for SCC    0.00 s
wall time for SCC    0.01 s
speedup  0.96
cpu  time for grad    0.01 s
wall time for grad    0.01 s
 E :    -50.43100349  G :  0.038987    pred/act E change: -0.880D-03 -0.155D-02
Maxdispl :   0.1649   ||displ|| :   0.5246   Lambda : -0.500D-02
Largest |displ|/coords:  0.1649 (   5)  0.1496 (  20)  0.1495 (  22)
................................................................................
.............................. CYCLE   16 ......................................
................................................................................
   1    -50.7062640 -0.507063E+02  0.433E-01    8.74       0.0  T
   2    -50.7067127 -0.448691E-03  0.322E-01    8.72       1.0  T
   3    -50.7069719 -0.259218E-03  0.117E-01    8.66       1.0  T
   4    -50.7070135 -0.415926E-04  0.367E-02    8.65       1.0  T
   5    -50.7070166 -0.314391E-05  0.133E-02    8.66       1.5  T
   6    -50.7070168 -0.218148E-06  0.699E-03    8.66       2.8  T
   7    -50.7070169 -0.671713E-07  0.195E-03    8.66      10.0  T
   8    -50.7070169 -0.617199E-08  0.495E-04    8.66      39.6  T
speedup  0.97
cpu  time for SCC    0.01 s
wall time for SCC    0.01 s
speedup  0.98
cpu  time for grad    0.01 s
wall time for grad    0.02 s
 E :    -50.43508523  G :  0.064164    pred/act E change: -0.109D-02 -0.408D-02
Maxdispl :   0.1598   ||displ|| :   0.3517   Lambda : -0.491D-02
Largest |displ|/coords:  0.1598 (   5)  0.1185 (  22)  0.0841 (  33)
................................................................................
.............................. CYCLE   17 ......................................
................................................................................
   1    -50.7106537 -0.507107E+02  0.316E-01    8.64       0.0  T
   2    -50.7107756 -0.121872E-03  0.238E-01    8.62       1.0  T
   3    -50.7108537 -0.781701E-04  0.616E-02    8.57       1.0  T
   4    -50.7108687 -0.149145E-04  0.192E-02    8.57       1.0  T
   5    -50.7108696 -0.889383E-06  0.759E-03    8.57       2.6  T
   6    -50.7108696 -0.651396E-07  0.389E-03    8.57       5.0  T
   7    -50.7108696 -0.243240E-07  0.105E-03    8.57      18.6  T
speedup  1.09
cpu  time for SCC    0.01 s
wall time for SCC    0.01 s
speedup  1.03
cpu  time for grad    0.01 s
wall time for grad    0.01 s
 E :    -50.43820641  G :  0.058199    pred/act E change: -0.319D-02 -0.312D-02
Maxdispl :   0.1144   ||displ|| :   0.2374   Lambda : -0.562D-02
Largest |displ|/coords:  0.1144 (  11)  0.0693 (  15)  0.0667 (   7)
................................................................................
.............................. CYCLE   18 ......................................
................................................................................
   1    -50.7190014 -0.507190E+02  0.221E-01    8.58       0.0  T
   2    -50.7190649 -0.635040E-04  0.162E-01    8.58       1.0  T
   3    -50.7191107 -0.458238E-04  0.445E-02    8.58       1.0  T
   4    -50.7191165 -0.576322E-05  0.102E-02    8.58       1.9  T
   5    -50.7191166 -0.151867E-06  0.500E-03    8.58       3.9  T
   6    -50.7191166 -0.285529E-07  0.209E-03    8.58       9.4  T
speedup  0.93
cpu  time for SCC    0.01 s
wall time for SCC    0.01 s
speedup  0.96
cpu  time for grad    0.01 s
wall time for grad    0.01 s
 E :    -50.44023858  G :  0.046041    pred/act E change: -0.276D-02 -0.203D-02
Maxdispl :   0.1735   ||displ|| :   0.4291   Lambda : -0.447D-02
Largest |displ|/coords:  0.1735 (   5)  0.1285 (  13)  0.1149 (  22)
................................................................................
.............................. CYCLE   19 ......................................
................................................................................
   1    -50.7230272 -0.507230E+02  0.356E-01    8.57       0.0  T
   2    -50.7231911 -0.163941E-03  0.265E-01    8.53       1.0  T
   3    -50.7232954 -0.104329E-03  0.710E-02    8.44       1.0  T
   4    -50.7233138 -0.184050E-04  0.196E-02    8.44       1.0  T
   5    -50.7233146 -0.721284E-06  0.856E-03    8.44       2.3  T
   6    -50.7233146 -0.783946E-07  0.431E-03    8.44       4.5  T
   7    -50.7233147 -0.253722E-07  0.112E-03    8.44      17.6  T
speedup  0.94
cpu  time for SCC    0.01 s
wall time for SCC    0.01 s
speedup  0.97
cpu  time for grad    0.01 s
wall time for grad    0.01 s
 E :    -50.44275029  G :  0.035889    pred/act E change: -0.297D-02 -0.251D-02
Maxdispl :   0.1760   ||displ|| :   0.4078   Lambda : -0.603D-02
Largest |displ|/coords:  0.1760 (  19)  0.1464 (   5)  0.1227 (  20)
................................................................................
.............................. CYCLE   20 ......................................
................................................................................
   1    -50.7118501 -0.507119E+02  0.345E-01    8.40       0.0  T
   2    -50.7120242 -0.174088E-03  0.252E-01    8.41       1.0  T
   3    -50.7121380 -0.113770E-03  0.743E-02    8.43       1.0  T
   4    -50.7121546 -0.166619E-04  0.212E-02    8.43       1.0  T
   5    -50.7121553 -0.651614E-06  0.723E-03    8.43       2.7  T
   6    -50.7121554 -0.808472E-07  0.394E-03    8.43       5.0  T
   7    -50.7121554 -0.263273E-07  0.107E-03    8.43      18.2  T
speedup  0.95
cpu  time for SCC    0.01 s
wall time for SCC    0.01 s
speedup  0.98
cpu  time for grad    0.01 s
wall time for grad    0.01 s
 E :    -50.44058018  G :  0.082821    pred/act E change: -0.264D-02  0.217D-02
Maxdispl :   0.1513   ||displ|| :   0.3802   Lambda : -0.141D-01
Largest |displ|/coords:  0.1513 (  20)  0.1045 (  23)  0.0944 (  19)
................................................................................
.............................. CYCLE   21 ......................................
................................................................................
   1    -50.7382751 -0.507383E+02  0.382E-01    8.51       0.0  T
   2    -50.7385346 -0.259448E-03  0.282E-01    8.50       1.0  T
   3    -50.7387185 -0.183954E-03  0.910E-02    8.48       1.0  T
   4    -50.7387416 -0.231166E-04  0.289E-02    8.47       1.0  T
   5    -50.7387432 -0.155163E-05  0.977E-03    8.47       2.0  T
   6    -50.7387433 -0.710157E-07  0.464E-03    8.47       4.2  T
   7    -50.7387433 -0.402511E-07  0.125E-03    8.48      15.7  T
speedup  0.95
cpu  time for SCC    0.01 s
wall time for SCC    0.01 s
speedup  0.97
cpu  time for grad    0.01 s
wall time for grad    0.01 s
 E :    -50.44157507  G :  0.069191    pred/act E change: -0.352D-02 -0.995D-03
Maxdispl :   0.0840   ||displ|| :   0.3100   Lambda : -0.131D-01
Largest |displ|/coords:  0.0840 (  23)  0.0796 (  22)  0.0794 (   5)
................................................................................
.............................. CYCLE   22 ......................................
................................................................................
   1    -50.7009306 -0.507009E+02  0.327E-01    8.36       0.0  T
   2    -50.7011627 -0.232170E-03  0.241E-01    8.38       1.0  T
   3    -50.7013229 -0.160120E-03  0.820E-02    8.43       1.0  T
   4    -50.7013419 -0.190131E-04  0.285E-02    8.44       1.0  T
   5    -50.7013432 -0.136965E-05  0.889E-03    8.44       2.2  T
   6    -50.7013434 -0.143802E-06  0.466E-03    8.44       4.2  T
   7    -50.7013434 -0.225406E-07  0.124E-03    8.44      15.9  T
speedup  0.97
cpu  time for SCC    0.01 s
wall time for SCC    0.01 s
speedup  0.91
cpu  time for grad    0.01 s
wall time for grad    0.01 s
 E :    -50.44151597  G :  0.063154    pred/act E change: -0.810D-02  0.591D-04
Maxdispl :   0.1054   ||displ|| :   0.3189   Lambda : -0.116D-01
Largest |displ|/coords:  0.1054 (  22)  0.1049 (   6)  0.0910 (   7)
................................................................................
.............................. CYCLE   23 ......................................
................................................................................
   1    -50.7441411 -0.507441E+02  0.353E-01    8.59       0.0  T
   2    -50.7443004 -0.159298E-03  0.262E-01    8.57       1.0  T
   3    -50.7444298 -0.129328E-03  0.688E-02    8.51       1.0  T
   4    -50.7444422 -0.124124E-04  0.227E-02    8.52       1.0  T
   5    -50.7444429 -0.757404E-06  0.813E-03    8.52       2.4  T
   6    -50.7444430 -0.630946E-07  0.407E-03    8.52       4.8  T
   7    -50.7444430 -0.289143E-07  0.109E-03    8.52      17.9  T
speedup  0.95
cpu  time for SCC    0.01 s
wall time for SCC    0.01 s
speedup  0.97
cpu  time for grad    0.01 s
wall time for grad    0.01 s
 E :    -50.44232822  G :  0.069143    pred/act E change: -0.716D-02 -0.812D-03
Maxdispl :   0.1049   ||displ|| :   0.3044   Lambda : -0.118D-01
Largest |displ|/coords:  0.1049 (   8)  0.1023 (   7)  0.0857 (   6)
................................................................................
.............................. CYCLE   24 ......................................
................................................................................
   1    -50.7082899 -0.507083E+02  0.333E-01    8.36       0.0  T
   2    -50.7084434 -0.153529E-03  0.244E-01    8.39       1.0  T
   3    -50.7085533 -0.109881E-03  0.663E-02    8.44       1.0  T
   4    -50.7085642 -0.109293E-04  0.222E-02    8.44       1.0  T
   5    -50.7085651 -0.901327E-06  0.771E-03    8.43       2.5  T
   6    -50.7085652 -0.105166E-06  0.400E-03    8.43       4.9  T
   7    -50.7085653 -0.215098E-07  0.116E-03    8.43      16.9  T
speedup  0.95
cpu  time for SCC    0.01 s
wall time for SCC    0.01 s
speedup  1.04
cpu  time for grad    0.01 s
wall time for grad    0.01 s
 E :    -50.44259441  G :  0.053857    pred/act E change: -0.638D-02 -0.266D-03
Maxdispl :   0.1008   ||displ|| :   0.2932   Lambda : -0.845D-02
Largest |displ|/coords:  0.1008 (   4)  0.0998 (   7)  0.0991 (   6)
................................................................................
.............................. CYCLE   25 ......................................
................................................................................
   1    -50.7315382 -0.507315E+02  0.293E-01    8.58       0.0  T
   2    -50.7316237 -0.855142E-04  0.217E-01    8.56       1.0  T
   3    -50.7316901 -0.663750E-04  0.548E-02    8.51       1.0  T
   4    -50.7316968 -0.665911E-05  0.189E-02    8.51       1.0  T
   5    -50.7316975 -0.698274E-06  0.617E-03    8.51       3.2  T
   6    -50.7316975 -0.430716E-07  0.320E-03    8.51       6.1  T
   7    -50.7316975 -0.213960E-07  0.847E-04    8.51      23.1  T
speedup  1.13
cpu  time for SCC    0.01 s
wall time for SCC    0.01 s
speedup  1.04
cpu  time for grad    0.01 s
wall time for grad    0.01 s
 E :    -50.44445489  G :  0.040032    pred/act E change: -0.643D-02 -0.186D-02
Maxdispl :   0.0592   ||displ|| :   0.1432   Lambda : -0.240D-02
Largest |displ|/coords:  0.0592 (   4)  0.0542 (   8)  0.0487 (  24)

generating ANC from model Hessian ...
 Shifting diagonal of input Hessian by   5.078798702001014E-003
 Lowest  eigenvalues of input Hessian
    0.005000   -0.000000    0.000000    0.000000    0.000000    0.000000
    0.000000    0.005709    0.005990    0.006255    0.007145    0.007241
    0.007935    0.008492    0.009269    0.010497    0.011914    0.012235
 Highest eigenvalues
    1.398836    1.400730    1.439447    2.269899    3.497279    3.700626
 
cpu  time for ANC gen    0.03 s
wall time for ANC gen    0.03 s
................................................................................
.............................. CYCLE   26 ......................................
................................................................................
   1    -50.7282716 -0.507283E+02  0.131E-01    8.48       0.0  T
   2    -50.7282841 -0.125700E-04  0.974E-02    8.49       1.0  T
   3    -50.7282938 -0.968013E-05  0.222E-02    8.50       1.0  T
   4    -50.7282950 -0.117635E-05  0.768E-03    8.50       2.6  T
   5    -50.7282951 -0.108289E-06  0.243E-03    8.50       8.1  T
   6    -50.7282951 -0.730387E-08  0.129E-03    8.50      15.2  T
   7    -50.7282951 -0.303446E-08  0.344E-04    8.50      57.0  T
   8    -50.7282951 -0.252001E-09  0.121E-04    8.50     161.6  T
speedup  0.96
cpu  time for SCC    0.01 s
wall time for SCC    0.01 s
speedup  1.00
cpu  time for grad    0.02 s
wall time for grad    0.02 s
 E :    -50.44558632  G :  0.014801    pred/act E change:  0.000D+00 -0.113D-02
Maxdispl :   0.1493   ||displ|| :   0.2810   Lambda : -0.121D-02
Largest |displ|/coords:  0.1493 (   6)  0.1167 (   9)  0.0825 (  14)
................................................................................
.............................. CYCLE   27 ......................................
................................................................................
   1    -50.7264058 -0.507264E+02  0.271E-01    8.50       0.0  T
   2    -50.7264145 -0.864043E-05  0.205E-01    8.50       1.0  T
   3    -50.7264249 -0.104365E-04  0.155E-02    8.50       1.3  T
   4    -50.7264253 -0.445193E-06  0.441E-03    8.50       4.4  T
   5    -50.7264254 -0.175116E-07  0.218E-03    8.50       9.0  T
   6    -50.7264254 -0.613073E-08  0.888E-04    8.50      22.1  T
speedup  1.07
cpu  time for SCC    0.01 s
wall time for SCC    0.01 s
speedup  1.01
cpu  time for grad    0.01 s
wall time for grad    0.01 s
 E :    -50.44650931  G :  0.009846    pred/act E change:  0.000D+00 -0.923D-03
Maxdispl :   0.2329   ||displ|| :   0.4245   Lambda : -0.115D-02
Largest |displ|/coords:  0.2329 (   9)  0.2020 (   6)  0.1361 (  14)
................................................................................
.............................. CYCLE   28 ......................................
................................................................................
   1    -50.7214094 -0.507214E+02  0.372E-01    8.50       0.0  T
   2    -50.7214240 -0.146406E-04  0.279E-01    8.50       1.0  T
   3    -50.7214395 -0.154738E-04  0.262E-02    8.50       1.0  T
   4    -50.7214406 -0.116301E-05  0.676E-03    8.50       2.9  T
   5    -50.7214407 -0.528081E-07  0.318E-03    8.50       6.2  T
   6    -50.7214407 -0.147553E-07  0.155E-03    8.50      12.6  T
   7    -50.7214407 -0.340505E-08  0.364E-04    8.50      53.8  T
speedup  1.08
cpu  time for SCC    0.01 s
wall time for SCC    0.01 s
speedup  1.01
cpu  time for grad    0.01 s
wall time for grad    0.01 s
 E :    -50.44705630  G :  0.025999    pred/act E change: -0.655D-03 -0.547D-03
Maxdispl :   0.0952   ||displ|| :   0.1778   Lambda : -0.719D-03
Largest |displ|/coords:  0.0952 (   6)  0.0789 (   1)  0.0591 (   2)
................................................................................
.............................. CYCLE   29 ......................................
................................................................................
   1    -50.7254428 -0.507254E+02  0.103E-01    8.51       0.0  T
   2    -50.7254471 -0.434234E-05  0.751E-02    8.51       1.0  T
   3    -50.7254505 -0.336141E-05  0.146E-02    8.51       1.3  T
   4    -50.7254509 -0.400989E-06  0.442E-03    8.51       4.4  T
   5    -50.7254509 -0.294254E-07  0.128E-03    8.51      15.4  T
speedup  1.06
cpu  time for SCC    0.00 s
wall time for SCC    0.00 s
speedup  1.01
cpu  time for grad    0.01 s
wall time for grad    0.01 s
 E :    -50.44755671  G :  0.014762    pred/act E change: -0.676D-03 -0.500D-03
Maxdispl :   0.2327   ||displ|| :   0.4404   Lambda : -0.109D-02
Largest |displ|/coords:  0.2327 (   6)  0.2258 (   9)  0.1488 (   1)
................................................................................
.............................. CYCLE   30 ......................................
................................................................................
   1    -50.7295491 -0.507295E+02  0.301E-01    8.54       0.0  T
   2    -50.7295632 -0.141094E-04  0.226E-01    8.54       1.0  T
   3    -50.7295771 -0.138967E-04  0.281E-02    8.54       1.0  T
   4    -50.7295782 -0.115924E-05  0.922E-03    8.54       2.1  T
   5    -50.7295783 -0.845474E-07  0.242E-03    8.54       8.1  T
   6    -50.7295783 -0.733750E-08  0.148E-03    8.54      13.3  T
speedup  0.91
cpu  time for SCC    0.00 s
wall time for SCC    0.01 s
speedup  1.01
cpu  time for grad    0.01 s
wall time for grad    0.01 s
 E :    -50.44813092  G :  0.021698    pred/act E change: -0.371D-03 -0.574D-03
Maxdispl :   0.1842   ||displ|| :   0.3924   Lambda : -0.109D-02
Largest |displ|/coords:  0.1842 (   9)  0.1517 (   6)  0.1387 (  14)
................................................................................
.............................. CYCLE   31 ......................................
................................................................................
   1    -50.7311651 -0.507312E+02  0.289E-01    8.52       0.0  T
   2    -50.7311843 -0.192290E-04  0.215E-01    8.53       1.0  T
   3    -50.7311992 -0.149321E-04  0.321E-02    8.53       1.0  T
   4    -50.7312014 -0.214399E-05  0.101E-02    8.52       1.9  T
   5    -50.7312015 -0.133099E-06  0.288E-03    8.53       6.8  T
   6    -50.7312015 -0.110898E-07  0.170E-03    8.53      11.6  T
speedup  0.89
cpu  time for SCC    0.00 s
wall time for SCC    0.01 s
speedup  0.94
cpu  time for grad    0.01 s
wall time for grad    0.01 s
 E :    -50.44869847  G :  0.015789    pred/act E change: -0.648D-03 -0.568D-03
Maxdispl :   0.1564   ||displ|| :   0.2656   Lambda : -0.610D-03
Largest |displ|/coords:  0.1564 (   9)  0.0848 (  14)  0.0797 (   2)
................................................................................
.............................. CYCLE   32 ......................................
................................................................................
   1    -50.7291708 -0.507292E+02  0.203E-01    8.54       0.0  T
   2    -50.7291767 -0.592443E-05  0.153E-01    8.53       1.0  T
   3    -50.7291828 -0.615168E-05  0.156E-02    8.53       1.3  T
   4    -50.7291834 -0.560452E-06  0.542E-03    8.53       3.6  T
   5    -50.7291834 -0.375990E-07  0.203E-03    8.53       9.6  T
   6    -50.7291834 -0.603049E-08  0.118E-03    8.53      16.6  T
speedup  1.09
cpu  time for SCC    0.01 s
wall time for SCC    0.01 s
speedup  1.01
cpu  time for grad    0.01 s
wall time for grad    0.01 s
 E :    -50.44905050  G :  0.015174    pred/act E change: -0.629D-03 -0.352D-03
Maxdispl :   0.1103   ||displ|| :   0.2131   Lambda : -0.737D-03
Largest |displ|/coords:  0.1103 (  14)  0.0858 (   6)  0.0579 (   9)
................................................................................
.............................. CYCLE   33 ......................................
................................................................................
   1    -50.7352935 -0.507353E+02  0.147E-01    8.64       0.0  T
   2    -50.7353013 -0.783907E-05  0.108E-01    8.63       1.0  T
   3    -50.7353074 -0.608904E-05  0.234E-02    8.61       1.0  T
   4    -50.7353082 -0.771545E-06  0.759E-03    8.62       2.6  T
   5    -50.7353082 -0.724747E-07  0.159E-03    8.62      12.3  T
   6    -50.7353082 -0.186603E-08  0.101E-03    8.62      19.5  T
speedup  1.09
cpu  time for SCC    0.01 s
wall time for SCC    0.01 s
speedup  1.01
cpu  time for grad    0.01 s
wall time for grad    0.01 s
 E :    -50.44922689  G :  0.016509    pred/act E change: -0.326D-03 -0.176D-03
Maxdispl :   0.1859   ||displ|| :   0.3508   Lambda : -0.879D-03
Largest |displ|/coords:  0.1859 (   9)  0.1393 (  14)  0.1141 (  10)
................................................................................
.............................. CYCLE   34 ......................................
................................................................................
   1    -50.7314903 -0.507315E+02  0.299E-01    8.64       0.0  T
   2    -50.7315086 -0.182315E-04  0.225E-01    8.63       1.0  T
   3    -50.7315262 -0.175905E-04  0.261E-02    8.63       1.0  T
   4    -50.7315281 -0.191826E-05  0.737E-03    8.63       2.7  T
   5    -50.7315281 -0.494308E-07  0.338E-03    8.63       5.8  T
   6    -50.7315281 -0.156630E-07  0.163E-03    8.63      12.1  T
   7    -50.7315281 -0.418884E-08  0.400E-04    8.63      49.0  T
speedup  0.95
cpu  time for SCC    0.01 s
wall time for SCC    0.01 s
speedup  1.03
cpu  time for grad    0.01 s
wall time for grad    0.01 s
 E :    -50.44958674  G :  0.022894    pred/act E change: -0.385D-03 -0.360D-03
Maxdispl :   0.0751   ||displ|| :   0.1986   Lambda : -0.865D-03
Largest |displ|/coords:  0.0751 (   9)  0.0666 (   5)  0.0641 (  14)
................................................................................
.............................. CYCLE   35 ......................................
................................................................................
   1    -50.7323139 -0.507323E+02  0.148E-01    8.58       0.0  T
   2    -50.7323262 -0.123736E-04  0.109E-01    8.58       1.0  T
   3    -50.7323339 -0.761764E-05  0.235E-02    8.59       1.0  T
   4    -50.7323352 -0.131204E-05  0.627E-03    8.59       3.1  T
   5    -50.7323353 -0.107741E-06  0.205E-03    8.59       9.6  T
   6    -50.7323353 -0.461904E-08  0.118E-03    8.59      16.6  T
speedup  0.91
cpu  time for SCC    0.00 s
wall time for SCC    0.01 s
speedup  1.01
cpu  time for grad    0.01 s
wall time for grad    0.01 s
 E :    -50.44967382  G :  0.016102    pred/act E change: -0.494D-03 -0.871D-04
Maxdispl :   0.0608   ||displ|| :   0.1200   Lambda : -0.727D-03
Largest |displ|/coords:  0.0608 (   5)  0.0479 (  14)  0.0359 (   6)
................................................................................
.............................. CYCLE   36 ......................................
................................................................................
   1    -50.7344479 -0.507344E+02  0.816E-02    8.62       0.0  T
   2    -50.7344500 -0.201755E-05  0.608E-02    8.62       1.0  T
   3    -50.7344517 -0.168588E-05  0.103E-02    8.61       1.9  T
   4    -50.7344518 -0.193634E-06  0.294E-03    8.61       6.7  T
   5    -50.7344519 -0.145412E-07  0.859E-04    8.61      22.8  T
speedup  1.06
cpu  time for SCC    0.00 s
wall time for SCC    0.00 s
speedup  1.01
cpu  time for grad    0.01 s
wall time for grad    0.01 s
 E :    -50.45004951  G :  0.007937    pred/act E change: -0.450D-03 -0.376D-03
Maxdispl :   0.1474   ||displ|| :   0.2867   Lambda : -0.557D-03
Largest |displ|/coords:  0.1474 (   9)  0.1315 (  14)  0.0831 (   7)
................................................................................
.............................. CYCLE   37 ......................................
................................................................................
   1    -50.7327137 -0.507327E+02  0.237E-01    8.64       0.0  T
   2    -50.7327235 -0.978043E-05  0.179E-01    8.64       1.0  T
   3    -50.7327350 -0.114794E-04  0.189E-02    8.64       1.0  T
   4    -50.7327357 -0.667619E-06  0.768E-03    8.64       2.6  T
   5    -50.7327357 -0.652407E-07  0.246E-03    8.64       8.0  T
   6    -50.7327357 -0.682955E-08  0.157E-03    8.64      12.5  T
speedup  1.03
cpu  time for SCC    0.01 s
wall time for SCC    0.01 s
speedup  0.99
cpu  time for grad    0.01 s
wall time for grad    0.01 s
 E :    -50.45015954  G :  0.019926    pred/act E change: -0.369D-03 -0.110D-03
Maxdispl :   0.0398   ||displ|| :   0.0934   Lambda : -0.461D-03
Largest |displ|/coords:  0.0398 (  10)  0.0355 (   4)  0.0304 (   8)
................................................................................
.............................. CYCLE   38 ......................................
................................................................................
   1    -50.7338878 -0.507339E+02  0.664E-02    8.64       0.0  T
   2    -50.7338902 -0.235117E-05  0.497E-02    8.64       1.0  T
   3    -50.7338917 -0.148811E-05  0.929E-03    8.64       2.1  T
   4    -50.7338920 -0.324730E-06  0.269E-03    8.64       7.3  T
   5    -50.7338920 -0.162614E-07  0.962E-04    8.64      20.4  T
speedup  1.09
cpu  time for SCC    0.01 s
wall time for SCC    0.00 s
speedup  1.01
cpu  time for grad    0.01 s
wall time for grad    0.01 s
 E :    -50.45047663  G :  0.010139    pred/act E change: -0.301D-03 -0.317D-03
Maxdispl :   0.0989   ||displ|| :   0.2363   Lambda : -0.458D-03
Largest |displ|/coords:  0.0989 (  10)  0.0979 (   9)  0.0928 (   2)
................................................................................
.............................. CYCLE   39 ......................................
................................................................................
   1    -50.7351559 -0.507352E+02  0.170E-01    8.62       0.0  T
   2    -50.7351652 -0.931395E-05  0.127E-01    8.63       1.0  T
   3    -50.7351706 -0.534903E-05  0.196E-02    8.65       1.0  T
   4    -50.7351719 -0.138861E-05  0.468E-03    8.64       4.2  T
   5    -50.7351720 -0.628132E-07  0.182E-03    8.64      10.8  T
   6    -50.7351720 -0.304257E-08  0.103E-03    8.64      19.1  T
speedup  0.91
cpu  time for SCC    0.00 s
wall time for SCC    0.01 s
speedup  0.94
cpu  time for grad    0.01 s
wall time for grad    0.01 s
 E :    -50.45073572  G :  0.008438    pred/act E change: -0.232D-03 -0.259D-03
Maxdispl :   0.1371   ||displ|| :   0.3148   Lambda : -0.532D-03
Largest |displ|/coords:  0.1371 (  10)  0.0966 (   5)  0.0905 (   8)
................................................................................
.............................. CYCLE   40 ......................................
................................................................................
   1    -50.7352414 -0.507352E+02  0.249E-01    8.66       0.0  T
   2    -50.7352487 -0.726884E-05  0.187E-01    8.66       1.0  T
   3    -50.7352563 -0.762578E-05  0.185E-02    8.67       1.1  T
   4    -50.7352569 -0.643873E-06  0.597E-03    8.67       3.3  T
   5    -50.7352570 -0.411295E-07  0.225E-03    8.67       8.7  T
   6    -50.7352570 -0.668583E-08  0.118E-03    8.67      16.7  T
speedup  1.11
cpu  time for SCC    0.01 s
wall time for SCC    0.01 s
speedup  1.02
cpu  time for grad    0.01 s
wall time for grad    0.01 s
 E :    -50.45085742  G :  0.015243    pred/act E change: -0.242D-03 -0.122D-03
Maxdispl :   0.0613   ||displ|| :   0.1265   Lambda : -0.376D-03
Largest |displ|/coords:  0.0613 (   1)  0.0568 (   2)  0.0389 (   8)
................................................................................
.............................. CYCLE   41 ......................................
................................................................................
   1    -50.7346284 -0.507346E+02  0.907E-02    8.66       0.0  T
   2    -50.7346324 -0.399355E-05  0.676E-02    8.66       1.0  T
   3    -50.7346345 -0.216576E-05  0.146E-02    8.68       1.3  T
   4    -50.7346350 -0.484193E-06  0.426E-03    8.68       4.6  T
   5    -50.7346351 -0.331059E-07  0.119E-03    8.67      16.5  T
   6    -50.7346351 -0.190019E-08  0.664E-04    8.67      29.5  T
speedup  0.91
cpu  time for SCC    0.00 s
wall time for SCC    0.01 s
speedup  0.94
cpu  time for grad    0.01 s
wall time for grad    0.01 s
 E :    -50.45103188  G :  0.011222    pred/act E change: -0.292D-03 -0.174D-03
Maxdispl :   0.0613   ||displ|| :   0.1451   Lambda : -0.261D-03
Largest |displ|/coords:  0.0613 (   1)  0.0573 (   4)  0.0529 (  14)
................................................................................
.............................. CYCLE   42 ......................................
................................................................................
   1    -50.7387434 -0.507387E+02  0.106E-01    8.69       0.0  T
   2    -50.7387474 -0.398385E-05  0.781E-02    8.69       1.0  T
   3    -50.7387498 -0.244536E-05  0.156E-02    8.70       1.3  T
   4    -50.7387503 -0.455537E-06  0.466E-03    8.69       4.2  T
   5    -50.7387503 -0.234391E-07  0.112E-03    8.69      17.6  T
   6    -50.7387503 -0.105069E-08  0.674E-04    8.69      29.1  T
speedup  1.09
cpu  time for SCC    0.01 s
wall time for SCC    0.01 s
speedup  1.01
cpu  time for grad    0.01 s
wall time for grad    0.01 s
 E :    -50.45108738  G :  0.010227    pred/act E change: -0.191D-03 -0.555D-04
Maxdispl :   0.0845   ||displ|| :   0.1660   Lambda : -0.244D-03
Largest |displ|/coords:  0.0845 (  10)  0.0670 (   9)  0.0646 (   1)
................................................................................
.............................. CYCLE   43 ......................................
................................................................................
   1    -50.7351772 -0.507352E+02  0.136E-01    8.66       0.0  T
   2    -50.7351827 -0.556292E-05  0.103E-01    8.67       1.0  T
   3    -50.7351869 -0.416153E-05  0.146E-02    8.68       1.3  T
   4    -50.7351877 -0.769730E-06  0.504E-03    8.68       3.9  T
   5    -50.7351877 -0.462052E-07  0.171E-03    8.68      11.5  T
   6    -50.7351877 -0.370805E-08  0.982E-04    8.68      20.0  T
speedup  0.89
cpu  time for SCC    0.00 s
wall time for SCC    0.01 s
speedup  1.00
cpu  time for grad    0.01 s
wall time for grad    0.01 s
 E :    -50.45116795  G :  0.010740    pred/act E change: -0.133D-03 -0.806D-04
Maxdispl :   0.0882   ||displ|| :   0.2255   Lambda : -0.398D-03
Largest |displ|/coords:  0.0882 (   1)  0.0726 (  14)  0.0658 (  13)
................................................................................
.............................. CYCLE   44 ......................................
................................................................................
   1    -50.7338757 -0.507339E+02  0.168E-01    8.66       0.0  T
   2    -50.7338809 -0.522788E-05  0.126E-01    8.66       1.0  T
   3    -50.7338850 -0.402759E-05  0.156E-02    8.66       1.3  T
   4    -50.7338856 -0.655862E-06  0.561E-03    8.66       3.5  T
   5    -50.7338857 -0.387305E-07  0.149E-03    8.66      13.1  T
   6    -50.7338857 -0.185994E-08  0.912E-04    8.66      21.5  T
speedup  0.91
cpu  time for SCC    0.00 s
wall time for SCC    0.01 s
speedup  0.95
cpu  time for grad    0.01 s
wall time for grad    0.01 s
 E :    -50.45123993  G :  0.013938    pred/act E change: -0.125D-03 -0.720D-04
Maxdispl :   0.0258   ||displ|| :   0.0602   Lambda : -0.223D-03
Largest |displ|/coords:  0.0258 (  12)  0.0177 (   5)  0.0176 (   3)
................................................................................
.............................. CYCLE   45 ......................................
................................................................................
   1    -50.7356851 -0.507357E+02  0.460E-02    8.67       0.0  T
   2    -50.7356860 -0.893554E-06  0.343E-02    8.67       1.0  T
   3    -50.7356865 -0.555405E-06  0.691E-03    8.67       2.8  T
   4    -50.7356866 -0.115509E-06  0.238E-03    8.67       8.2  T
   5    -50.7356866 -0.640760E-08  0.574E-04    8.67      34.2  T
speedup  0.87
cpu  time for SCC    0.00 s
wall time for SCC    0.00 s
speedup  1.02
cpu  time for grad    0.01 s
wall time for grad    0.01 s
 E :    -50.45137242  G :  0.005603    pred/act E change: -0.209D-03 -0.132D-03
Maxdispl :   0.0622   ||displ|| :   0.1236   Lambda : -0.829D-04
Largest |displ|/coords:  0.0622 (   1)  0.0383 (  13)  0.0381 (   2)
................................................................................
.............................. CYCLE   46 ......................................
................................................................................
   1    -50.7360382 -0.507360E+02  0.936E-02    8.67       0.0  T
   2    -50.7360395 -0.128456E-05  0.699E-02    8.67       1.0  T
   3    -50.7360407 -0.119478E-05  0.879E-03    8.67       2.2  T
   4    -50.7360408 -0.136027E-06  0.190E-03    8.67      10.3  T
   5    -50.7360408 -0.591646E-08  0.936E-04    8.67      21.0  T
speedup  1.09
cpu  time for SCC    0.00 s
wall time for SCC    0.00 s
speedup  1.00
cpu  time for grad    0.01 s
wall time for grad    0.01 s
 E :    -50.45143252  G :  0.005120    pred/act E change: -0.112D-03 -0.601D-04
Maxdispl :   0.0924   ||displ|| :   0.2188   Lambda : -0.135D-03
Largest |displ|/coords:  0.0924 (   1)  0.0759 (   6)  0.0700 (  13)
................................................................................
.............................. CYCLE   47 ......................................
................................................................................
   1    -50.7367450 -0.507367E+02  0.161E-01    8.67       0.0  T
   2    -50.7367485 -0.346610E-05  0.121E-01    8.67       1.0  T
   3    -50.7367516 -0.304177E-05  0.147E-02    8.68       1.3  T
   4    -50.7367519 -0.381935E-06  0.291E-03    8.68       6.7  T
   5    -50.7367519 -0.135386E-07  0.152E-03    8.68      12.9  T
speedup  1.11
cpu  time for SCC    0.00 s
wall time for SCC    0.00 s
speedup  1.02
cpu  time for grad    0.01 s
wall time for grad    0.01 s
 E :    -50.45151980  G :  0.005563    pred/act E change: -0.421D-04 -0.873D-04
Maxdispl :   0.0691   ||displ|| :   0.1791   Lambda : -0.103D-03
Largest |displ|/coords:  0.0691 (   1)  0.0569 (   2)  0.0540 (   6)
................................................................................
.............................. CYCLE   48 ......................................
................................................................................
   1    -50.7371598 -0.507372E+02  0.135E-01    8.69       0.0  T
   2    -50.7371624 -0.263238E-05  0.102E-01    8.69       1.0  T
   3    -50.7371647 -0.231096E-05  0.101E-02    8.69       1.9  T
   4    -50.7371651 -0.339102E-06  0.385E-03    8.69       5.1  T
   5    -50.7371651 -0.145494E-07  0.118E-03    8.69      16.6  T
   6    -50.7371651 -0.222185E-08  0.693E-04    8.69      28.3  T
speedup  0.91
cpu  time for SCC    0.00 s
wall time for SCC    0.01 s
speedup  1.02
cpu  time for grad    0.01 s
wall time for grad    0.01 s
 E :    -50.45159446  G :  0.005338    pred/act E change: -0.707D-04 -0.747D-04
Maxdispl :   0.0622   ||displ|| :   0.2071   Lambda : -0.126D-03
Largest |displ|/coords:  0.0622 (   6)  0.0599 (   2)  0.0587 (   1)
................................................................................
.............................. CYCLE   49 ......................................
................................................................................
   1    -50.7376715 -0.507377E+02  0.146E-01    8.71       0.0  T
   2    -50.7376745 -0.305269E-05  0.110E-01    8.71       1.0  T
   3    -50.7376772 -0.267579E-05  0.109E-02    8.71       1.8  T
   4    -50.7376776 -0.407425E-06  0.418E-03    8.71       4.7  T
   5    -50.7376776 -0.162673E-07  0.123E-03    8.71      15.9  T
   6    -50.7376776 -0.195880E-08  0.682E-04    8.71      28.8  T
speedup  0.93
cpu  time for SCC    0.00 s
wall time for SCC    0.01 s
speedup  0.96
cpu  time for grad    0.01 s
wall time for grad    0.01 s
 E :    -50.45167835  G :  0.005290    pred/act E change: -0.531D-04 -0.839D-04
Maxdispl :   0.0960   ||displ|| :   0.2423   Lambda : -0.113D-03
Largest |displ|/coords:  0.0960 (   1)  0.0703 (  10)  0.0680 (  18)
................................................................................
.............................. CYCLE   50 ......................................
................................................................................
   1    -50.7374803 -0.507375E+02  0.172E-01    8.72       0.0  T
   2    -50.7374836 -0.330714E-05  0.129E-01    8.72       1.0  T
   3    -50.7374872 -0.360811E-05  0.121E-02    8.72       1.6  T
   4    -50.7374875 -0.307789E-06  0.442E-03    8.72       4.4  T
   5    -50.7374875 -0.190903E-07  0.142E-03    8.72      13.8  T
   6    -50.7374875 -0.293474E-08  0.770E-04    8.72      25.5  T
speedup  1.07
cpu  time for SCC    0.01 s
wall time for SCC    0.01 s
speedup  1.01
cpu  time for grad    0.01 s
wall time for grad    0.01 s
 E :    -50.45174313  G :  0.008636    pred/act E change: -0.659D-04 -0.648D-04
Maxdispl :   0.0960   ||displ|| :   0.2366   Lambda : -0.217D-03
Largest |displ|/coords:  0.0960 (   3)  0.0812 (  18)  0.0749 (   5)
................................................................................
.............................. CYCLE   51 ......................................
................................................................................
   1    -50.7435671 -0.507436E+02  0.133E-01    8.80       0.0  T
   2    -50.7435720 -0.489826E-05  0.991E-02    8.79       1.0  T
   3    -50.7435757 -0.369089E-05  0.154E-02    8.79       1.3  T
   4    -50.7435763 -0.637886E-06  0.518E-03    8.79       3.8  T
   5    -50.7435764 -0.354293E-07  0.150E-03    8.79      13.0  T
   6    -50.7435764 -0.243617E-08  0.879E-04    8.79      22.3  T
speedup  0.91
cpu  time for SCC    0.00 s
wall time for SCC    0.01 s
speedup  0.95
cpu  time for grad    0.01 s
wall time for grad    0.01 s
 E :    -50.45171768  G :  0.014702    pred/act E change: -0.598D-04  0.255D-04
Maxdispl :   0.1109   ||displ|| :   0.2693   Lambda : -0.386D-03
Largest |displ|/coords:  0.1109 (  10)  0.1106 (   1)  0.0863 (   9)
................................................................................
.............................. CYCLE   52 ......................................
................................................................................
   1    -50.7387144 -0.507387E+02  0.186E-01    8.72       0.0  T
   2    -50.7387189 -0.447663E-05  0.140E-01    8.72       1.0  T
   3    -50.7387235 -0.457769E-05  0.133E-02    8.73       1.5  T
   4    -50.7387239 -0.378204E-06  0.434E-03    8.73       4.5  T
   5    -50.7387239 -0.270704E-07  0.152E-03    8.73      12.9  T
   6    -50.7387239 -0.314821E-08  0.816E-04    8.73      24.0  T
speedup  1.11
cpu  time for SCC    0.01 s
wall time for SCC    0.01 s
speedup  1.03
cpu  time for grad    0.01 s
wall time for grad    0.01 s
 E :    -50.45190910  G :  0.008360    pred/act E change: -0.115D-03 -0.191D-03
Maxdispl :   0.0353   ||displ|| :   0.0820   Lambda : -0.119D-03
Largest |displ|/coords:  0.0353 (  13)  0.0352 (   1)  0.0279 (   6)

generating ANC from model Hessian ...
 Shifting diagonal of input Hessian by   4.666963552788441E-003
 Lowest  eigenvalues of input Hessian
   -0.000000   -0.000000   -0.000000   -0.000000    0.000000    0.000000
    0.005000    0.005164    0.005802    0.005985    0.006459    0.006868
    0.007143    0.007898    0.008158    0.008968    0.009922    0.010357
 Highest eigenvalues
    1.387955    1.403140    1.428856    2.308588    3.473255    3.757847
 
cpu  time for ANC gen    0.03 s
wall time for ANC gen    0.03 s
................................................................................
.............................. CYCLE   53 ......................................
................................................................................
   1    -50.7392319 -0.507392E+02  0.588E-02    8.75       0.0  T
   2    -50.7392332 -0.128920E-05  0.425E-02    8.75       1.0  T
   3    -50.7392340 -0.791188E-06  0.919E-03    8.75       2.1  T
   4    -50.7392342 -0.132571E-06  0.290E-03    8.75       6.8  T
   5    -50.7392342 -0.107895E-07  0.689E-04    8.75      28.4  T
   6    -50.7392342 -0.660748E-09  0.380E-04    8.75      51.6  T
speedup  0.91
cpu  time for SCC    0.00 s
wall time for SCC    0.01 s
speedup  0.98
cpu  time for grad    0.01 s
wall time for grad    0.01 s
 E :    -50.45197779  G :  0.005440    pred/act E change:  0.000D+00 -0.687D-04
Maxdispl :   0.1109   ||displ|| :   0.1362   Lambda : -0.193D-03
Largest |displ|/coords:  0.1109 (   3)  0.0315 (   6)  0.0311 (   9)
................................................................................
.............................. CYCLE   54 ......................................
................................................................................
   1    -50.7398255 -0.507398E+02  0.105E-01    8.75       0.0  T
   2    -50.7398266 -0.106245E-05  0.793E-02    8.75       1.0  T
   3    -50.7398280 -0.145263E-05  0.423E-03    8.75       4.6  T
   4    -50.7398281 -0.413857E-07  0.173E-03    8.75      11.3  T
   5    -50.7398281 -0.283383E-08  0.726E-04    8.75      27.0  T
speedup  1.11
cpu  time for SCC    0.01 s
wall time for SCC    0.00 s
speedup  1.02
cpu  time for grad    0.01 s
wall time for grad    0.01 s
 E :    -50.45212579  G :  0.003960    pred/act E change:  0.000D+00 -0.148D-03
Maxdispl :   0.2892   ||displ|| :   0.3735   Lambda : -0.403D-03
Largest |displ|/coords:  0.2892 (   3)  0.1157 (   6)  0.0769 (  19)
................................................................................
.............................. CYCLE   55 ......................................
................................................................................
   1    -50.7389051 -0.507389E+02  0.272E-01    8.74       0.0  T
   2    -50.7389144 -0.930651E-05  0.206E-01    8.74       1.0  T
   3    -50.7389255 -0.110941E-04  0.143E-02    8.74       1.4  T
   4    -50.7389261 -0.661330E-06  0.486E-03    8.73       4.0  T
   5    -50.7389262 -0.193506E-07  0.242E-03    8.73       8.1  T
   6    -50.7389262 -0.111122E-07  0.923E-04    8.73      21.2  T
   7    -50.7389262 -0.219926E-08  0.192E-04    8.73     102.2  T
speedup  1.08
cpu  time for SCC    0.01 s
wall time for SCC    0.01 s
speedup  0.99
cpu  time for grad    0.01 s
wall time for grad    0.02 s
 E :    -50.45236959  G :  0.008859    pred/act E change: -0.985D-04 -0.244D-03
Maxdispl :   0.2270   ||displ|| :   0.3069   Lambda : -0.307D-03
Largest |displ|/coords:  0.2270 (   3)  0.1020 (  12)  0.0716 (   6)
................................................................................
.............................. CYCLE   56 ......................................
................................................................................
   1    -50.7382613 -0.507383E+02  0.181E-01    8.71       0.0  T
   2    -50.7382648 -0.348237E-05  0.137E-01    8.71       1.0  T
   3    -50.7382681 -0.330345E-05  0.863E-03    8.71       2.3  T
   4    -50.7382685 -0.385223E-06  0.423E-03    8.71       4.6  T
   5    -50.7382685 -0.291260E-07  0.126E-03    8.71      15.5  T
   6    -50.7382685 -0.119242E-08  0.703E-04    8.71      27.9  T
speedup  1.09
cpu  time for SCC    0.01 s
wall time for SCC    0.01 s
speedup  1.01
cpu  time for grad    0.01 s
wall time for grad    0.01 s
 E :    -50.45255825  G :  0.009389    pred/act E change: -0.230D-03 -0.189D-03
Maxdispl :   0.1802   ||displ|| :   0.2681   Lambda : -0.319D-03
Largest |displ|/coords:  0.1802 (   3)  0.0997 (  12)  0.0862 (   5)
................................................................................
.............................. CYCLE   57 ......................................
................................................................................
   1    -50.7402398 -0.507402E+02  0.117E-01    8.71       0.0  T
   2    -50.7402419 -0.211214E-05  0.883E-02    8.70       1.0  T
   3    -50.7402443 -0.239391E-05  0.669E-03    8.70       2.9  T
   4    -50.7402445 -0.146350E-06  0.283E-03    8.70       6.9  T
   5    -50.7402445 -0.866986E-08  0.904E-04    8.70      21.7  T
speedup  1.11
cpu  time for SCC    0.00 s
wall time for SCC    0.00 s
speedup  1.02
cpu  time for grad    0.01 s
wall time for grad    0.01 s
 E :    -50.45275743  G :  0.006251    pred/act E change: -0.168D-03 -0.199D-03
Maxdispl :   0.3562   ||displ|| :   0.4613   Lambda : -0.343D-03
Largest |displ|/coords:  0.3562 (   3)  0.1478 (   5)  0.1193 (   6)
................................................................................
.............................. CYCLE   58 ......................................
................................................................................
   1    -50.7377971 -0.507378E+02  0.228E-01    8.67       0.0  T
   2    -50.7378077 -0.105725E-04  0.172E-01    8.67       1.0  T
   3    -50.7378189 -0.111949E-04  0.160E-02    8.67       1.2  T
   4    -50.7378200 -0.109114E-05  0.528E-03    8.67       3.7  T
   5    -50.7378200 -0.277951E-07  0.262E-03    8.67       7.5  T
   6    -50.7378200 -0.112118E-07  0.111E-03    8.67      17.7  T
speedup  0.93
cpu  time for SCC    0.00 s
wall time for SCC    0.01 s
speedup  0.96
cpu  time for grad    0.01 s
wall time for grad    0.01 s
 E :    -50.45284037  G :  0.016743    pred/act E change: -0.171D-03 -0.829D-04
Maxdispl :   0.0685   ||displ|| :   0.1144   Lambda : -0.454D-03
Largest |displ|/coords:  0.0685 (  11)  0.0335 (  14)  0.0322 (  28)
................................................................................
.............................. CYCLE   59 ......................................
................................................................................
   1    -50.7421951 -0.507422E+02  0.745E-02    8.73       0.0  T
   2    -50.7421978 -0.272821E-05  0.557E-02    8.73       1.0  T
   3    -50.7421997 -0.191873E-05  0.949E-03    8.73       2.1  T
   4    -50.7422001 -0.360482E-06  0.244E-03    8.73       8.0  T
   5    -50.7422001 -0.762419E-08  0.110E-03    8.73      17.8  T
speedup  1.09
cpu  time for SCC    0.00 s
wall time for SCC    0.00 s
speedup  1.01
cpu  time for grad    0.01 s
wall time for grad    0.01 s
 E :    -50.45306590  G :  0.006897    pred/act E change: -0.208D-03 -0.226D-03
Maxdispl :   0.1839   ||displ|| :   0.2465   Lambda : -0.198D-03
Largest |displ|/coords:  0.1839 (   3)  0.0752 (  11)  0.0570 (  12)
................................................................................
.............................. CYCLE   60 ......................................
................................................................................
   1    -50.7399811 -0.507400E+02  0.125E-01    8.71       0.0  T
   2    -50.7399833 -0.214472E-05  0.944E-02    8.71       1.0  T
   3    -50.7399860 -0.275329E-05  0.637E-03    8.71       3.1  T
   4    -50.7399862 -0.114703E-06  0.235E-03    8.71       8.3  T
   5    -50.7399862 -0.544275E-08  0.115E-03    8.71      17.1  T
speedup  1.09
cpu  time for SCC    0.00 s
wall time for SCC    0.00 s
speedup  1.02
cpu  time for grad    0.01 s
wall time for grad    0.01 s
 E :    -50.45320605  G :  0.004786    pred/act E change: -0.230D-03 -0.140D-03
Maxdispl :   0.2692   ||displ|| :   0.3773   Lambda : -0.271D-03
Largest |displ|/coords:  0.2692 (   3)  0.1148 (  11)  0.0944 (   8)
................................................................................
.............................. CYCLE   61 ......................................
................................................................................
   1    -50.7373194 -0.507373E+02  0.207E-01    8.69       0.0  T
   2    -50.7373259 -0.642723E-05  0.157E-01    8.69       1.0  T
   3    -50.7373334 -0.756791E-05  0.126E-02    8.69       1.6  T
   4    -50.7373339 -0.500978E-06  0.443E-03    8.69       4.4  T
   5    -50.7373339 -0.256395E-07  0.199E-03    8.69       9.9  T
   6    -50.7373340 -0.606808E-08  0.991E-04    8.69      19.8  T
speedup  0.93
cpu  time for SCC    0.00 s
wall time for SCC    0.01 s
speedup  1.00
cpu  time for grad    0.01 s
wall time for grad    0.01 s
 E :    -50.45337508  G :  0.009212    pred/act E change: -0.105D-03 -0.169D-03
Maxdispl :   0.0786   ||displ|| :   0.1469   Lambda : -0.181D-03
Largest |displ|/coords:  0.0786 (   3)  0.0436 (   1)  0.0419 (  37)
................................................................................
.............................. CYCLE   62 ......................................
................................................................................
   1    -50.7377942 -0.507378E+02  0.106E-01    8.70       0.0  T
   2    -50.7377970 -0.278251E-05  0.800E-02    8.70       1.0  T
   3    -50.7377988 -0.180070E-05  0.101E-02    8.71       1.9  T
   4    -50.7377992 -0.434083E-06  0.313E-03    8.70       6.3  T
   5    -50.7377993 -0.231386E-07  0.989E-04    8.70      19.8  T
   6    -50.7377993 -0.861441E-09  0.599E-04    8.70      32.8  T
speedup  0.93
cpu  time for SCC    0.00 s
wall time for SCC    0.01 s
speedup  1.02
cpu  time for grad    0.01 s
wall time for grad    0.01 s
 E :    -50.45351268  G :  0.007705    pred/act E change: -0.155D-03 -0.138D-03
Maxdispl :   0.2366   ||displ|| :   0.3556   Lambda : -0.317D-03
Largest |displ|/coords:  0.2366 (   3)  0.1060 (  11)  0.0994 (  12)
................................................................................
.............................. CYCLE   63 ......................................
................................................................................
   1    -50.7369491 -0.507369E+02  0.211E-01    8.66       0.0  T
   2    -50.7369573 -0.818109E-05  0.159E-01    8.67       1.0  T
   3    -50.7369646 -0.727673E-05  0.158E-02    8.67       1.2  T
   4    -50.7369656 -0.102343E-05  0.557E-03    8.67       3.5  T
   5    -50.7369657 -0.509779E-07  0.187E-03    8.67      10.5  T
   6    -50.7369657 -0.326295E-08  0.106E-03    8.67      18.5  T
speedup  0.91
cpu  time for SCC    0.00 s
wall time for SCC    0.01 s
speedup  1.01
cpu  time for grad    0.01 s
wall time for grad    0.01 s
 E :    -50.45372091  G :  0.010603    pred/act E change: -0.923D-04 -0.208D-03
Maxdispl :   0.0962   ||displ|| :   0.2019   Lambda : -0.333D-03
Largest |displ|/coords:  0.0962 (   7)  0.0863 (   3)  0.0818 (  37)
................................................................................
.............................. CYCLE   64 ......................................
................................................................................
   1    -50.7399105 -0.507399E+02  0.149E-01    8.71       0.0  T
   2    -50.7399222 -0.117160E-04  0.111E-01    8.72       1.0  T
   3    -50.7399273 -0.515313E-05  0.210E-02    8.73       1.0  T
   4    -50.7399291 -0.172918E-05  0.604E-03    8.72       3.2  T
   5    -50.7399292 -0.125142E-06  0.145E-03    8.72      13.5  T
   6    -50.7399292 -0.882260E-09  0.876E-04    8.72      22.4  T
speedup  0.89
cpu  time for SCC    0.00 s
wall time for SCC    0.01 s
speedup  1.01
cpu  time for grad    0.01 s
wall time for grad    0.01 s
 E :    -50.45382620  G :  0.011253    pred/act E change: -0.178D-03 -0.105D-03
Maxdispl :   0.2793   ||displ|| :   0.3699   Lambda : -0.310D-03
Largest |displ|/coords:  0.2793 (   3)  0.0962 (  11)  0.0911 (  12)
................................................................................
.............................. CYCLE   65 ......................................
................................................................................
[...]
Maxdispl :   0.0118   ||displ|| :   0.0245   Lambda : -0.175D-05
Largest |displ|/coords:  0.0118 (   2)  0.0089 (  17)  0.0086 (   9)
................................................................................
.............................. CYCLE   91 ......................................
................................................................................
   1    -50.7401393 -0.507401E+02  0.153E-02    8.83       0.0  T
   2    -50.7401393 -0.468743E-07  0.116E-02    8.83       1.7  T
   3    -50.7401393 -0.409567E-07  0.136E-03    8.83      14.5  T
   4    -50.7401393 -0.663608E-08  0.542E-04    8.83      36.2  T
   5    -50.7401393 -0.308823E-09  0.162E-04    8.83     121.4  T
speedup  1.09
cpu  time for SCC    0.01 s
wall time for SCC    0.00 s
speedup  1.04
cpu  time for grad    0.01 s
wall time for grad    0.01 s
 E :    -50.45499700  G :  0.000546    pred/act E change: -0.105D-05 -0.123D-05
Maxdispl :   0.0080   ||displ|| :   0.0205   Lambda : -0.129D-05
Largest |displ|/coords:  0.0080 (   9)  0.0078 (  17)  0.0071 (   2)
................................................................................
.............................. CYCLE   92 ......................................
................................................................................
   1    -50.7401735 -0.507402E+02  0.126E-02    8.83       0.0  T
   2    -50.7401735 -0.302972E-07  0.947E-03    8.83       2.1  T
   3    -50.7401735 -0.272251E-07  0.125E-03    8.83      15.7  T
   4    -50.7401735 -0.382810E-08  0.447E-04    8.83      43.9  T
   5    -50.7401735 -0.238202E-09  0.131E-04    8.83     150.0  T
speedup  0.85
cpu  time for SCC    0.00 s
wall time for SCC    0.00 s
speedup  0.96
cpu  time for grad    0.01 s
wall time for grad    0.01 s
 E :    -50.45499790  G :  0.000401    pred/act E change: -0.875D-06 -0.898D-06
Maxdispl :   0.0060   ||displ|| :   0.0156   Lambda : -0.839D-06
Largest |displ|/coords:  0.0060 (   9)  0.0056 (  17)  0.0055 (  21)
................................................................................
.............................. CYCLE   93 ......................................
................................................................................
   1    -50.7401710 -0.507402E+02  0.972E-03    8.84       0.0  T
   2    -50.7401710 -0.141010E-07  0.727E-03    8.83       2.7  T
   3    -50.7401710 -0.136256E-07  0.912E-04    8.83      21.5  T
   4    -50.7401710 -0.146123E-08  0.303E-04    8.83      64.6  T
speedup  1.08
cpu  time for SCC    0.00 s
wall time for SCC    0.00 s
speedup  1.04
cpu  time for grad    0.01 s
wall time for grad    0.01 s
 E :    -50.45499847  G :  0.000301    pred/act E change: -0.645D-06 -0.573D-06
Maxdispl :   0.0040   ||displ|| :   0.0099   Lambda : -0.476D-06
Largest |displ|/coords:  0.0040 (   4)  0.0036 (  17)  0.0035 (  21)
................................................................................
.............................. CYCLE   94 ......................................
................................................................................
   1    -50.7401542 -0.507402E+02  0.612E-03    8.84       0.0  T
   2    -50.7401542 -0.526936E-08  0.458E-03    8.84       4.3  T
   3    -50.7401542 -0.602903E-08  0.568E-04    8.84      34.5  T
   4    -50.7401542 -0.361680E-09  0.152E-04    8.84     129.3  T
speedup  1.08
cpu  time for SCC    0.00 s
wall time for SCC    0.00 s
speedup  0.96
cpu  time for grad    0.01 s
wall time for grad    0.01 s
 E :    -50.45499881  G :  0.000268    pred/act E change: -0.419D-06 -0.339D-06
Maxdispl :   0.0042   ||displ|| :   0.0096   Lambda : -0.364D-06
Largest |displ|/coords:  0.0042 (   4)  0.0033 (  17)  0.0030 (  21)
................................................................................
.............................. CYCLE   95 ......................................
................................................................................
   1    -50.7401475 -0.507401E+02  0.614E-03    8.84       0.0  T
   2    -50.7401475 -0.400752E-08  0.461E-03    8.84       4.3  T
   3    -50.7401475 -0.489774E-08  0.488E-04    8.84      40.2  T
   4    -50.7401475 -0.221235E-09  0.126E-04    8.84     155.4  T
speedup  1.08
cpu  time for SCC    0.00 s
wall time for SCC    0.00 s
speedup  1.04
cpu  time for grad    0.01 s
wall time for grad    0.01 s
 E :    -50.45499907  G :  0.000240    pred/act E change: -0.238D-06 -0.253D-06
Maxdispl :   0.0035   ||displ|| :   0.0086   Lambda : -0.268D-06
Largest |displ|/coords:  0.0035 (   2)  0.0032 (   4)  0.0028 (  17)
................................................................................
.............................. CYCLE   96 ......................................
................................................................................
   1    -50.7401533 -0.507402E+02  0.527E-03    8.84       0.0  T
   2    -50.7401533 -0.361086E-08  0.396E-03    8.84       5.0  T
   3    -50.7401533 -0.407621E-08  0.457E-04    8.84      42.9  T
   4    -50.7401533 -0.272550E-09  0.179E-04    8.84     109.6  T
speedup  1.05
cpu  time for SCC    0.00 s
wall time for SCC    0.00 s
speedup  1.04
cpu  time for grad    0.01 s
wall time for grad    0.01 s
 E :    -50.45499926  G :  0.000194    pred/act E change: -0.182D-06 -0.194D-06
Maxdispl :   0.0049   ||displ|| :   0.0092   Lambda : -0.247D-06
Largest |displ|/coords:  0.0049 (   6)  0.0041 (   2)  0.0024 (  18)
................................................................................
.............................. CYCLE   97 ......................................
................................................................................
   1    -50.7401735 -0.507402E+02  0.537E-03    8.84       0.0  T
   2    -50.7401735 -0.393516E-08  0.403E-03    8.84       4.9  T
   3    -50.7401735 -0.385275E-08  0.447E-04    8.84      43.9  T
   4    -50.7401735 -0.387210E-09  0.168E-04    8.84     117.0  T
speedup  0.81
cpu  time for SCC    0.00 s
wall time for SCC    0.00 s
speedup  0.96
cpu  time for grad    0.01 s
wall time for grad    0.01 s
 E :    -50.45499944  G :  0.000197    pred/act E change: -0.134D-06 -0.177D-06
Maxdispl :   0.0054   ||displ|| :   0.0089   Lambda : -0.196D-06
Largest |displ|/coords:  0.0054 (   6)  0.0031 (   2)  0.0026 (  18)
................................................................................
.............................. CYCLE   98 ......................................
................................................................................
   1    -50.7401883 -0.507402E+02  0.511E-03    8.84       0.0  T
   2    -50.7401883 -0.418028E-08  0.385E-03    8.84       5.1  T
   3    -50.7401884 -0.421865E-08  0.359E-04    8.84      54.6  T
   4    -50.7401884 -0.430106E-09  0.128E-04    8.84     152.9  T
speedup  1.05
cpu  time for SCC    0.00 s
wall time for SCC    0.00 s
speedup  1.03
cpu  time for grad    0.01 s
wall time for grad    0.01 s
 E :    -50.45499958  G :  0.000234    pred/act E change: -0.124D-06 -0.141D-06
Maxdispl :   0.0054   ||displ|| :   0.0078   Lambda : -0.152D-06
Largest |displ|/coords:  0.0054 (   6)  0.0023 (   2)  0.0020 (   8)
................................................................................
.............................. CYCLE   99 ......................................
................................................................................
   1    -50.7402024 -0.507402E+02  0.440E-03    8.84       0.0  T
   2    -50.7402024 -0.418627E-08  0.332E-03    8.84       5.9  T
   3    -50.7402024 -0.290965E-08  0.329E-04    8.84      59.5  T
   4    -50.7402024 -0.675314E-09  0.142E-04    8.84     137.7  T
speedup  1.08
cpu  time for SCC    0.00 s
wall time for SCC    0.00 s
speedup  0.97
cpu  time for grad    0.01 s
wall time for grad    0.01 s
 E :    -50.45499969  G :  0.000218    pred/act E change: -0.977D-07 -0.111D-06
Maxdispl :   0.0035   ||displ|| :   0.0052   Lambda : -0.989D-07
Largest |displ|/coords:  0.0035 (   6)  0.0017 (   3)  0.0013 (  36)
................................................................................
.............................. CYCLE  100 ......................................
................................................................................
   1    -50.7402006 -0.507402E+02  0.303E-03    8.84       0.0  T
   2    -50.7402006 -0.277133E-08  0.230E-03    8.84       8.5  T
   3    -50.7402006 -0.149860E-08  0.295E-04    8.84      66.5  T
   4    -50.7402006 -0.505047E-09  0.121E-04    8.84     162.2  T
speedup  1.05
cpu  time for SCC    0.00 s
wall time for SCC    0.00 s
speedup  1.03
cpu  time for grad    0.01 s
wall time for grad    0.01 s
 E :    -50.45499976  G :  0.000137    pred/act E change: -0.762D-07 -0.716D-07
Maxdispl :   0.0019   ||displ|| :   0.0032   Lambda : -0.583D-07
Largest |displ|/coords:  0.0019 (   6)  0.0013 (   3)  0.0011 (  36)

   *** GEOMETRY OPTIMIZATION CONVERGED AFTER 100 ITERATIONS ***

------------------------------------------------------------------------
 total energy gain (kcal):     -0.0416
------------------------------------------------------------------------
================
 final structure:
================
$coord
       -3.19766120386370        2.60266370244443        0.48178309949433      S 
       -1.92127730268318        3.26036549427698        2.83565467342099      O 
       -5.00059720140948        4.35606249024065       -0.46498713315696      O 
       -0.93543831425686        2.47496630211708       -1.57295075564285      O 
       -4.11938328159571       -0.02786924526654        0.55352063422240      O 
       -3.73828606333862       -1.19734670408190       -2.13772770380654      H 
        0.53954644590420        2.48903283654420       -0.48310125554210      H 
       -3.10412893596097       -1.72883235697135       -3.83654959002638      O 
       -3.30397439067209       -0.24948762117297       -4.86743902342812      H 
        1.99187547235719       -2.86863780775423        2.61742236098597      O 
        2.65826069078121       -4.27719676415757        3.53826014100937      H 
        2.79269395333039        2.27987687852247        1.91391276846339      O 
        1.22680080307054        2.93019903380439        2.69131732298392      H 
        2.90804307996861        0.53312911127020        2.45928393854998      H 
        4.37313592829226        1.70623999213637       -3.00541503964595      O 
        4.40476007678358        2.18409739043391       -1.22926321386098      H 
        3.41296379960534        2.99512973919298       -3.84957718177073      H 
       -2.12971168323892       -1.46990402220713        4.74721663387886      O 
        0.35046261290159       -2.40456827669731        3.49481461346666      H 
       -1.90512090295420        0.25836106736100        5.29450232204153      H 
       -3.17165096365806       -1.23894856055066        3.21403685532046      H 
        1.59003912442758       -2.54669361504065       -2.49105640049144      N 
        2.28717367609119       -4.08373880841841       -3.40249361338617      H 
        2.69760961331518       -0.94339659420421       -2.87846555951968      H 
       -0.33139426881407       -2.19561631725946       -3.08583912844261      H 
        1.62525923565323       -2.83788736346915       -0.53685976513836      H 
$end
 
 Bond Distances (Angstroems)
 ---------------------------
S1-O2=1.4591         S1-O3=1.4220         S1-O4=1.6186         S1-O5=1.4755         O2-S1=1.4591         O3-S1=1.4220         
O4-S1=1.6186         O4-H7=0.9705         O5-S1=1.4755         H6-O8=0.9999         H7-O4=0.9705         O8-H6=0.9999         
O8-H9=0.9600         H9-O8=0.9600         O10-H11=0.9578       O10-H19=1.0151       H11-O10=0.9578       O12-H13=0.9871       
O12-H14=0.9703       H13-O12=0.9871       H14-O12=0.9703       O15-H16=0.9735       O15-H17=0.9607       H16-O15=0.9735       
H17-O15=0.9607       O18-H20=0.9667       O18-H21=0.9885       H19-O10=1.0151       H20-O18=0.9667       H21-O18=0.9885       
N22-H23=1.0150       N22-H24=1.0514       N22-H25=1.0805       N22-H26=1.0457       H23-N22=1.0150       H24-N22=1.0514       
H25-N22=1.0805       H26-N22=1.0457       
 N  H  Rav=1.0481 sigma=0.0232  Rmin=1.0150  Rmax=1.0805     4
 O  H  Rav=0.9773 sigma=0.0174  Rmin=0.9578  Rmax=1.0151    11
 S  O  Rav=1.4938 sigma=0.0746  Rmin=1.4220  Rmax=1.6186     4
 
 selected bond angles (degree)
 --------------------
O3-S1-O2=117.11                O4-S1-O2=103.95                O4-S1-O3=106.67                O5-S1-O2=110.86                
O5-S1-O3=113.76                O5-S1-O4=102.85                H7-O4-S1=101.26                H9-O8-H6=104.16                
H19-O10-H11=105.70             
 
 selected dihedral angles (degree)
 ---------------------------------
H7-O4-S1-O2= 12.70            H7-O4-S1-O3=137.07            H7-O4-S1-O5=257.04            
 
 CMA Distance (Angstroems)
 ---------------------------
R(CMA):  2.7063

========================================================================
 FINAL SINGLEPOINT CALCULATION ON OPTIMIZED GEOMETRY
========================================================================

 Ncao       : 65
 Nao        : 64
 Nshell     : 38
 Nel        : 80
 T(el)      :   300.0
 intcut     :    25.0
 scfconv/Eh :  0.100E-05
   qconv/e  :  0.100E-03
 intneglect :  0.100E-07
 broydamp   :      0.250
 iter      E             dE          RMSdq      gap      omega  full diag
   1    -50.7402006 -0.507402E+02  0.364E-05    8.84       0.0  T
   2    -50.7402006 -0.116529E-11  0.235E-05    8.84     835.4  T
   3    -50.7402006 -0.504485E-12  0.649E-06    8.84    3021.4  T
speedup  1.07
cpu  time for SCC    0.00 s
wall time for SCC    0.00 s

   *** convergence criteria satisfied after 3 iterations ***

          eigenvalues
 #    :          28         29         30         31         32         33         34         35
 occ. :        2.000      2.000      2.000      2.000      2.000      2.000      2.000      2.000
 eps  :       -13.314    -13.036    -12.850    -12.831    -12.460    -12.391    -12.075    -12.006
 #    :          36         37         38         39         40         41         42         43
 occ. :        2.000      2.000      2.000      2.000      2.000      0.000      0.000      0.000
 eps  :       -11.911    -11.707    -11.596    -11.400    -11.186     -2.349     -1.538     -0.089
 #    :          44         45         46         47         48         49         50         51
 occ. :        0.000      0.000      0.000      0.000      0.000      0.000      0.000      0.000
 eps  :         0.608      0.940      1.352      1.967      2.500      3.490      3.673      5.244


   #   Z            q   n(s)   n(p)   n(d)      C6AA      α(0)
   1  16 S      1.649  1.593  1.804  0.954    89.927    15.961
   2   8 O     -0.757  1.774  4.984  0.000    30.318     7.382
   3   8 O     -0.681  1.764  4.917  0.000    28.193     7.119
   4   8 O     -0.664  1.766  4.898  0.000    26.730     6.980
   5   8 O     -0.760  1.780  4.979  0.000    30.382     7.390
   6   1 H      0.343  0.657  0.000  0.000     0.605     1.222
   7   1 H      0.361  0.639  0.000  0.000     0.556     1.168
   8   8 O     -0.603  1.744  4.859  0.000    25.250     6.782
   9   1 H      0.297  0.703  0.000  0.000     0.730     1.342
  10   8 O     -0.644  1.751  4.894  0.000    26.276     6.918
  11   1 H      0.285  0.715  0.000  0.000     0.768     1.376
  12   8 O     -0.653  1.762  4.891  0.000    26.490     6.946
  13   1 H      0.333  0.667  0.000  0.000     0.631     1.248
  14   1 H      0.319  0.681  0.000  0.000     0.668     1.284
  15   8 O     -0.589  1.740  4.849  0.000    24.914     6.737
  16   1 H      0.333  0.667  0.000  0.000     0.630     1.247
  17   1 H      0.304  0.696  0.000  0.000     0.708     1.321
  18   8 O     -0.616  1.751  4.864  0.000    25.563     6.824
  19   1 H      0.347  0.653  0.000  0.000     0.596     1.213
  20   1 H      0.309  0.691  0.000  0.000     0.694     1.309
  21   1 H      0.330  0.670  0.000  0.000     0.637     1.254
  22   7 N     -0.344  1.276  4.068  0.000    28.827     7.974
  23   1 H      0.226  0.774  0.000  0.000     0.982     1.552
  24   1 H      0.286  0.714  0.000  0.000     0.757     1.363
  25   1 H      0.303  0.697  0.000  0.000     0.703     1.314
  26   1 H      0.284  0.716  0.000  0.000     0.764     1.369

 Mol. C6AA /au·bohr⁶  :       5451.234810
 Mol. C8AA /au·bohr⁸  :     118100.237682
 Mol. α(0) /au        :        106.595043

 
 Wiberg/Mayer (AO) data. WBOs > 0.1 written file <wbo>
 largest (>0.05) Wiberg bond orders for each atom
           total WBO             WBO to atom ...
     1  S   4.872    O    3 1.464    O    2 1.295    O    5 1.222    O    4 0.859
     2  O   1.707    S    1 1.295    O    3 0.114    O    5 0.100    O    4 0.077    H   13 0.065
     3  O   1.774    S    1 1.464    O    2 0.114    O    5 0.111    O    4 0.075
     4  O   1.907    S    1 0.859    H    7 0.784    O    2 0.077    O    3 0.075    O    5 0.070
     5  O   1.738    S    1 1.222    O    3 0.111    O    2 0.100    H    6 0.095    H   21 0.074    O    4 0.070
     6  H   0.883    O    8 0.782    O    5 0.095
     7  H   0.870    O    4 0.784    O   12 0.061
     8  O   1.948    H    9 0.907    H    6 0.782    H   25 0.146    N   22 0.067
     9  H   0.912    O    8 0.907
    10  O   1.877    H   11 0.910    H   19 0.749    H   26 0.079    O   18 0.053
    11  H   0.919    O   10 0.910
    12  O   1.865    H   14 0.863    H   13 0.812    H    7 0.061
    13  H   0.889    O   12 0.812    O    2 0.065
    14  H   0.899    O   12 0.863
    15  O   1.921    H   17 0.903    H   16 0.853    H   24 0.092
    16  H   0.889    O   15 0.853
    17  H   0.907    O   15 0.903
    18  O   1.925    H   20 0.884    H   21 0.813    H   19 0.128    O   10 0.053
    19  H   0.880    O   10 0.749    O   18 0.128
    20  H   0.904    O   18 0.884
    21  H   0.891    O   18 0.813    O    5 0.074
    22  N   3.525    H   23 0.946    H   26 0.836    H   24 0.822    H   25 0.757    O    8 0.067
    23  H   0.949    N   22 0.946
    24  H   0.918    N   22 0.822    O   15 0.092
    25  H   0.908    N   22 0.757    O    8 0.146
    26  H   0.919    N   22 0.836    O   10 0.079
 MOs/occ written to file <molden.input>
 
molecular dipole:
                 x           y           z       tot (Debye)
 q only:        2.956      -2.435      -1.352
   full:        2.641      -2.045      -0.992       8.857
molecular quadrupole (traceless):
                xx          xy          yy          xz          yz          zz
 q only:      -11.440       3.925       1.781      -0.374      -0.160       9.659
  q+dip:      -13.334       1.713       3.007       0.845      -1.627      10.327
   full:      -13.360       1.383       2.921       0.720      -1.739      10.438

SCC energy    :     -50.7402006
rep           :       0.2848118
ES            :       0.2767141
AES           :      -0.0748483
AXC           :      -0.0082383
disp          :      -0.0200555
XB            :       0.0000000
fix           :       0.0000000
total E       :     -50.4549998
atomizationE  :       4.9853039     3128.33
(atE without considering molecular charge,
 total energy contains solvation terms)
H-L gap (eV)  :          8.8370
optimized geometry written to: xtbopt.xyz


------------------------------------------------------------------------
 * finished run on 2019/09/16 at 12:52:59.364     
------------------------------------------------------------------------
 total:
 * wall-time:     0 d,  0 h,  0 min,  2.368 sec
 *  cpu-time:     0 d,  0 h,  0 min,  2.334 sec
 * ratio c/w:     0.985 speedup
 SCF:
 * wall-time:     0 d,  0 h,  0 min,  0.139 sec
 *  cpu-time:     0 d,  0 h,  0 min,  0.135 sec
 * ratio c/w:     0.971 speedup
 ANC optimizer:
 * wall-time:     0 d,  0 h,  0 min,  2.204 sec
 *  cpu-time:     0 d,  0 h,  0 min,  2.178 sec
 * ratio c/w:     0.988 speedup

