      -----------------------------------------------------------      
     |                   =====================                   |     
     |                           x T B                           |     
     |                   =====================                   |     
     |                         S. Grimme                         |     
     |          Mulliken Center for Theoretical Chemistry        |     
     |                    University of Bonn                     |     
     |                 Version 6.0.1 (SAW181210)                 |     
      -----------------------------------------------------------      

   This program is distributed in the hope that it will be useful,
   but WITHOUT ANY WARRANTY; without even the implied warranty of
   MERCHANTABILITY or FITNESS FOR A PARTICULAR PURPOSE.
   
   FOR NON-COMMERCIAL, ACADEMIA USE ONLY.
   
   Cite this work as:
   S. Grimme, C. Bannwarth, P. Shushkov, J. Comput. Theory Chem., 2017,
   13, 1989-2009.
   C. Bannwarth, S. Ehlert and S. Grimme., ChemRxiv, 2018, preprint.
   http://doi.org/10.26434/chemrxiv.7246238.v1
   
   for sTDA-xTB:
   S. Grimme and C. Bannwarth, J. Chem. Phys., 2016, 145, 054103.
   
   in the mass-spec context:
   V. Asgeirsson, C. Bauer and S. Grimme, Chem. Sci., 2017, 8, 4879.
   
   if GBSA is used:
   P. Shushkov, F. März and S. Grimme, unpublished.
   
   for ANC optimizer:
   S. Grimme, unpublished.
   Rational Function algorithm used in ANCopt:
   F. Eckert, P. Pulay, H.-J. Werner, J. Comput. Chem., 1997, 18, 1473.
   
   with help from (in alphabetical order)
   C. Bannwarth, F. Bohle, G. Brandenburg, E. Caldeweyher, M. Checinski,
   S. Dohm, S. Ehlert, S. Ehrlich, F. März, H. Neugebauer, J. Pisarek,
   P. Pracht, P. Shushkov, and S. Spicher.
   
 * started run on 2019/09/16 at 11:38:15.619     
========================================================================
 # omp threads = 1
========================================================================
number of atoms            : 26
number of electrons        : 80
charge                     : 0
spin                       : .0
first test random number   : .5081

########################################################################
# WARNING! Please study the warnings concerning your input carefully
#  - XTBPATH is not set, using XTBHOME instead
#  - the use of '-opt' is discouraged, please use '--opt' next time
#  - the use of '-chrg' is discouraged, please use '--chrg' next time
#  - the use of '-uhf' is discouraged, please use '--uhf' next time
########################################################################

           ------------------------------------------------- 
          |                 G F N 2 - x T B                 |
          | Geometry, Frequencies, Noncovalent interactions |
          |            JCTC 2018 parametrisation            |
           ------------------------------------------------- 
      method parameters     
 k(s)        :  1.8500
 k(p)        :  2.2300
 k(d)        :  2.2300
 k(f)        :  2.0000
 kEN (H0ij)  : -2.0000
 D4 a1       :  0.5200
 D4 a2       :  5.0000
 D4 s6       :  1.0000
 D4 s8       :  2.7000
 D4 s9       :  5.0000
 alphaj      :  2.0000


            Z     q(EN)     CN     RAES       Cart. coordinates
     1  S   6.0    0.58    4.28    4.21    -4.88024     3.50837    -3.54301
     2  O   6.0   -0.31    1.10    1.80    -3.04800     1.65510    -4.43166
     3  O   6.0   -0.27    1.09    1.80    -5.45370     5.79978    -4.90618
     4  O   6.0   -0.23    2.02    1.83    -7.48301     1.97089    -2.90492
     5  O   6.0   -0.23    2.07    1.83    -4.22297     4.38547    -0.70287
     6  H   1.0    0.18    1.30    1.49    -3.67424     2.92497     0.27293
     7  H   1.0    0.14    1.12    1.45    -7.58630     0.56300    -4.08540
     8  O   6.0   -0.39    1.54    1.80     4.06354     1.62382     1.21759
     9  H   1.0    0.18    0.94    1.42     4.35366     3.45888     1.03834
    10  O   6.0   -0.39    1.61    1.81    -2.94598     0.37614     1.24048
    11  H   1.0    0.18    0.95    1.42    -4.57948    -0.36252     1.75993
    12  O   6.0   -0.39    1.52    1.80     2.31246    -4.37723     1.70335
    13  H   1.0    0.18    0.94    1.42     1.58780    -6.09276     1.82824
    14  O   6.0   -0.23    2.92    2.60     6.28048    -2.24236     1.89033
    15  H   1.0    0.12    0.96    1.43     7.52766    -2.71264     0.58142
    16  H   1.0    0.16    1.20    1.46     5.71152    -0.47194     1.71169
    17  H   1.0    0.16    1.20    1.46     4.84372    -3.43563     1.94804
    18  O   6.0   -0.23    2.97    2.72     0.79290    -0.49146     3.68199
    19  H   1.0    0.16    1.17    1.46    -0.90703    -0.03961     3.05277
    20  H   1.0    0.16    1.13    1.45     1.23210    -2.26663     3.30003
    21  H   1.0    0.16    1.13    1.45     2.10123     0.69772     3.07732
    22  N   5.0   -0.14    4.00    2.86     0.79477    -0.89427    -1.54608
    23  H   1.0    0.11    1.05    1.44     1.28165    -2.66945    -0.91668
    24  H   1.0    0.13    1.12    1.45    -0.91449    -0.37852    -0.77351
    25  H   1.0    0.12    1.06    1.44     2.16101     0.38182    -1.00810
    26  H   1.0    0.10    0.99    1.43     0.65091    -0.91094    -3.48605

  Z AO/shell   Hii/eV     exponent
  1     Wed Apr 25 08:07:45 CEST 2018   EN: 2.200 GM2: 0.406  GM3: 0.0800  RAES: 1.40
     1s    -10.707211    1.230000
  7     Wed Apr 25 08:07:45 CEST 2018   EN: 3.040 GM2: 0.461  GM3:-0.0640  RAES: 1.90
     2s    -16.686243    2.339881
     2p    -12.523956    2.014332
  8     Wed Apr 25 08:07:45 CEST 2018   EN: 3.440 GM2: 0.452  GM3:-0.0517  RAES: 1.80
     2s    -20.229985    2.439742
     2p    -15.503117    2.137023
 16     Tue Apr 24 11:44:34 CEST 2018   EN: 2.580 GM2: 0.340  GM3:-0.0502  RAES: 3.10
     3s    -20.029654    1.981333
     3p    -11.377694    2.025643
     3d     -0.420282    1.702555
 no old-style atom pair restraining (fixing) potential

molecular fragmentation (1/2 indicates fragments):
11111112222222222222222222
# atoms in fragment 1/2:     7    19
 fragment masses (1/2) :       98.07      107.11
CMA distance (Bohr)    :   9.463
constraining FC (au)   :  0.0500
           ------------------------------------------------- 
          |        Self-Consistent Charge Iterations        |
           ------------------------------------------------- 

 Ncao       : 65
 Nao        : 64
 Nshell     : 38
 Nel        : 80
 T(el)      :   300.0
 intcut     :    25.0
 scfconv/Eh :  0.100E-05
   qconv/e  :  0.100E-03
 intneglect :  0.100E-07
 broydamp   :      0.250
 iter      E             dE          RMSdq      gap      omega  full diag
   1    -50.4730790 -0.504731E+02  0.711E+00    8.22       0.0  T
   2    -50.5267549 -0.536759E-01  0.502E+00    7.26       1.0  T
   3    -50.5710085 -0.442536E-01  0.120E+00    5.07       1.0  T
   4    -50.5746478 -0.363929E-02  0.695E-01    5.33       1.0  T
   5    -50.5761385 -0.149075E-02  0.273E-01    5.44       1.0  T
   6    -50.5764687 -0.330187E-03  0.159E-01    5.47       1.0  T
   7    -50.5766255 -0.156816E-03  0.457E-02    5.47       1.0  T
   8    -50.5766361 -0.106047E-04  0.254E-02    5.47       1.0  T
   9    -50.5766395 -0.339420E-05  0.101E-02    5.48       1.9  T
  10    -50.5766400 -0.499822E-06  0.290E-03    5.48       6.8  T
  11    -50.5766401 -0.218985E-07  0.137E-03    5.48      14.3  T
  12    -50.5766401 -0.923337E-08  0.453E-04    5.48      43.3  T
  13    -50.5766401 -0.922100E-09  0.173E-04    5.48     113.2  T
speedup  0.99
cpu  time for SCC    0.01 s
wall time for SCC    0.02 s

   *** convergence criteria satisfied after 13 iterations ***

          eigenvalues
 #    :          28         29         30         31         32         33         34         35
 occ. :        2.000      2.000      2.000      2.000      2.000      2.000      2.000      2.000
 eps  :       -12.671    -12.560    -12.389    -12.330    -12.181    -12.102    -11.899    -10.412
 #    :          36         37         38         39         40         41         42         43
 occ. :        2.000      2.000      2.000      2.000      2.000      0.000      0.000      0.000
 eps  :       -10.273    -10.144    -10.079     -9.828     -9.796     -4.317     -1.664     -1.418
 #    :          44         45         46         47         48         49         50         51
 occ. :        0.000      0.000      0.000      0.000      0.000      0.000      0.000      0.000
 eps  :        -0.678      0.435      1.011      2.468      2.827      3.088      3.644      4.819


   #   Z            q   n(s)   n(p)   n(d)      C6AA      α(0)
   1  16 S      1.602  1.630  1.827  0.940    91.018    16.057
   2   8 O     -0.667  1.766  4.901  0.000    27.834     7.073
   3   8 O     -0.619  1.770  4.848  0.000    26.576     6.912
   4   8 O     -0.566  1.760  4.807  0.000    24.368     6.664
   5   8 O     -0.589  1.760  4.829  0.000    24.893     6.735
   6   1 H      0.383  0.617  0.000  0.000     0.513     1.122
   7   1 H      0.338  0.662  0.000  0.000     0.614     1.230
   8   8 O     -0.868  1.817  5.050  0.000    33.691     7.783
   9   1 H      0.194  0.806  0.000  0.000     1.151     1.686
  10   8 O     -0.861  1.830  5.031  0.000    33.480     7.758
  11   1 H      0.201  0.799  0.000  0.000     1.112     1.656
  12   8 O     -0.872  1.819  5.053  0.000    33.822     7.798
  13   1 H      0.186  0.814  0.000  0.000     1.193     1.716
  14   8 O     -0.443  1.668  4.776  0.000    21.651     6.284
  15   1 H      0.339  0.661  0.000  0.000     0.615     1.232
  16   1 H      0.409  0.591  0.000  0.000     0.462     1.065
  17   1 H      0.408  0.592  0.000  0.000     0.464     1.067
  18   8 O     -0.504  1.677  4.827  0.000    22.926     6.467
  19   1 H      0.387  0.613  0.000  0.000     0.505     1.114
  20   1 H      0.385  0.615  0.000  0.000     0.511     1.121
  21   1 H      0.386  0.614  0.000  0.000     0.509     1.119
  22   7 N     -0.325  1.268  4.057  0.000    28.351     7.908
  23   1 H      0.278  0.722  0.000  0.000     0.784     1.387
  24   1 H      0.310  0.690  0.000  0.000     0.683     1.295
  25   1 H      0.287  0.713  0.000  0.000     0.753     1.359
  26   1 H      0.219  0.781  0.000  0.000     1.012     1.576

 Mol. C6AA /au·bohr⁶  :       5522.367204
 Mol. C8AA /au·bohr⁸  :     119600.321177
 Mol. α(0) /au        :        107.186479

 
 Wiberg/Mayer (AO) data. WBOs > 0.1 written file <wbo>
 largest (>0.05) Wiberg bond orders for each atom
           total WBO             WBO to atom ...
     1  S   4.816    O    3 1.489    O    2 1.411    O    5 1.010    O    4 0.883
     2  O   1.759    S    1 1.411    O    3 0.143    O    5 0.104    O    4 0.092
     3  O   1.823    S    1 1.489    O    2 0.143    O    5 0.090    O    4 0.089
     4  O   1.986    S    1 0.883    H    7 0.867    O    2 0.092    O    3 0.089    O    5 0.054
     5  O   1.995    S    1 1.010    H    6 0.673    O    2 0.104    O    3 0.090    O    4 0.054    O   10 0.053
     6  H   0.853    O    5 0.673    O   10 0.165
     7  H   0.886    O    4 0.867
     8  O   1.557    H    9 0.945    H   16 0.193    H   21 0.150    H   25 0.095    O   14 0.059    O   18 0.052
     9  H   0.962    O    8 0.945
    10  O   1.584    H   11 0.947    H   19 0.175    H    6 0.165    H   24 0.117    O   18 0.059    O    5 0.053    N   22 0.051
    11  H   0.959    O   10 0.947
    12  O   1.538    H   13 0.949    H   17 0.194    H   20 0.149    H   23 0.079    O   14 0.059    O   18 0.052
    13  H   0.965    O   12 0.949
    14  O   2.275    H   15 0.875    H   16 0.633    H   17 0.633    O   12 0.059    O    8 0.059
    15  H   0.885    O   14 0.875
    16  H   0.833    O   14 0.633    O    8 0.193
    17  H   0.833    O   14 0.633    O   12 0.194
    18  O   2.243    H   20 0.697    H   21 0.696    H   19 0.669    O   10 0.059    O    8 0.052    O   12 0.052
    19  H   0.850    O   18 0.669    O   10 0.175
    20  H   0.851    O   18 0.697    O   12 0.149
    21  H   0.851    O   18 0.696    O    8 0.150
    22  N   3.539    H   26 0.942    H   23 0.840    H   25 0.818    H   24 0.778    O   10 0.051
    23  H   0.923    N   22 0.840    O   12 0.079
    24  H   0.904    N   22 0.778    O   10 0.117
    25  H   0.918    N   22 0.818    O    8 0.095
    26  H   0.952    N   22 0.942
 MOs/occ written to file <molden.input>
 
molecular dipole:
                 x           y           z       tot (Debye)
 q only:        2.747      -2.463      -0.023
   full:        2.406      -2.802      -0.342       9.427
molecular quadrupole (traceless):
                xx          xy          yy          xz          yz          zz
 q only:       14.858       7.981     -15.857      -2.763      12.060       0.999
  q+dip:       17.190      11.528     -14.621      -4.678      13.579      -2.569
   full:       17.261      12.024     -14.255      -4.690      13.542      -3.006

SCC energy    :     -50.5766401
rep           :       0.2635181
ES            :       0.3321169
AES           :      -0.0530564
AXC           :      -0.0053661
disp          :      -0.0173923
XB            :       0.0000000
fix           :       0.0000000
total E       :     -50.3129994
atomizationE  :       4.8433035     3039.22
(atE without considering molecular charge,
 total energy contains solvation terms)
H-L gap (eV)  :          5.4793
           ------------------------------------------------- 
          |                 ===============                 |
          |                   A N C O P T                   |
          |                 ===============                 |
          |          Approximate Normal Coordinate          |
          |           Rational Function Optimizer           |
           ------------------------------------------------- 
dumping coords to <xtbopt.coord> and <xtbopt.log>
 optlevel               2
 Maxcycle             520
 Maxmicro              25
 Econv         1.000000000000000E-007
 Gconv         2.000000000000000E-004
 Maxdispl       1.00000000000000     
 Hlow          5.000000000000000E-003
 S6             20.0000000000000     
 Nvar               72

generating ANC from model Hessian ...
 Shifting diagonal of input Hessian by   5.180771291804936E-003
 Lowest  eigenvalues of input Hessian
    0.005000    0.005165   -0.000000   -0.000000   -0.000000   -0.000000
    0.000000    0.000000    0.005377    0.005664    0.006228    0.007239
    0.007853    0.008733    0.008781    0.009319    0.010479    0.013294
 Highest eigenvalues
    1.578942    1.589538    1.601634    1.950075    2.765044    3.587665
 
cpu  time for ANC gen    0.02 s
wall time for ANC gen    0.02 s
................................................................................
.............................. CYCLE    1 ......................................
................................................................................
   1    -50.5766401 -0.505766E+02  0.451E-05    5.48       0.0  T
   2    -50.5766401 -0.333955E-11  0.332E-05    5.48     590.4  T
   3    -50.5766401 -0.208900E-11  0.134E-05    5.48    1467.8  T
speedup  0.97
cpu  time for SCC    0.00 s
wall time for SCC    0.00 s
speedup  1.00
cpu  time for grad    0.01 s
wall time for grad    0.01 s
 E :    -50.31299936  G :  0.224105    pred/act E change:  0.000D+00  0.182D-07
Maxdispl :   0.1103   ||displ|| :   0.2725   Lambda : -0.470D-01
Largest |displ|/coords:  0.1103 (  55)  0.0966 (  56)  0.0715 (  26)
................................................................................
.............................. CYCLE    2 ......................................
................................................................................
   1    -50.5986667 -0.505987E+02  0.389E-01    6.30       0.0  T
   2    -50.5991019 -0.435257E-03  0.281E-01    6.38       1.0  T
   3    -50.5993020 -0.200013E-03  0.851E-02    6.52       1.0  T
   4    -50.5993273 -0.253240E-04  0.254E-02    6.51       1.0  T
   5    -50.5993286 -0.133156E-05  0.755E-03    6.51       2.6  T
   6    -50.5993287 -0.943688E-07  0.384E-03    6.51       5.1  T
   7    -50.5993287 -0.329306E-07  0.146E-03    6.51      13.5  T
speedup  0.94
cpu  time for SCC    0.01 s
wall time for SCC    0.01 s
speedup  1.02
cpu  time for grad    0.01 s
wall time for grad    0.01 s
 E :    -50.34963371  G :  0.128227    pred/act E change:  0.000D+00 -0.366D-01
Maxdispl :   0.1262   ||displ|| :   0.2860   Lambda : -0.217D-01
Largest |displ|/coords:  0.1262 (  27)  0.1103 (  26)  0.0913 (  55)
................................................................................
.............................. CYCLE    3 ......................................
................................................................................
   1    -50.6097388 -0.506097E+02  0.374E-01    7.13       0.0  T
   2    -50.6103000 -0.561142E-03  0.264E-01    7.22       1.0  T
   3    -50.6105365 -0.236483E-03  0.953E-02    7.36       1.0  T
   4    -50.6105566 -0.201563E-04  0.218E-02    7.36       1.0  T
   5    -50.6105578 -0.115988E-05  0.657E-03    7.36       3.0  T
   6    -50.6105578 -0.736928E-07  0.356E-03    7.36       5.5  T
   7    -50.6105579 -0.329612E-07  0.131E-03    7.36      14.9  T
speedup  1.03
cpu  time for SCC    0.01 s
wall time for SCC    0.01 s
speedup  0.99
cpu  time for grad    0.01 s
wall time for grad    0.01 s
 E :    -50.36724939  G :  0.082294    pred/act E change: -0.252D-01 -0.176D-01
Maxdispl :   0.1143   ||displ|| :   0.2888   Lambda : -0.118D-01
Largest |displ|/coords:  0.1143 (  27)  0.1000 (  26)  0.0970 (  19)
................................................................................
.............................. CYCLE    4 ......................................
................................................................................
   1    -50.6143033 -0.506143E+02  0.341E-01    7.78       0.0  T
   2    -50.6148597 -0.556370E-03  0.237E-01    7.86       1.0  T
   3    -50.6150936 -0.233953E-03  0.927E-02    7.99       1.0  T
   4    -50.6151098 -0.161400E-04  0.178E-02    7.99       1.1  T
   5    -50.6151105 -0.752531E-06  0.666E-03    7.99       2.9  T
   6    -50.6151106 -0.688068E-07  0.331E-03    7.99       5.9  T
   7    -50.6151106 -0.230245E-07  0.116E-03    7.99      16.9  T
speedup  1.03
cpu  time for SCC    0.01 s
wall time for SCC    0.01 s
speedup  0.99
cpu  time for grad    0.01 s
wall time for grad    0.01 s
 E :    -50.37693858  G :  0.059959    pred/act E change: -0.118D-01 -0.969D-02
Maxdispl :   0.1059   ||displ|| :   0.2574   Lambda : -0.725D-02
Largest |displ|/coords:  0.1059 (  19)  0.0954 (   6)  0.0826 (  55)
................................................................................
.............................. CYCLE    5 ......................................
................................................................................
   1    -50.6196206 -0.506196E+02  0.266E-01    8.25       0.0  T
   2    -50.6200639 -0.443325E-03  0.180E-01    8.31       1.0  T
   3    -50.6202500 -0.186042E-03  0.778E-02    8.40       1.0  T
   4    -50.6202592 -0.923756E-05  0.132E-02    8.41       1.5  T
   5    -50.6202596 -0.397300E-06  0.605E-03    8.41       3.2  T
   6    -50.6202597 -0.668825E-07  0.268E-03    8.40       7.3  T
   7    -50.6202597 -0.141840E-07  0.945E-04    8.40      20.8  T
speedup  0.90
cpu  time for SCC    0.01 s
wall time for SCC    0.01 s
speedup  0.99
cpu  time for grad    0.01 s
wall time for grad    0.01 s
 E :    -50.38299144  G :  0.044690    pred/act E change: -0.640D-02 -0.605D-02
Maxdispl :   0.2127   ||displ|| :   0.4525   Lambda : -0.985D-02
Largest |displ|/coords:  0.2127 (  19)  0.1564 (  15)  0.1448 (  55)
................................................................................
.............................. CYCLE    6 ......................................
................................................................................
   1    -50.6256632 -0.506257E+02  0.506E-01    8.72       0.0  T
   2    -50.6272820 -0.161885E-02  0.340E-01    8.80       1.0  T
   3    -50.6279591 -0.677096E-03  0.148E-01    8.85       1.0  T
   4    -50.6279947 -0.355792E-04  0.236E-02    8.84       1.0  T
   5    -50.6279959 -0.124020E-05  0.144E-02    8.84       1.4  T
   6    -50.6279964 -0.468505E-06  0.564E-03    8.84       3.5  T
   7    -50.6279965 -0.613014E-07  0.180E-03    8.84      10.9  T
speedup  1.11
cpu  time for SCC    0.01 s
wall time for SCC    0.01 s
speedup  1.02
cpu  time for grad    0.01 s
wall time for grad    0.01 s
 E :    -50.38906201  G :  0.035903    pred/act E change: -0.387D-02 -0.607D-02
Maxdispl :   0.1094   ||displ|| :   0.2993   Lambda : -0.347D-02
Largest |displ|/coords:  0.1094 (   6)  0.1041 (  19)  0.0931 (  16)
................................................................................
.............................. CYCLE    7 ......................................
................................................................................
   1    -50.6382707 -0.506383E+02  0.289E-01    8.78       0.0  T
   2    -50.6385579 -0.287191E-03  0.207E-01    8.69       1.0  T
   3    -50.6386882 -0.130264E-03  0.796E-02    8.54       1.0  T
   4    -50.6387035 -0.153571E-04  0.142E-02    8.55       1.4  T
   5    -50.6387041 -0.570750E-06  0.731E-03    8.55       2.7  T
   6    -50.6387042 -0.728053E-07  0.317E-03    8.56       6.2  T
   7    -50.6387042 -0.216396E-07  0.990E-04    8.56      19.8  T
speedup  0.95
cpu  time for SCC    0.01 s
wall time for SCC    0.01 s
speedup  0.95
cpu  time for grad    0.01 s
wall time for grad    0.01 s
 E :    -50.38916810  G :  0.054112    pred/act E change: -0.593D-02 -0.106D-03
Maxdispl :   0.1162   ||displ|| :   0.3287   Lambda : -0.775D-02
Largest |displ|/coords:  0.1162 (  14)  0.1148 (  15)  0.1004 (   7)
................................................................................
.............................. CYCLE    8 ......................................
................................................................................
   1    -50.6248930 -0.506249E+02  0.335E-01    8.46       0.0  T
   2    -50.6250709 -0.177886E-03  0.247E-01    8.52       1.0  T
   3    -50.6251745 -0.103649E-03  0.699E-02    8.60       1.0  T
   4    -50.6251924 -0.179208E-04  0.172E-02    8.59       1.1  T
   5    -50.6251929 -0.478853E-06  0.691E-03    8.58       2.8  T
   6    -50.6251930 -0.890301E-07  0.342E-03    8.58       5.7  T
   7    -50.6251930 -0.196916E-07  0.868E-04    8.58      22.6  T
speedup  0.95
cpu  time for SCC    0.01 s
wall time for SCC    0.01 s
speedup  1.01
cpu  time for grad    0.01 s
wall time for grad    0.01 s
 E :    -50.38895122  G :  0.063092    pred/act E change: -0.189D-02  0.217D-03
Maxdispl :   0.1046   ||displ|| :   0.2892   Lambda : -0.860D-02
Largest |displ|/coords:  0.1046 (  15)  0.0903 (  13)  0.0878 (  14)
................................................................................
.............................. CYCLE    9 ......................................
................................................................................
   1    -50.6401176 -0.506401E+02  0.329E-01    8.57       0.0  T
   2    -50.6402804 -0.162812E-03  0.243E-01    8.53       1.0  T
   3    -50.6403863 -0.105900E-03  0.682E-02    8.45       1.0  T
   4    -50.6404014 -0.150330E-04  0.145E-02    8.48       1.4  T
   5    -50.6404018 -0.412353E-06  0.728E-03    8.48       2.7  T
   6    -50.6404018 -0.443647E-07  0.288E-03    8.49       6.8  T
   7    -50.6404019 -0.194955E-07  0.736E-04    8.48      26.7  T
speedup  0.95
cpu  time for SCC    0.01 s
wall time for SCC    0.01 s
speedup  1.01
cpu  time for grad    0.01 s
wall time for grad    0.01 s
 E :    -50.39058148  G :  0.042901    pred/act E change: -0.429D-02 -0.163D-02
Maxdispl :   0.0629   ||displ|| :   0.1465   Lambda : -0.242D-02
Largest |displ|/coords:  0.0629 (   4)  0.0549 (  19)  0.0421 (  14)
................................................................................
.............................. CYCLE   10 ......................................
................................................................................
   1    -50.6352950 -0.506353E+02  0.125E-01    8.45       0.0  T
   2    -50.6353137 -0.187383E-04  0.924E-02    8.47       1.0  T
   3    -50.6353260 -0.123296E-04  0.234E-02    8.49       1.0  T
   4    -50.6353279 -0.183056E-05  0.623E-03    8.49       3.1  T
   5    -50.6353279 -0.712109E-07  0.245E-03    8.49       8.0  T
   6    -50.6353279 -0.876968E-08  0.132E-03    8.49      14.8  T
speedup  0.86
cpu  time for SCC    0.00 s
wall time for SCC    0.01 s
speedup  0.98
cpu  time for grad    0.01 s
wall time for grad    0.01 s
 E :    -50.39197595  G :  0.016375    pred/act E change: -0.466D-02 -0.139D-02
Maxdispl :   0.0907   ||displ|| :   0.1751   Lambda : -0.716D-03
Largest |displ|/coords:  0.0907 (   4)  0.0558 (   2)  0.0525 (   7)
................................................................................
.............................. CYCLE   11 ......................................
................................................................................
   1    -50.6378682 -0.506379E+02  0.114E-01    8.47       0.0  T
   2    -50.6378806 -0.124014E-04  0.850E-02    8.47       1.0  T
   3    -50.6378877 -0.702858E-05  0.203E-02    8.46       1.0  T
   4    -50.6378893 -0.160147E-05  0.569E-03    8.47       3.4  T
   5    -50.6378894 -0.827961E-07  0.205E-03    8.47       9.5  T
   6    -50.6378894 -0.422761E-08  0.113E-03    8.47      17.3  T
speedup  1.03
cpu  time for SCC    0.01 s
wall time for SCC    0.01 s
speedup  1.05
cpu  time for grad    0.01 s
wall time for grad    0.01 s
 E :    -50.39222662  G :  0.020135    pred/act E change: -0.123D-02 -0.251D-03
Maxdispl :   0.1658   ||displ|| :   0.2813   Lambda : -0.111D-02
Largest |displ|/coords:  0.1658 (   4)  0.0809 (   3)  0.0746 (  19)
................................................................................
.............................. CYCLE   12 ......................................
................................................................................
   1    -50.6356789 -0.506357E+02  0.182E-01    8.43       0.0  T
   2    -50.6357132 -0.342302E-04  0.136E-01    8.43       1.0  T
   3    -50.6357272 -0.140812E-04  0.336E-02    8.42       1.0  T
   4    -50.6357319 -0.463696E-05  0.841E-03    8.42       2.3  T
   5    -50.6357322 -0.283662E-06  0.296E-03    8.43       6.6  T
   6    -50.6357322 -0.940638E-08  0.175E-03    8.42      11.2  T
speedup  1.09
cpu  time for SCC    0.01 s
wall time for SCC    0.01 s
speedup  1.00
cpu  time for grad    0.01 s
wall time for grad    0.01 s
 E :    -50.39290694  G :  0.023026    pred/act E change: -0.369D-03 -0.680D-03
Maxdispl :   0.1741   ||displ|| :   0.2802   Lambda : -0.892D-03
Largest |displ|/coords:  0.1741 (   4)  0.0920 (   3)  0.0749 (  18)
................................................................................
.............................. CYCLE   13 ......................................
................................................................................
   1    -50.6376568 -0.506377E+02  0.149E-01    8.42       0.0  T
   2    -50.6376758 -0.189582E-04  0.112E-01    8.43       1.0  T
   3    -50.6376838 -0.801131E-05  0.278E-02    8.44       1.0  T
   4    -50.6376863 -0.257218E-05  0.753E-03    8.44       2.6  T
   5    -50.6376865 -0.202870E-06  0.236E-03    8.45       8.3  T
   6    -50.6376865 -0.507511E-08  0.141E-03    8.45      13.9  T
speedup  0.89
cpu  time for SCC    0.00 s
wall time for SCC    0.01 s
speedup  1.00
cpu  time for grad    0.01 s
wall time for grad    0.01 s
 E :    -50.39350740  G :  0.018131    pred/act E change: -0.597D-03 -0.600D-03
Maxdispl :   0.2370   ||displ|| :   0.4023   Lambda : -0.119D-02
Largest |displ|/coords:  0.2370 (   4)  0.1366 (   9)  0.1261 (   3)
................................................................................
.............................. CYCLE   14 ......................................
................................................................................
   1    -50.6385133 -0.506385E+02  0.250E-01    8.42       0.0  T
   2    -50.6385647 -0.514505E-04  0.188E-01    8.44       1.0  T
   3    -50.6385893 -0.245426E-04  0.448E-02    8.48       1.0  T
   4    -50.6385963 -0.700322E-05  0.140E-02    8.49       1.4  T
   5    -50.6385969 -0.608373E-06  0.420E-03    8.49       4.7  T
   6    -50.6385969 -0.166441E-07  0.251E-03    8.49       7.8  T
   7    -50.6385969 -0.120486E-07  0.781E-04    8.49      25.1  T
speedup  0.94
cpu  time for SCC    0.01 s
wall time for SCC    0.01 s
speedup  1.00
cpu  time for grad    0.01 s
wall time for grad    0.01 s
 E :    -50.39381195  G :  0.029719    pred/act E change: -0.481D-03 -0.305D-03
Maxdispl :   0.1245   ||displ|| :   0.2369   Lambda : -0.134D-02
Largest |displ|/coords:  0.1245 (   4)  0.1172 (   8)  0.0577 (   2)
................................................................................
.............................. CYCLE   15 ......................................
................................................................................
   1    -50.6433570 -0.506434E+02  0.166E-01    8.54       0.0  T
   2    -50.6433836 -0.266349E-04  0.124E-01    8.55       1.0  T
   3    -50.6433978 -0.142574E-04  0.302E-02    8.56       1.0  T
   4    -50.6434011 -0.322111E-05  0.110E-02    8.57       1.8  T
   5    -50.6434014 -0.319848E-06  0.311E-03    8.57       6.3  T
   6    -50.6434014 -0.118493E-07  0.179E-03    8.57      10.9  T
speedup  0.91
cpu  time for SCC    0.00 s
wall time for SCC    0.01 s
speedup  0.99
cpu  time for grad    0.01 s
wall time for grad    0.01 s
 E :    -50.39457051  G :  0.025383    pred/act E change: -0.694D-03 -0.759D-03
Maxdispl :   0.1518   ||displ|| :   0.3098   Lambda : -0.158D-02
Largest |displ|/coords:  0.1518 (   4)  0.1046 (   5)  0.1010 (   1)
................................................................................
.............................. CYCLE   16 ......................................
................................................................................
   1    -50.6454250 -0.506454E+02  0.202E-01    8.61       0.0  T
   2    -50.6454641 -0.390201E-04  0.150E-01    8.63       1.0  T
   3    -50.6454889 -0.248802E-04  0.368E-02    8.69       1.0  T
   4    -50.6454933 -0.439814E-05  0.146E-02    8.69       1.3  T
   5    -50.6454938 -0.429156E-06  0.396E-03    8.69       5.0  T
   6    -50.6454938 -0.239115E-07  0.232E-03    8.69       8.4  T
speedup  1.02
cpu  time for SCC    0.01 s
wall time for SCC    0.01 s
speedup  1.04
cpu  time for grad    0.01 s
wall time for grad    0.01 s
 E :    -50.39487354  G :  0.036733    pred/act E change: -0.708D-03 -0.303D-03
Maxdispl :   0.0995   ||displ|| :   0.2394   Lambda : -0.168D-02
Largest |displ|/coords:  0.0995 (   4)  0.0835 (   7)  0.0834 (   9)
................................................................................
.............................. CYCLE   17 ......................................
................................................................................
   1    -50.6449451 -0.506449E+02  0.164E-01    8.68       0.0  T
   2    -50.6449699 -0.248083E-04  0.122E-01    8.67       1.0  T
   3    -50.6449841 -0.141892E-04  0.300E-02    8.62       1.0  T
   4    -50.6449870 -0.285339E-05  0.118E-02    8.62       1.7  T
   5    -50.6449872 -0.277266E-06  0.302E-03    8.62       6.5  T
   6    -50.6449873 -0.127648E-07  0.181E-03    8.62      10.8  T
speedup  1.03
cpu  time for SCC    0.01 s
wall time for SCC    0.01 s
speedup  1.04
cpu  time for grad    0.01 s
wall time for grad    0.01 s
 E :    -50.39607192  G :  0.020551    pred/act E change: -0.864D-03 -0.120D-02
Maxdispl :   0.1458   ||displ|| :   0.4086   Lambda : -0.245D-02
Largest |displ|/coords:  0.1458 (   9)  0.1210 (  33)  0.1207 (  30)
................................................................................
.............................. CYCLE   18 ......................................
................................................................................
   1    -50.6477296 -0.506477E+02  0.332E-01    8.62       0.0  T
   2    -50.6478590 -0.129392E-03  0.249E-01    8.57       1.0  T
   3    -50.6479374 -0.784277E-04  0.688E-02    8.44       1.0  T
   4    -50.6479518 -0.144027E-04  0.290E-02    8.43       1.0  T
   5    -50.6479532 -0.140979E-05  0.689E-03    8.43       2.8  T
   6    -50.6479533 -0.647329E-07  0.406E-03    8.43       4.8  T
   7    -50.6479533 -0.270418E-07  0.140E-03    8.43      14.0  T
speedup  1.09
cpu  time for SCC    0.01 s
wall time for SCC    0.01 s
speedup  1.00
cpu  time for grad    0.01 s
wall time for grad    0.01 s
 E :    -50.39727461  G :  0.029539    pred/act E change: -0.890D-03 -0.120D-02
Maxdispl :   0.1387   ||displ|| :   0.3314   Lambda : -0.184D-02
Largest |displ|/coords:  0.1387 (   2)  0.1250 (   3)  0.0963 (   9)
................................................................................
.............................. CYCLE   19 ......................................
................................................................................
   1    -50.6469530 -0.506470E+02  0.245E-01    8.39       0.0  T
   2    -50.6470149 -0.619187E-04  0.178E-01    8.37       1.0  T
   3    -50.6470507 -0.358221E-04  0.454E-02    8.32       1.0  T
   4    -50.6470569 -0.610991E-05  0.121E-02    8.31       1.6  T
   5    -50.6470571 -0.218080E-06  0.442E-03    8.31       4.4  T
   6    -50.6470571 -0.394630E-07  0.229E-03    8.31       8.6  T
speedup  0.89
cpu  time for SCC    0.00 s
wall time for SCC    0.01 s
speedup  0.99
cpu  time for grad    0.01 s
wall time for grad    0.01 s
 E :    -50.39840510  G :  0.023495    pred/act E change: -0.143D-02 -0.113D-02
Maxdispl :   0.1282   ||displ|| :   0.3540   Lambda : -0.231D-02
Largest |displ|/coords:  0.1282 (  15)  0.1045 (  33)  0.1034 (   4)
................................................................................
.............................. CYCLE   20 ......................................
................................................................................
   1    -50.6521605 -0.506522E+02  0.291E-01    8.32       0.0  T
   2    -50.6522929 -0.132427E-03  0.214E-01    8.28       1.0  T
   3    -50.6523722 -0.792875E-04  0.631E-02    8.18       1.0  T
   4    -50.6523858 -0.136164E-04  0.202E-02    8.17       1.0  T
   5    -50.6523864 -0.578299E-06  0.673E-03    8.17       2.9  T
   6    -50.6523865 -0.759557E-07  0.357E-03    8.17       5.5  T
   7    -50.6523865 -0.117624E-07  0.992E-04    8.17      19.8  T
speedup  0.77
cpu  time for SCC    0.01 s
wall time for SCC    0.01 s
speedup  0.91
cpu  time for grad    0.01 s
wall time for grad    0.02 s
 E :    -50.39895779  G :  0.032410    pred/act E change: -0.102D-02 -0.553D-03
Maxdispl :   0.1185   ||displ|| :   0.2625   Lambda : -0.218D-02
Largest |displ|/coords:  0.1185 (   4)  0.0933 (  18)  0.0800 (  11)
................................................................................
.............................. CYCLE   21 ......................................
................................................................................
   1    -50.6504651 -0.506505E+02  0.154E-01    8.20       0.0  T
   2    -50.6504801 -0.149660E-04  0.114E-01    8.21       1.0  T
   3    -50.6504889 -0.886951E-05  0.260E-02    8.25       1.0  T
   4    -50.6504905 -0.154308E-05  0.718E-03    8.25       2.7  T
   5    -50.6504906 -0.126132E-06  0.199E-03    8.25       9.9  T
   6    -50.6504906 -0.387682E-08  0.109E-03    8.25      18.0  T
speedup  0.89
cpu  time for SCC    0.01 s
wall time for SCC    0.01 s
speedup  0.98
cpu  time for grad    0.01 s
wall time for grad    0.01 s
 E :    -50.40015394  G :  0.022800    pred/act E change: -0.130D-02 -0.120D-02
Maxdispl :   0.2475   ||displ|| :   0.4120   Lambda : -0.194D-02
Largest |displ|/coords:  0.2475 (  18)  0.1784 (   4)  0.1572 (   5)
................................................................................
.............................. CYCLE   22 ......................................
................................................................................
   1    -50.6571395 -0.506571E+02  0.249E-01    8.27       0.0  T
   2    -50.6571952 -0.556566E-04  0.185E-01    8.30       1.0  T
   3    -50.6572269 -0.317030E-04  0.435E-02    8.34       1.0  T
   4    -50.6572339 -0.701146E-05  0.135E-02    8.33       1.5  T
   5    -50.6572343 -0.394604E-06  0.431E-03    8.33       4.6  T
   6    -50.6572343 -0.224556E-07  0.223E-03    8.33       8.8  T
speedup  1.09
cpu  time for SCC    0.01 s
wall time for SCC    0.01 s
speedup  0.98
cpu  time for grad    0.01 s
wall time for grad    0.01 s
 E :    -50.40078071  G :  0.036514    pred/act E change: -0.116D-02 -0.627D-03
Maxdispl :   0.2208   ||displ|| :   0.5227   Lambda : -0.335D-02
Largest |displ|/coords:  0.2208 (  18)  0.2132 (  17)  0.1579 (   9)
................................................................................
.............................. CYCLE   23 ......................................
................................................................................
   1    -50.6472604 -0.506473E+02  0.382E-01    8.26       0.0  T
   2    -50.6474135 -0.153043E-03  0.282E-01    8.26       1.0  T
   3    -50.6474914 -0.779689E-04  0.747E-02    8.28       1.0  T
   4    -50.6475105 -0.191071E-04  0.258E-02    8.28       1.0  T
   5    -50.6475114 -0.863757E-06  0.696E-03    8.27       2.8  T
   6    -50.6475115 -0.901178E-07  0.396E-03    8.27       5.0  T
   7    -50.6475115 -0.236817E-07  0.122E-03    8.27      16.1  T
speedup  1.09
cpu  time for SCC    0.01 s
wall time for SCC    0.01 s
speedup  1.00
cpu  time for grad    0.01 s
wall time for grad    0.01 s
 E :    -50.40126005  G :  0.061723    pred/act E change: -0.114D-02 -0.479D-03
Maxdispl :   0.1095   ||displ|| :   0.3126   Lambda : -0.808D-02
Largest |displ|/coords:  0.1095 (  16)  0.0981 (  23)  0.0725 (   9)
................................................................................
.............................. CYCLE   24 ......................................
................................................................................
   1    -50.6544167 -0.506544E+02  0.353E-01    8.33       0.0  T
   2    -50.6546286 -0.211882E-03  0.255E-01    8.35       1.0  T
   3    -50.6547305 -0.101893E-03  0.798E-02    8.38       1.0  T
   4    -50.6547481 -0.175705E-04  0.260E-02    8.37       1.0  T
   5    -50.6547495 -0.138662E-05  0.742E-03    8.38       2.6  T
   6    -50.6547495 -0.658197E-07  0.401E-03    8.38       4.9  T
   7    -50.6547495 -0.297647E-07  0.145E-03    8.38      13.5  T
speedup  0.92
cpu  time for SCC    0.01 s
wall time for SCC    0.01 s
speedup  1.00
cpu  time for grad    0.01 s
wall time for grad    0.01 s
 E :    -50.40195428  G :  0.062910    pred/act E change: -0.213D-02 -0.694D-03
Maxdispl :   0.1314   ||displ|| :   0.3318   Lambda : -0.868D-02
Largest |displ|/coords:  0.1314 (  12)  0.1104 (  18)  0.1049 (  23)
................................................................................
.............................. CYCLE   25 ......................................
................................................................................
   1    -50.6580782 -0.506581E+02  0.330E-01    8.42       0.0  T
   2    -50.6582521 -0.173882E-03  0.237E-01    8.42       1.0  T
   3    -50.6583341 -0.820009E-04  0.749E-02    8.43       1.0  T
   4    -50.6583483 -0.141613E-04  0.249E-02    8.44       1.0  T
   5    -50.6583496 -0.136073E-05  0.688E-03    8.43       2.9  T
   6    -50.6583497 -0.553010E-07  0.375E-03    8.43       5.2  T
   7    -50.6583497 -0.223487E-07  0.116E-03    8.43      17.0  T
speedup  1.09
cpu  time for SCC    0.01 s
wall time for SCC    0.01 s
speedup  0.99
cpu  time for grad    0.01 s
wall time for grad    0.01 s
 E :    -50.40416674  G :  0.056577    pred/act E change: -0.444D-02 -0.221D-02
Maxdispl :   0.2051   ||displ|| :   0.3858   Lambda : -0.603D-02
Largest |displ|/coords:  0.2051 (  18)  0.1621 (   3)  0.1375 (  17)

generating ANC from model Hessian ...
 Shifting diagonal of input Hessian by   4.913694490678788E-003
 Lowest  eigenvalues of input Hessian
   -0.000000   -0.000000    0.000000    0.000000    0.000000    0.000000
    0.005000    0.005493    0.005602    0.006432    0.007811    0.008230
    0.008854    0.009115    0.009480    0.010259    0.011124    0.012435
 Highest eigenvalues
    1.341347    1.398883    1.414789    2.243119    3.455779    3.729028
 
cpu  time for ANC gen    0.02 s
wall time for ANC gen    0.02 s
................................................................................
.............................. CYCLE   26 ......................................
................................................................................
   1    -50.6461872 -0.506462E+02  0.284E-01    8.35       0.0  T
   2    -50.6463721 -0.184898E-03  0.204E-01    8.39       1.0  T
   3    -50.6464491 -0.769796E-04  0.780E-02    8.44       1.0  T
   4    -50.6464617 -0.125709E-04  0.212E-02    8.44       1.0  T
   5    -50.6464627 -0.983105E-06  0.675E-03    8.44       2.9  T
   6    -50.6464627 -0.565302E-07  0.331E-03    8.44       5.9  T
   7    -50.6464627 -0.168831E-07  0.135E-03    8.44      14.6  T
   8    -50.6464627 -0.310286E-08  0.337E-04    8.44      58.2  T
   9    -50.6464627 -0.561307E-09  0.134E-04    8.44     146.5  T
speedup  0.99
cpu  time for SCC    0.01 s
wall time for SCC    0.01 s
speedup  0.98
cpu  time for grad    0.02 s
wall time for grad    0.02 s
 E :    -50.40615051  G :  0.053261    pred/act E change:  0.000D+00 -0.198D-02
Maxdispl :   0.1571   ||displ|| :   0.3043   Lambda : -0.540D-02
Largest |displ|/coords:  0.1571 (  18)  0.1348 (   6)  0.1052 (   8)
................................................................................
.............................. CYCLE   27 ......................................
................................................................................
   1    -50.6577502 -0.506578E+02  0.170E-01    8.55       0.0  T
   2    -50.6577762 -0.259382E-04  0.126E-01    8.55       1.0  T
   3    -50.6577883 -0.121621E-04  0.291E-02    8.56       1.0  T
   4    -50.6577915 -0.312264E-05  0.800E-03    8.56       2.5  T
   5    -50.6577916 -0.185345E-06  0.267E-03    8.56       7.3  T
   6    -50.6577916 -0.551177E-08  0.143E-03    8.56      13.7  T
speedup  0.89
cpu  time for SCC    0.00 s
wall time for SCC    0.01 s
speedup  0.98
cpu  time for grad    0.01 s
wall time for grad    0.01 s
 E :    -50.40981567  G :  0.032890    pred/act E change:  0.000D+00 -0.367D-02
Maxdispl :   0.2776   ||displ|| :   0.4780   Lambda : -0.616D-02
Largest |displ|/coords:  0.2776 (  18)  0.2098 (   6)  0.1155 (  16)
................................................................................
.............................. CYCLE   28 ......................................
................................................................................
   1    -50.6736779 -0.506737E+02  0.308E-01    8.69       0.0  T
   2    -50.6737647 -0.868570E-04  0.231E-01    8.69       1.0  T
   3    -50.6738278 -0.630734E-04  0.527E-02    8.70       1.0  T
   4    -50.6738382 -0.104298E-04  0.181E-02    8.70       1.1  T
   5    -50.6738389 -0.668589E-06  0.564E-03    8.70       3.5  T
   6    -50.6738389 -0.308017E-07  0.294E-03    8.70       6.7  T
speedup  1.02
cpu  time for SCC    0.01 s
wall time for SCC    0.01 s
speedup  1.02
cpu  time for grad    0.01 s
wall time for grad    0.01 s
 E :    -50.41309188  G :  0.052102    pred/act E change: -0.295D-02 -0.328D-02
Maxdispl :   0.1622   ||displ|| :   0.2783   Lambda : -0.451D-02
Largest |displ|/coords:  0.1622 (   6)  0.1266 (  18)  0.0793 (  23)
................................................................................
.............................. CYCLE   29 ......................................
................................................................................
   1    -50.6739285 -0.506739E+02  0.177E-01    8.72       0.0  T
   2    -50.6739500 -0.214931E-04  0.131E-01    8.72       1.0  T
   3    -50.6739602 -0.101749E-04  0.281E-02    8.73       1.0  T
   4    -50.6739632 -0.298252E-05  0.831E-03    8.73       2.4  T
   5    -50.6739633 -0.928483E-07  0.249E-03    8.73       7.9  T
   6    -50.6739633 -0.804732E-08  0.135E-03    8.73      14.5  T
speedup  0.91
cpu  time for SCC    0.01 s
wall time for SCC    0.01 s
speedup  0.99
cpu  time for grad    0.01 s
wall time for grad    0.01 s
 E :    -50.41673543  G :  0.042891    pred/act E change: -0.378D-02 -0.364D-02
Maxdispl :   0.3192   ||displ|| :   0.5991   Lambda : -0.105D-01
Largest |displ|/coords:  0.3192 (  18)  0.2468 (  23)  0.1726 (  25)
................................................................................
.............................. CYCLE   30 ......................................
................................................................................
   1    -50.6839810 -0.506840E+02  0.426E-01    8.79       0.0  T
   2    -50.6841840 -0.202954E-03  0.315E-01    8.80       1.0  T
   3    -50.6843132 -0.129208E-03  0.831E-02    8.81       1.0  T
   4    -50.6843372 -0.240442E-04  0.272E-02    8.81       1.0  T
   5    -50.6843384 -0.118041E-05  0.943E-03    8.81       2.1  T
   6    -50.6843385 -0.119218E-06  0.453E-03    8.81       4.3  T
   7    -50.6843386 -0.305195E-07  0.132E-03    8.81      14.8  T
speedup  1.09
cpu  time for SCC    0.01 s
wall time for SCC    0.01 s
speedup  1.00
cpu  time for grad    0.01 s
wall time for grad    0.01 s
 E :    -50.42565157  G :  0.054039    pred/act E change: -0.243D-02 -0.892D-02
Maxdispl :   0.1553   ||displ|| :   0.4419   Lambda : -0.905D-02
Largest |displ|/coords:  0.1553 (  18)  0.1537 (  23)  0.1251 (   8)
................................................................................
.............................. CYCLE   31 ......................................
................................................................................
   1    -50.7086310 -0.507086E+02  0.285E-01    8.86       0.0  T
   2    -50.7087723 -0.141318E-03  0.209E-01    8.87       1.0  T
   3    -50.7088659 -0.935557E-04  0.650E-02    8.87       1.0  T
   4    -50.7088803 -0.143963E-04  0.196E-02    8.87       1.0  T
   5    -50.7088809 -0.645133E-06  0.764E-03    8.87       2.6  T
   6    -50.7088810 -0.600882E-07  0.334E-03    8.87       5.9  T
   7    -50.7088810 -0.141236E-07  0.100E-03    8.87      19.6  T
speedup  0.94
cpu  time for SCC    0.01 s
wall time for SCC    0.01 s
speedup  1.00
cpu  time for grad    0.01 s
wall time for grad    0.01 s
 E :    -50.43256078  G :  0.044096    pred/act E change: -0.713D-02 -0.691D-02
Maxdispl :   0.2306   ||displ|| :   0.4948   Lambda : -0.117D-01
Largest |displ|/coords:  0.2306 (  22)  0.1406 (  24)  0.1268 (  56)
................................................................................
.............................. CYCLE   32 ......................................
................................................................................
   1    -50.7440959 -0.507441E+02  0.302E-01    9.01       0.0  T
   2    -50.7442332 -0.137253E-03  0.228E-01    9.01       1.0  T
   3    -50.7443407 -0.107522E-03  0.642E-02    9.02       1.0  T
   4    -50.7443563 -0.156153E-04  0.165E-02    9.01       1.2  T
   5    -50.7443567 -0.407143E-06  0.729E-03    9.02       2.7  T
   6    -50.7443567 -0.306547E-07  0.316E-03    9.02       6.2  T
   7    -50.7443567 -0.158196E-07  0.756E-04    9.02      25.9  T
speedup  1.11
cpu  time for SCC    0.01 s
wall time for SCC    0.01 s
speedup  1.01
cpu  time for grad    0.01 s
wall time for grad    0.01 s
 E :    -50.43884923  G :  0.044005    pred/act E change: -0.541D-02 -0.629D-02
Maxdispl :   0.1251   ||displ|| :   0.3287   Lambda : -0.582D-02
Largest |displ|/coords:  0.1251 (  22)  0.1133 (  24)  0.1050 (  26)
................................................................................
.............................. CYCLE   33 ......................................
................................................................................
   1    -50.7349527 -0.507350E+02  0.201E-01    8.97       0.0  T
   2    -50.7349803 -0.276373E-04  0.148E-01    8.97       1.0  T
   3    -50.7349973 -0.169413E-04  0.289E-02    8.97       1.0  T
   4    -50.7350001 -0.282832E-05  0.722E-03    8.97       2.7  T
   5    -50.7350002 -0.131061E-06  0.248E-03    8.97       7.9  T
   6    -50.7350002 -0.100527E-07  0.128E-03    8.97      15.4  T
speedup  0.91
cpu  time for SCC    0.00 s
wall time for SCC    0.01 s
speedup  0.99
cpu  time for grad    0.01 s
wall time for grad    0.01 s
 E :    -50.44234946  G :  0.020613    pred/act E change: -0.731D-02 -0.350D-02
Maxdispl :   0.1467   ||displ|| :   0.3851   Lambda : -0.279D-02
Largest |displ|/coords:  0.1467 (  23)  0.1277 (  22)  0.1145 (  15)
................................................................................
.............................. CYCLE   34 ......................................
................................................................................
   1    -50.7353835 -0.507354E+02  0.223E-01    8.93       0.0  T
   2    -50.7354108 -0.273002E-04  0.168E-01    8.93       1.0  T
   3    -50.7354381 -0.273925E-04  0.296E-02    8.93       1.0  T
   4    -50.7354409 -0.279043E-05  0.906E-03    8.93       2.2  T
   5    -50.7354410 -0.111172E-06  0.365E-03    8.93       5.4  T
   6    -50.7354411 -0.168617E-07  0.186E-03    8.93      10.5  T
speedup  1.02
cpu  time for SCC    0.01 s
wall time for SCC    0.01 s
speedup  1.02
cpu  time for grad    0.01 s
wall time for grad    0.01 s
 E :    -50.44370263  G :  0.020055    pred/act E change: -0.322D-02 -0.135D-02
Maxdispl :   0.1212   ||displ|| :   0.3107   Lambda : -0.169D-02
Largest |displ|/coords:  0.1212 (  24)  0.1170 (  18)  0.1050 (  15)
................................................................................
.............................. CYCLE   35 ......................................
................................................................................
   1    -50.7371789 -0.507372E+02  0.201E-01    8.95       0.0  T
   2    -50.7371950 -0.160651E-04  0.149E-01    8.95       1.0  T
   3    -50.7372037 -0.872210E-05  0.251E-02    8.95       1.0  T
   4    -50.7372058 -0.206241E-05  0.697E-03    8.95       2.8  T
   5    -50.7372059 -0.113851E-06  0.219E-03    8.95       9.0  T
   6    -50.7372059 -0.560512E-08  0.116E-03    8.95      16.9  T
speedup  0.91
cpu  time for SCC    0.00 s
wall time for SCC    0.01 s
speedup  1.00
cpu  time for grad    0.01 s
wall time for grad    0.01 s
 E :    -50.44419773  G :  0.022295    pred/act E change: -0.160D-02 -0.495D-03
Maxdispl :   0.0678   ||displ|| :   0.1187   Lambda : -0.684D-03
Largest |displ|/coords:  0.0678 (  11)  0.0394 (   5)  0.0357 (   2)
................................................................................
.............................. CYCLE   36 ......................................
................................................................................
   1    -50.7396681 -0.507397E+02  0.676E-02    8.95       0.0  T
   2    -50.7396709 -0.277460E-05  0.499E-02    8.94       1.0  T
   3    -50.7396721 -0.127960E-05  0.948E-03    8.94       2.1  T
   4    -50.7396725 -0.405270E-06  0.255E-03    8.94       7.7  T
   5    -50.7396726 -0.155923E-07  0.954E-04    8.94      20.6  T
speedup  1.06
cpu  time for SCC    0.00 s
wall time for SCC    0.00 s
speedup  1.07
cpu  time for grad    0.01 s
wall time for grad    0.01 s
 E :    -50.44465014  G :  0.011036    pred/act E change: -0.926D-03 -0.452D-03
Maxdispl :   0.1025   ||displ|| :   0.1985   Lambda : -0.480D-03
Largest |displ|/coords:  0.1025 (   5)  0.0796 (  15)  0.0784 (   1)
................................................................................
.............................. CYCLE   37 ......................................
................................................................................
   1    -50.7395998 -0.507396E+02  0.115E-01    8.92       0.0  T
   2    -50.7396018 -0.198167E-05  0.866E-02    8.92       1.0  T
   3    -50.7396040 -0.218447E-05  0.828E-03    8.92       2.4  T
   4    -50.7396041 -0.147690E-06  0.358E-03    8.92       5.5  T
   5    -50.7396041 -0.144157E-07  0.106E-03    8.92      18.5  T
   6    -50.7396041 -0.115485E-08  0.599E-04    8.92      32.8  T
speedup  1.07
cpu  time for SCC    0.01 s
wall time for SCC    0.01 s
speedup  0.99
cpu  time for grad    0.01 s
wall time for grad    0.01 s
 E :    -50.44500041  G :  0.009007    pred/act E change: -0.347D-03 -0.350D-03
Maxdispl :   0.1680   ||displ|| :   0.3718   Lambda : -0.674D-03
Largest |displ|/coords:  0.1680 (  15)  0.1409 (  11)  0.1218 (   5)
................................................................................
.............................. CYCLE   38 ......................................
................................................................................
   1    -50.7386553 -0.507387E+02  0.203E-01    8.90       0.0  T
   2    -50.7386630 -0.773192E-05  0.152E-01    8.90       1.0  T
   3    -50.7386701 -0.709089E-05  0.190E-02    8.90       1.0  T
   4    -50.7386708 -0.751666E-06  0.580E-03    8.90       3.4  T
   5    -50.7386709 -0.469409E-07  0.198E-03    8.90       9.9  T
   6    -50.7386709 -0.448954E-08  0.996E-04    8.90      19.7  T
speedup  0.88
cpu  time for SCC    0.00 s
wall time for SCC    0.01 s
speedup  0.98
cpu  time for grad    0.01 s
wall time for grad    0.01 s
 E :    -50.44544446  G :  0.014502    pred/act E change: -0.249D-03 -0.444D-03
Maxdispl :   0.1437   ||displ|| :   0.3393   Lambda : -0.615D-03
Largest |displ|/coords:  0.1437 (   5)  0.1263 (  11)  0.1177 (  14)
................................................................................
.............................. CYCLE   39 ......................................
................................................................................
   1    -50.7393960 -0.507394E+02  0.171E-01    8.89       0.0  T
   2    -50.7394042 -0.820410E-05  0.127E-01    8.88       1.0  T
   3    -50.7394094 -0.522660E-05  0.189E-02    8.88       1.0  T
   4    -50.7394106 -0.117744E-05  0.521E-03    8.88       3.8  T
   5    -50.7394106 -0.450147E-07  0.197E-03    8.88       9.9  T
   6    -50.7394106 -0.738144E-08  0.872E-04    8.88      22.5  T
speedup  1.07
cpu  time for SCC    0.01 s
wall time for SCC    0.01 s
speedup  1.05
cpu  time for grad    0.01 s
wall time for grad    0.01 s
 E :    -50.44581107  G :  0.011831    pred/act E change: -0.383D-03 -0.367D-03
Maxdispl :   0.1387   ||displ|| :   0.3015   Lambda : -0.437D-03
Largest |displ|/coords:  0.1387 (   1)  0.1111 (  14)  0.1030 (  15)
................................................................................
.............................. CYCLE   40 ......................................
................................................................................
   1    -50.7375983 -0.507376E+02  0.161E-01    8.88       0.0  T
   2    -50.7376057 -0.740658E-05  0.120E-01    8.88       1.0  T
   3    -50.7376105 -0.475711E-05  0.160E-02    8.87       1.2  T
   4    -50.7376116 -0.112904E-05  0.481E-03    8.87       4.1  T
   5    -50.7376117 -0.333387E-07  0.172E-03    8.87      11.4  T
   6    -50.7376117 -0.342780E-08  0.815E-04    8.87      24.1  T
speedup  1.03
cpu  time for SCC    0.01 s
wall time for SCC    0.01 s
speedup  1.04
cpu  time for grad    0.01 s
wall time for grad    0.01 s
 E :    -50.44604215  G :  0.016795    pred/act E change: -0.343D-03 -0.231D-03
Maxdispl :   0.1097   ||displ|| :   0.1996   Lambda : -0.506D-03
Largest |displ|/coords:  0.1097 (   2)  0.0757 (  10)  0.0715 (   1)
................................................................................
.............................. CYCLE   41 ......................................
................................................................................
   1    -50.7419680 -0.507420E+02  0.910E-02    8.92       0.0  T
   2    -50.7419726 -0.455063E-05  0.670E-02    8.91       1.0  T
   3    -50.7419754 -0.280926E-05  0.131E-02    8.91       1.5  T
   4    -50.7419759 -0.502634E-06  0.314E-03    8.91       6.3  T
   5    -50.7419759 -0.215962E-07  0.123E-03    8.91      16.0  T
   6    -50.7419759 -0.132798E-08  0.612E-04    8.91      32.0  T
speedup  1.02
cpu  time for SCC    0.01 s
wall time for SCC    0.01 s
speedup  1.01
cpu  time for grad    0.01 s
wall time for grad    0.01 s
 E :    -50.44621167  G :  0.013989    pred/act E change: -0.238D-03 -0.170D-03
Maxdispl :   0.1419   ||displ|| :   0.2500   Lambda : -0.503D-03
Largest |displ|/coords:  0.1419 (   1)  0.0837 (   5)  0.0823 (   2)
................................................................................
.............................. CYCLE   42 ......................................
................................................................................
   1    -50.7430970 -0.507431E+02  0.130E-01    8.94       0.0  T
   2    -50.7431023 -0.536228E-05  0.975E-02    8.94       1.0  T
   3    -50.7431056 -0.327709E-05  0.148E-02    8.94       1.3  T
   4    -50.7431064 -0.824272E-06  0.476E-03    8.94       4.1  T
   5    -50.7431065 -0.311386E-07  0.169E-03    8.94      11.6  T
   6    -50.7431065 -0.277957E-08  0.827E-04    8.94      23.7  T
speedup  0.89
cpu  time for SCC    0.00 s
wall time for SCC    0.01 s
speedup  0.98
cpu  time for grad    0.01 s
wall time for grad    0.01 s
 E :    -50.44644868  G :  0.010900    pred/act E change: -0.263D-03 -0.237D-03
Maxdispl :   0.1060   ||displ|| :   0.1603   Lambda : -0.245D-03
Largest |displ|/coords:  0.1060 (   1)  0.0454 (   5)  0.0428 (  14)
................................................................................
.............................. CYCLE   43 ......................................
................................................................................
   1    -50.7414947 -0.507415E+02  0.781E-02    8.92       0.0  T
   2    -50.7414960 -0.131079E-05  0.588E-02    8.92       1.0  T
   3    -50.7414972 -0.114649E-05  0.633E-03    8.92       3.1  T
   4    -50.7414973 -0.153830E-06  0.252E-03    8.92       7.8  T
   5    -50.7414973 -0.821935E-08  0.774E-04    8.92      25.3  T
speedup  1.02
cpu  time for SCC    0.00 s
wall time for SCC    0.00 s
speedup  1.04
cpu  time for grad    0.01 s
wall time for grad    0.01 s
 E :    -50.44662164  G :  0.010332    pred/act E change: -0.267D-03 -0.173D-03
Maxdispl :   0.1513   ||displ|| :   0.2433   Lambda : -0.347D-03
Largest |displ|/coords:  0.1513 (   1)  0.0954 (   2)  0.0830 (   5)
................................................................................
.............................. CYCLE   44 ......................................
................................................................................
   1    -50.7407467 -0.507407E+02  0.110E-01    8.90       0.0  T
   2    -50.7407500 -0.330391E-05  0.821E-02    8.90       1.0  T
   3    -50.7407522 -0.222007E-05  0.125E-02    8.90       1.6  T
   4    -50.7407527 -0.502198E-06  0.452E-03    8.90       4.3  T
   5    -50.7407527 -0.204315E-07  0.119E-03    8.90      16.5  T
   6    -50.7407527 -0.181043E-08  0.689E-04    8.90      28.5  T
speedup  1.07
cpu  time for SCC    0.01 s
wall time for SCC    0.01 s
speedup  1.06
cpu  time for grad    0.01 s
wall time for grad    0.01 s
 E :    -50.44684327  G :  0.008875    pred/act E change: -0.126D-03 -0.222D-03
Maxdispl :   0.2244   ||displ|| :   0.3648   Lambda : -0.315D-03
Largest |displ|/coords:  0.2244 (   1)  0.1288 (   2)  0.1136 (   3)
................................................................................
.............................. CYCLE   45 ......................................
................................................................................
   1    -50.7409140 -0.507409E+02  0.162E-01    8.89       0.0  T
   2    -50.7409212 -0.717938E-05  0.122E-01    8.89       1.0  T
   3    -50.7409260 -0.478175E-05  0.182E-02    8.90       1.1  T
   4    -50.7409271 -0.110372E-05  0.722E-03    8.89       2.7  T
   5    -50.7409272 -0.493416E-07  0.199E-03    8.89       9.9  T
   6    -50.7409272 -0.339268E-08  0.110E-03    8.89      17.8  T
speedup  1.02
cpu  time for SCC    0.01 s
wall time for SCC    0.01 s
speedup  1.03
cpu  time for grad    0.01 s
wall time for grad    0.01 s
 E :    -50.44701569  G :  0.013802    pred/act E change: -0.184D-03 -0.172D-03
Maxdispl :   0.1176   ||displ|| :   0.2199   Lambda : -0.330D-03
Largest |displ|/coords:  0.1176 (   1)  0.0857 (   3)  0.0707 (   2)
................................................................................
.............................. CYCLE   46 ......................................
................................................................................
   1    -50.7449033 -0.507449E+02  0.957E-02    8.88       0.0  T
   2    -50.7449075 -0.418294E-05  0.706E-02    8.88       1.0  T
   3    -50.7449098 -0.228986E-05  0.136E-02    8.89       1.4  T
   4    -50.7449103 -0.507378E-06  0.547E-03    8.88       3.6  T
   5    -50.7449103 -0.341707E-07  0.123E-03    8.88      16.0  T
   6    -50.7449103 -0.176414E-08  0.687E-04    8.88      28.5  T
speedup  1.03
cpu  time for SCC    0.01 s
wall time for SCC    0.01 s
speedup  1.03
cpu  time for grad    0.01 s
wall time for grad    0.01 s
 E :    -50.44718892  G :  0.008775    pred/act E change: -0.178D-03 -0.173D-03
Maxdispl :   0.2707   ||displ|| :   0.4250   Lambda : -0.449D-03
Largest |displ|/coords:  0.2707 (   1)  0.1509 (   5)  0.1187 (  15)
................................................................................
.............................. CYCLE   47 ......................................
................................................................................
   1    -50.7431707 -0.507432E+02  0.192E-01    8.87       0.0  T
   2    -50.7431826 -0.119143E-04  0.144E-01    8.87       1.0  T
   3    -50.7431896 -0.697259E-05  0.204E-02    8.87       1.0  T
   4    -50.7431916 -0.203152E-05  0.779E-03    8.87       2.5  T
   5    -50.7431917 -0.849546E-07  0.245E-03    8.87       8.0  T
   6    -50.7431917 -0.563991E-08  0.134E-03    8.87      14.6  T
speedup  1.03
cpu  time for SCC    0.01 s
wall time for SCC    0.01 s
speedup  0.95
cpu  time for grad    0.01 s
wall time for grad    0.01 s
 E :    -50.44744384  G :  0.013354    pred/act E change: -0.173D-03 -0.255D-03
Maxdispl :   0.1847   ||displ|| :   0.2804   Lambda : -0.345D-03
Largest |displ|/coords:  0.1847 (   1)  0.1097 (   4)  0.0879 (   3)
................................................................................
.............................. CYCLE   48 ......................................
................................................................................
   1    -50.7431087 -0.507431E+02  0.101E-01    8.85       0.0  T
   2    -50.7431113 -0.263590E-05  0.761E-02    8.85       1.0  T
   3    -50.7431130 -0.163583E-05  0.876E-03    8.85       2.2  T
   4    -50.7431134 -0.479363E-06  0.318E-03    8.85       6.2  T
   5    -50.7431134 -0.122958E-07  0.118E-03    8.85      16.7  T
   6    -50.7431134 -0.138441E-08  0.533E-04    8.85      36.8  T
speedup  1.07
cpu  time for SCC    0.01 s
wall time for SCC    0.01 s
speedup  0.98
cpu  time for grad    0.01 s
wall time for grad    0.01 s
 E :    -50.44772093  G :  0.012441    pred/act E change: -0.265D-03 -0.277D-03
Maxdispl :   0.3801   ||displ|| :   0.5442   Lambda : -0.642D-03
Largest |displ|/coords:  0.3801 (   1)  0.1982 (   4)  0.1934 (   3)
................................................................................
.............................. CYCLE   49 ......................................
................................................................................
   1    -50.7434373 -0.507434E+02  0.208E-01    8.81       0.0  T
   2    -50.7434441 -0.677597E-05  0.155E-01    8.81       1.0  T
   3    -50.7434496 -0.548028E-05  0.168E-02    8.81       1.2  T
   4    -50.7434504 -0.842227E-06  0.408E-03    8.81       4.8  T
   5    -50.7434504 -0.303531E-07  0.204E-03    8.81       9.6  T
   6    -50.7434504 -0.736954E-08  0.858E-04    8.81      22.8  T
speedup  1.09
cpu  time for SCC    0.01 s
wall time for SCC    0.01 s
speedup  0.98
cpu  time for grad    0.01 s
wall time for grad    0.01 s
 E :    -50.44821285  G :  0.010597    pred/act E change: -0.186D-03 -0.492D-03
Maxdispl :   0.4417   ||displ|| :   0.6026   Lambda : -0.717D-03
Largest |displ|/coords:  0.4417 (   1)  0.1853 (   3)  0.1822 (   4)
................................................................................
.............................. CYCLE   50 ......................................
................................................................................
   1    -50.7446279 -0.507446E+02  0.248E-01    8.76       0.0  T
   2    -50.7446356 -0.770264E-05  0.186E-01    8.76       1.0  T
   3    -50.7446443 -0.867796E-05  0.206E-02    8.77       1.0  T
   4    -50.7446448 -0.535483E-06  0.397E-03    8.76       4.9  T
   5    -50.7446448 -0.201292E-07  0.246E-03    8.76       8.0  T
   6    -50.7446449 -0.108822E-07  0.871E-04    8.76      22.5  T
speedup  1.07
cpu  time for SCC    0.01 s
wall time for SCC    0.01 s
speedup  0.98
cpu  time for grad    0.01 s
wall time for grad    0.01 s
 E :    -50.44876934  G :  0.012004    pred/act E change: -0.416D-03 -0.556D-03
Maxdispl :   0.5247   ||displ|| :   0.6906   Lambda : -0.883D-03
Largest |displ|/coords:  0.5247 (   1)  0.2400 (   3)  0.1469 (  15)
................................................................................
.............................. CYCLE   51 ......................................
................................................................................
   1    -50.7417614 -0.507418E+02  0.300E-01    8.72       0.0  T
   2    -50.7417714 -0.999589E-05  0.224E-01    8.72       1.0  T
   3    -50.7417824 -0.109808E-04  0.230E-02    8.72       1.0  T
   4    -50.7417832 -0.781808E-06  0.635E-03    8.72       3.1  T
   5    -50.7417832 -0.491165E-07  0.283E-03    8.72       6.9  T
   6    -50.7417832 -0.116992E-07  0.149E-03    8.72      13.2  T
speedup  0.91
cpu  time for SCC    0.01 s
wall time for SCC    0.01 s
speedup  0.98
cpu  time for grad    0.01 s
wall time for grad    0.01 s
 E :    -50.44938021  G :  0.019318    pred/act E change: -0.488D-03 -0.611D-03
Maxdispl :   0.2988   ||displ|| :   0.6046   Lambda : -0.186D-02
Largest |displ|/coords:  0.2988 (   2)  0.2063 (  10)  0.1995 (   1)
................................................................................
.............................. CYCLE   52 ......................................
................................................................................
   1    -50.7525136 -0.507525E+02  0.357E-01    8.88       0.0  T
   2    -50.7525594 -0.458298E-04  0.264E-01    8.88       1.0  T
   3    -50.7525992 -0.397714E-04  0.453E-02    8.86       1.0  T
   4    -50.7526033 -0.407123E-05  0.169E-02    8.87       1.2  T
   5    -50.7526037 -0.372717E-06  0.438E-03    8.87       4.5  T
   6    -50.7526037 -0.233009E-07  0.269E-03    8.87       7.3  T
   7    -50.7526037 -0.103318E-07  0.661E-04    8.87      29.7  T
speedup  0.92
cpu  time for SCC    0.01 s
wall time for SCC    0.01 s
speedup  0.98
cpu  time for grad    0.01 s
wall time for grad    0.01 s
 E :    -50.44774931  G :  0.065004    pred/act E change: -0.652D-03  0.163D-02
Maxdispl :   0.1553   ||displ|| :   0.3857   Lambda : -0.103D-01
Largest |displ|/coords:  0.1553 (  10)  0.1091 (  11)  0.0920 (  24)

generating ANC from model Hessian ...
 Shifting diagonal of input Hessian by   4.919911022567973E-003
 Lowest  eigenvalues of input Hessian
   -0.000000   -0.000000   -0.000000    0.000000    0.000000    0.000000
    0.005000    0.005180    0.005510    0.005861    0.006222    0.006474
    0.006819    0.007337    0.007655    0.007817    0.008148    0.010093
 Highest eigenvalues
    1.442968    1.451139    1.458443    2.189897    3.419997    3.743362
 
cpu  time for ANC gen    0.02 s
wall time for ANC gen    0.02 s
................................................................................
.............................. CYCLE   53 ......................................
................................................................................
   1    -50.7401492 -0.507401E+02  0.354E-01    8.70       0.0  T
   2    -50.7403041 -0.154869E-03  0.260E-01    8.70       1.0  T
   3    -50.7404079 -0.103771E-03  0.746E-02    8.72       1.0  T
   4    -50.7404232 -0.152675E-04  0.277E-02    8.72       1.0  T
   5    -50.7404247 -0.152622E-05  0.781E-03    8.72       2.5  T
   6    -50.7404248 -0.103482E-06  0.436E-03    8.71       4.5  T
   7    -50.7404248 -0.303923E-07  0.116E-03    8.71      16.9  T
   8    -50.7404248 -0.235105E-08  0.378E-04    8.71      51.8  T
   9    -50.7404248 -0.423867E-09  0.102E-04    8.71     191.7  T
speedup  0.96
cpu  time for SCC    0.01 s
wall time for SCC    0.01 s
speedup  0.96
cpu  time for grad    0.02 s
wall time for grad    0.02 s
 E :    -50.44747011  G :  0.066274    pred/act E change:  0.000D+00  0.279D-03
Maxdispl :   0.1133   ||displ|| :   0.2556   Lambda : -0.502D-02
Largest |displ|/coords:  0.1133 (  18)  0.0729 (  12)  0.0659 (  16)
................................................................................
.............................. CYCLE   54 ......................................
................................................................................
   1    -50.7440339 -0.507440E+02  0.242E-01    8.77       0.0  T
   2    -50.7440568 -0.229285E-04  0.181E-01    8.77       1.0  T
   3    -50.7440687 -0.118717E-04  0.278E-02    8.77       1.0  T
   4    -50.7440722 -0.351219E-05  0.792E-03    8.77       2.5  T
   5    -50.7440723 -0.126354E-06  0.290E-03    8.77       6.8  T
   6    -50.7440723 -0.573230E-08  0.152E-03    8.77      12.9  T
speedup  1.05
cpu  time for SCC    0.01 s
wall time for SCC    0.01 s
speedup  0.96
cpu  time for grad    0.01 s
wall time for grad    0.01 s
 E :    -50.45075333  G :  0.027311    pred/act E change:  0.000D+00 -0.328D-02
Maxdispl :   0.1165   ||displ|| :   0.2149   Lambda : -0.167D-02
Largest |displ|/coords:  0.1165 (   4)  0.0886 (   3)  0.0707 (  11)
................................................................................
.............................. CYCLE   55 ......................................
................................................................................
   1    -50.7481202 -0.507481E+02  0.158E-01    8.85       0.0  T
   2    -50.7481379 -0.177128E-04  0.118E-01    8.84       1.0  T
   3    -50.7481504 -0.124879E-04  0.239E-02    8.84       1.0  T
   4    -50.7481526 -0.214923E-05  0.749E-03    8.84       2.6  T
   5    -50.7481527 -0.997486E-07  0.271E-03    8.84       7.2  T
   6    -50.7481527 -0.690303E-08  0.136E-03    8.84      14.4  T
speedup  1.09
cpu  time for SCC    0.01 s
wall time for SCC    0.01 s
speedup  0.98
cpu  time for grad    0.01 s
wall time for grad    0.01 s
 E :    -50.45138314  G :  0.015621    pred/act E change: -0.267D-02 -0.630D-03
Maxdispl :   0.0870   ||displ|| :   0.1782   Lambda : -0.626D-03
Largest |displ|/coords:  0.0870 (  18)  0.0842 (   4)  0.0520 (  14)
................................................................................
.............................. CYCLE   56 ......................................
................................................................................
   1    -50.7470923 -0.507471E+02  0.165E-01    8.85       0.0  T
   2    -50.7470964 -0.418597E-05  0.125E-01    8.85       1.0  T
   3    -50.7471015 -0.505106E-05  0.111E-02    8.84       1.8  T
   4    -50.7471018 -0.257543E-06  0.470E-03    8.84       4.2  T
   5    -50.7471018 -0.182140E-07  0.154E-03    8.84      12.7  T
   6    -50.7471018 -0.209137E-08  0.714E-04    8.84      27.5  T
speedup  0.89
cpu  time for SCC    0.01 s
wall time for SCC    0.01 s
speedup  0.96
cpu  time for grad    0.01 s
wall time for grad    0.01 s
 E :    -50.45179544  G :  0.006750    pred/act E change: -0.875D-03 -0.412D-03
Maxdispl :   0.1549   ||displ|| :   0.2687   Lambda : -0.372D-03
Largest |displ|/coords:  0.1549 (   4)  0.1038 (   3)  0.0958 (  18)
................................................................................
.............................. CYCLE   57 ......................................
................................................................................
   1    -50.7459811 -0.507460E+02  0.167E-01    8.85       0.0  T
   2    -50.7459872 -0.607156E-05  0.126E-01    8.85       1.0  T
   3    -50.7459925 -0.529651E-05  0.148E-02    8.84       1.3  T
   4    -50.7459933 -0.804547E-06  0.610E-03    8.85       3.2  T
   5    -50.7459933 -0.491126E-07  0.221E-03    8.85       8.9  T
   6    -50.7459933 -0.726418E-08  0.121E-03    8.85      16.2  T
speedup  1.02
cpu  time for SCC    0.01 s
wall time for SCC    0.01 s
speedup  1.02
cpu  time for grad    0.01 s
wall time for grad    0.01 s
 E :    -50.45198549  G :  0.010713    pred/act E change: -0.323D-03 -0.190D-03
Maxdispl :   0.1422   ||displ|| :   0.1932   Lambda : -0.276D-03
Largest |displ|/coords:  0.1422 (   4)  0.0810 (   3)  0.0556 (   1)
................................................................................
.............................. CYCLE   58 ......................................
................................................................................
   1    -50.7476411 -0.507476E+02  0.868E-02    8.85       0.0  T
   2    -50.7476430 -0.196129E-05  0.642E-02    8.85       1.0  T
   3    -50.7476445 -0.151312E-05  0.928E-03    8.85       2.1  T
   4    -50.7476448 -0.222981E-06  0.349E-03    8.85       5.6  T
   5    -50.7476448 -0.173127E-07  0.102E-03    8.85      19.1  T
   6    -50.7476448 -0.148354E-08  0.597E-04    8.85      32.9  T
speedup  1.07
cpu  time for SCC    0.01 s
wall time for SCC    0.01 s
speedup  1.04
cpu  time for grad    0.01 s
wall time for grad    0.01 s
 E :    -50.45218887  G :  0.005420    pred/act E change: -0.199D-03 -0.203D-03
Maxdispl :   0.2045   ||displ|| :   0.3366   Lambda : -0.300D-03
Largest |displ|/coords:  0.2045 (   4)  0.1684 (   3)  0.1182 (   1)
................................................................................
.............................. CYCLE   59 ......................................
................................................................................
   1    -50.7482427 -0.507482E+02  0.183E-01    8.85       0.0  T
   2    -50.7482486 -0.596089E-05  0.137E-01    8.85       1.0  T
   3    -50.7482551 -0.647879E-05  0.164E-02    8.85       1.2  T
   4    -50.7482556 -0.480058E-06  0.518E-03    8.85       3.8  T
   5    -50.7482556 -0.335429E-07  0.189E-03    8.85      10.4  T
   6    -50.7482556 -0.401867E-08  0.999E-04    8.85      19.6  T
speedup  0.89
cpu  time for SCC    0.00 s
wall time for SCC    0.01 s
speedup  0.96
cpu  time for grad    0.01 s
wall time for grad    0.01 s
 E :    -50.45231340  G :  0.010066    pred/act E change: -0.143D-03 -0.125D-03
Maxdispl :   0.1361   ||displ|| :   0.2176   Lambda : -0.230D-03
Largest |displ|/coords:  0.1361 (   4)  0.0976 (   3)  0.0642 (   1)
................................................................................
.............................. CYCLE   60 ......................................
................................................................................
   1    -50.7495793 -0.507496E+02  0.121E-01    8.84       0.0  T
   2    -50.7495828 -0.341610E-05  0.902E-02    8.84       1.0  T
   3    -50.7495859 -0.310051E-05  0.122E-02    8.84       1.6  T
   4    -50.7495862 -0.339442E-06  0.370E-03    8.84       5.3  T
   5    -50.7495862 -0.218333E-07  0.127E-03    8.84      15.4  T
   6    -50.7495862 -0.219497E-08  0.750E-04    8.84      26.1  T
speedup  0.89
cpu  time for SCC    0.00 s
wall time for SCC    0.01 s
speedup  0.97
cpu  time for grad    0.01 s
wall time for grad    0.01 s
 E :    -50.45239653  G :  0.008723    pred/act E change: -0.167D-03 -0.831D-04
Maxdispl :   0.0502   ||displ|| :   0.0873   Lambda : -0.103D-03
Largest |displ|/coords:  0.0502 (  10)  0.0401 (   4)  0.0221 (   2)
................................................................................
.............................. CYCLE   61 ......................................
................................................................................
   1    -50.7486179 -0.507486E+02  0.683E-02    8.85       0.0  T
   2    -50.7486185 -0.614247E-06  0.512E-02    8.85       1.0  T
   3    -50.7486191 -0.516239E-06  0.468E-03    8.85       4.2  T
   4    -50.7486191 -0.773830E-07  0.153E-03    8.85      12.8  T
   5    -50.7486191 -0.307121E-08  0.642E-04    8.85      30.6  T
speedup  0.85
cpu  time for SCC    0.00 s
wall time for SCC    0.00 s
speedup  0.96
cpu  time for grad    0.01 s
wall time for grad    0.01 s
 E :    -50.45245855  G :  0.004702    pred/act E change: -0.121D-03 -0.620D-04
Maxdispl :   0.0498   ||displ|| :   0.1171   Lambda : -0.109D-03
Largest |displ|/coords:  0.0498 (   2)  0.0481 (   8)  0.0379 (   5)
................................................................................
.............................. CYCLE   62 ......................................
................................................................................
   1    -50.7494713 -0.507495E+02  0.681E-02    8.87       0.0  T
   2    -50.7494726 -0.127257E-05  0.509E-02    8.87       1.0  T
   3    -50.7494735 -0.888752E-06  0.753E-03    8.87       2.6  T
   4    -50.7494736 -0.156518E-06  0.252E-03    8.87       7.8  T
   5    -50.7494736 -0.718958E-08  0.619E-04    8.87      31.7  T
speedup  1.06
cpu  time for SCC    0.00 s
wall time for SCC    0.00 s
speedup  0.96
cpu  time for grad    0.01 s
wall time for grad    0.01 s
 E :    -50.45251220  G :  0.004166    pred/act E change: -0.518D-04 -0.537D-04
Maxdispl :   0.0982   ||displ|| :   0.1850   Lambda : -0.667D-04
Largest |displ|/coords:  0.0982 (   4)  0.0812 (   3)  0.0671 (  10)
................................................................................
.............................. CYCLE   63 ......................................
................................................................................
   1    -50.7487673 -0.507488E+02  0.985E-02    8.87       0.0  T
   2    -50.7487685 -0.118864E-05  0.728E-02    8.87       1.0  T
   3    -50.7487698 -0.128196E-05  0.918E-03    8.87       2.1  T
   4    -50.7487699 -0.867673E-07  0.220E-03    8.87       8.9  T
   5    -50.7487699 -0.854396E-08  0.909E-04    8.87      21.6  T
speedup  1.06
cpu  time for SCC    0.00 s
wall time for SCC    0.00 s
speedup  1.04
cpu  time for grad    0.01 s
wall time for grad    0.01 s
 E :    -50.45255885  G :  0.004520    pred/act E change: -0.552D-04 -0.466D-04
Maxdispl :   0.1003   ||displ|| :   0.2032   Lambda : -0.723D-04
Largest |displ|/coords:  0.1003 (   4)  0.0788 (   3)  0.0667 (   2)
................................................................................
.............................. CYCLE   64 ......................................
................................................................................
   1    -50.7489004 -0.507489E+02  0.101E-01    8.87       0.0  T
   2    -50.7489018 -0.145565E-05  0.746E-02    8.87       1.0  T
   3    -50.7489034 -0.158226E-05  0.101E-02    8.87       1.9  T
   4    -50.7489035 -0.917744E-07  0.271E-03    8.87       7.2  T
[...]
   1    -50.7497127 -0.507497E+02  0.190E-02    8.92       0.0  T
   2    -50.7497127 -0.318479E-07  0.143E-02    8.92       1.4  T
   3    -50.7497128 -0.180408E-07  0.130E-03    8.92      15.1  T
   4    -50.7497128 -0.562669E-08  0.573E-04    8.92      34.2  T
   5    -50.7497128 -0.177231E-09  0.101E-04    8.92     195.0  T
speedup  0.83
cpu  time for SCC    0.00 s
wall time for SCC    0.00 s
speedup  0.98
cpu  time for grad    0.01 s
wall time for grad    0.01 s
 E :    -50.45267708  G :  0.000599    pred/act E change: -0.642D-06 -0.991D-06
Maxdispl :   0.0211   ||displ|| :   0.0294   Lambda : -0.117D-05
Largest |displ|/coords:  0.0211 (   1)  0.0158 (   3)  0.0059 (   8)
................................................................................
.............................. CYCLE   77 ......................................
................................................................................
   1    -50.7496355 -0.507496E+02  0.182E-02    8.92       0.0  T
   2    -50.7496355 -0.349524E-07  0.137E-02    8.92       1.4  T
   3    -50.7496355 -0.224502E-07  0.134E-03    8.92      14.7  T
   4    -50.7496355 -0.558376E-08  0.574E-04    8.92      34.1  T
   5    -50.7496355 -0.222911E-09  0.107E-04    8.92     183.2  T
speedup  1.06
cpu  time for SCC    0.01 s
wall time for SCC    0.00 s
speedup  0.98
cpu  time for grad    0.01 s
wall time for grad    0.01 s
 E :    -50.45267788  G :  0.000531    pred/act E change: -0.697D-06 -0.800D-06
Maxdispl :   0.0132   ||displ|| :   0.0181   Lambda : -0.744D-06
Largest |displ|/coords:  0.0132 (   1)  0.0071 (   3)  0.0051 (  15)
................................................................................
.............................. CYCLE   78 ......................................
................................................................................
   1    -50.7496152 -0.507496E+02  0.112E-02    8.92       0.0  T
   2    -50.7496152 -0.191119E-07  0.843E-03    8.92       2.3  T
   3    -50.7496152 -0.123128E-07  0.956E-04    8.92      20.5  T
   4    -50.7496153 -0.303175E-08  0.377E-04    8.92      52.0  T
speedup  1.03
cpu  time for SCC    0.00 s
wall time for SCC    0.00 s
speedup  0.98
cpu  time for grad    0.01 s
wall time for grad    0.01 s
 E :    -50.45267838  G :  0.000450    pred/act E change: -0.583D-06 -0.508D-06
Maxdispl :   0.0105   ||displ|| :   0.0152   Lambda : -0.561D-06
Largest |displ|/coords:  0.0105 (   1)  0.0055 (   3)  0.0040 (   8)
................................................................................
.............................. CYCLE   79 ......................................
................................................................................
   1    -50.7495572 -0.507496E+02  0.110E-02    8.92       0.0  T
   2    -50.7495572 -0.139392E-07  0.830E-03    8.92       2.4  T
   3    -50.7495572 -0.887137E-08  0.724E-04    8.92      27.1  T
   4    -50.7495572 -0.239888E-08  0.275E-04    8.92      71.3  T
speedup  0.77
cpu  time for SCC    0.00 s
wall time for SCC    0.00 s
speedup  0.97
cpu  time for grad    0.01 s
wall time for grad    0.01 s
 E :    -50.45267877  G :  0.000338    pred/act E change: -0.372D-06 -0.389D-06
Maxdispl :   0.0049   ||displ|| :   0.0087   Lambda : -0.463D-06
Largest |displ|/coords:  0.0049 (   1)  0.0037 (   2)  0.0025 (  15)
................................................................................
.............................. CYCLE   80 ......................................
................................................................................
   1    -50.7496260 -0.507496E+02  0.639E-03    8.92       0.0  T
   2    -50.7496260 -0.889341E-08  0.481E-03    8.92       4.1  T
   3    -50.7496260 -0.519513E-08  0.619E-04    8.92      31.7  T
   4    -50.7496260 -0.155034E-08  0.199E-04    8.92      98.7  T
speedup  0.77
cpu  time for SCC    0.00 s
wall time for SCC    0.00 s
speedup  0.98
cpu  time for grad    0.01 s
wall time for grad    0.01 s
 E :    -50.45267907  G :  0.000269    pred/act E change: -0.281D-06 -0.297D-06
Maxdispl :   0.0047   ||displ|| :   0.0110   Lambda : -0.280D-06
Largest |displ|/coords:  0.0047 (   1)  0.0041 (   5)  0.0036 (  20)
................................................................................
.............................. CYCLE   81 ......................................
................................................................................
   1    -50.7496217 -0.507496E+02  0.849E-03    8.92       0.0  T
   2    -50.7496217 -0.859337E-08  0.640E-03    8.92       3.1  T
   3    -50.7496217 -0.411262E-08  0.543E-04    8.92      36.1  T
   4    -50.7496217 -0.179207E-08  0.162E-04    8.92     121.4  T
speedup  1.05
cpu  time for SCC    0.00 s
wall time for SCC    0.00 s
speedup  0.98
cpu  time for grad    0.01 s
wall time for grad    0.01 s
 E :    -50.45267927  G :  0.000257    pred/act E change: -0.232D-06 -0.195D-06
Maxdispl :   0.0026   ||displ|| :   0.0065   Lambda : -0.228D-06
Largest |displ|/coords:  0.0026 (  20)  0.0022 (   5)  0.0022 (  37)

generating ANC from model Hessian ...
 Shifting diagonal of input Hessian by   4.966868005402039E-003
 Lowest  eigenvalues of input Hessian
   -0.000000   -0.000000    0.000000    0.000000    0.000000    0.000000
    0.005000    0.005102    0.005510    0.005804    0.006301    0.006613
    0.006743    0.007209    0.007547    0.007816    0.009708    0.010076
 Highest eigenvalues
    1.407824    1.425172    1.477866    2.307936    3.439200    3.780915
 
cpu  time for ANC gen    0.02 s
wall time for ANC gen    0.02 s
................................................................................
.............................. CYCLE   82 ......................................
................................................................................
   1    -50.7496570 -0.507497E+02  0.559E-03    8.92       0.0  T
   2    -50.7496570 -0.558369E-08  0.421E-03    8.92       4.7  T
   3    -50.7496570 -0.338456E-08  0.453E-04    8.92      43.3  T
   4    -50.7496570 -0.986333E-09  0.140E-04    8.92     139.7  T
speedup  0.98
cpu  time for SCC    0.00 s
wall time for SCC    0.00 s
speedup  1.03
cpu  time for grad    0.01 s
wall time for grad    0.01 s
 E :    -50.45267944  G :  0.000257    pred/act E change:  0.000D+00 -0.169D-06
Maxdispl :   0.0020   ||displ|| :   0.0036   Lambda : -0.196D-06
Largest |displ|/coords:  0.0020 (  12)  0.0014 (   3)  0.0011 (  13)
................................................................................
.............................. CYCLE   83 ......................................
................................................................................
   1    -50.7496388 -0.507496E+02  0.423E-03    8.92       0.0  T
   2    -50.7496388 -0.253727E-08  0.322E-03    8.92       6.1  T
   3    -50.7496388 -0.311940E-08  0.224E-04    8.92      87.7  T
   4    -50.7496388 -0.132353E-09  0.825E-05    8.92     237.7  T
speedup  1.00
cpu  time for SCC    0.00 s
wall time for SCC    0.00 s
speedup  0.97
cpu  time for grad    0.01 s
wall time for grad    0.01 s
 E :    -50.45267957  G :  0.000145    pred/act E change:  0.000D+00 -0.137D-06
Maxdispl :   0.0029   ||displ|| :   0.0070   Lambda : -0.227D-06
Largest |displ|/coords:  0.0029 (   4)  0.0028 (  12)  0.0027 (   3)
................................................................................
.............................. CYCLE   84 ......................................
................................................................................
   1    -50.7496141 -0.507496E+02  0.659E-03    8.92       0.0  T
   2    -50.7496141 -0.329234E-08  0.496E-03    8.92       4.0  T
   3    -50.7496141 -0.335077E-08  0.343E-04    8.92      57.2  T
   4    -50.7496141 -0.295785E-09  0.136E-04    8.92     144.7  T
speedup  1.05
cpu  time for SCC    0.00 s
wall time for SCC    0.00 s
speedup  0.98
cpu  time for grad    0.01 s
wall time for grad    0.01 s
 E :    -50.45267968  G :  0.000160    pred/act E change: -0.979D-07 -0.103D-06
Maxdispl :   0.0009   ||displ|| :   0.0024   Lambda : -0.674D-07
Largest |displ|/coords:  0.0009 (  13)  0.0008 (   3)  0.0008 (   9)
................................................................................
.............................. CYCLE   85 ......................................
................................................................................
   1    -50.7496246 -0.507496E+02  0.195E-03    8.92       0.0  T
   2    -50.7496246 -0.584095E-09  0.148E-03    8.92      13.3  T
   3    -50.7496246 -0.685276E-09  0.135E-04    8.92     145.6  T
   4    -50.7496246 -0.362590E-10  0.448E-05    8.92     437.6  T
speedup  1.05
cpu  time for SCC    0.00 s
wall time for SCC    0.00 s
speedup  1.07
cpu  time for grad    0.01 s
wall time for grad    0.01 s
 E :    -50.45267972  G :  0.000093    pred/act E change: -0.113D-06 -0.426D-07
Maxdispl :   0.0011   ||displ|| :   0.0025   Lambda : -0.426D-07
Largest |displ|/coords:  0.0011 (   3)  0.0008 (  17)  0.0008 (  19)

   *** GEOMETRY OPTIMIZATION CONVERGED AFTER 85 ITERATIONS ***

------------------------------------------------------------------------
 total energy gain (kcal):     -0.0002
------------------------------------------------------------------------
================
 final structure:
================
$coord
       -3.00864936319311        3.31234946202073       -3.38652279922927      S 
       -1.78780248563283        1.26788134920264       -4.79668849733062      O 
       -3.45240491768936        5.56473273663908       -4.79542004267634      O 
       -5.78857896625688        2.20932767666487       -2.69075915463366      O 
       -1.81473632914933        3.62725807067009       -0.91582015823409      O 
       -3.18010692092096        1.54883747014870        0.92617171904427      H 
       -6.77894051550919        2.98269956349021       -3.97640422651704      H 
        2.61895729489623        2.11060655301984        1.03613711587965      O 
        1.27659974312657        3.19315803980213        0.38880910338330      H 
       -3.80726493327261       -0.02009118684278        1.72954132069674      O 
       -5.55487846703855       -0.10493999067937        1.25728468573708      H 
        2.67989514767075       -4.63594361893404        2.06959304377628      O 
        3.39096645847576       -5.87576490118514        3.18073291871759      H 
        6.23201256989798       -1.45083461281823        0.10682663511539      O 
        7.22469703889718       -1.13273217804207       -1.37280337253042      H 
        5.36118907146001        0.11789477358404        0.50441659206695      H 
        4.10302384716839       -3.66006292153449        1.41843977656266      H 
        0.54358941944490       -0.57185575823955        4.77492020144360      O 
       -1.21129446445316       -0.40351809058409        4.30221281189806      H 
        1.11774151880470       -2.16987483767609        4.07498152481638      H 
        2.03884425054078        1.54551093497042        2.71170861687421      H 
       -0.01893689986215       -1.56390429500612       -1.33009372641420      N 
        0.70309628253288       -3.31329132803976       -1.64764083408857      H 
       -1.53039034312650       -1.63177127134012       -0.08150479505328      H 
        1.33570701186107       -0.37025156378204       -0.50119297945318      H 
       -0.69233504881631       -0.57542015142802       -2.98692551765234      H 
$end
 
 Bond Distances (Angstroems)
 ---------------------------
S1-O2=1.4645         S1-O3=1.4254         S1-O4=1.6249         S1-O5=1.4616         O2-S1=1.4645         O3-S1=1.4254         
O4-S1=1.6249         O4-H7=0.9513         O5-S1=1.4616         H6-O10=0.9900        H7-O4=0.9513         O8-H9=0.9747         
O8-H21=0.9848        H9-O8=0.9747         O10-H6=0.9900        O10-H11=0.9590       H11-O10=0.9590       O12-H13=0.9580       
O12-H17=0.9760       H13-O12=0.9580       O14-H15=0.9578       O14-H16=0.9725       H15-O14=0.9578       H16-O14=0.9725       
H17-O12=0.9760       O18-H19=0.9659       O18-H20=0.9719       H19-O18=0.9659       H20-O18=0.9719       H21-O8=0.9848        
N22-H23=1.0155       N22-H24=1.0381       N22-H25=1.0513       N22-H26=1.0813       H23-N22=1.0155       H24-N22=1.0381       
H25-N22=1.0513       H26-N22=1.0813       
 N  H  Rav=1.0466 sigma=0.0238  Rmin=1.0155  Rmax=1.0813     4
 O  H  Rav=0.9693 sigma=0.0115  Rmin=0.9513  Rmax=0.9900    11
 S  O  Rav=1.4941 sigma=0.0771  Rmin=1.4254  Rmax=1.6249     4
 
 selected bond angles (degree)
 --------------------
O3-S1-O2=115.08                O4-S1-O2=104.45                O4-S1-O3=105.65                O5-S1-O2=110.45                
O5-S1-O3=116.34                O5-S1-O4=103.27                H7-O4-S1=100.50                H21-O8-H9=105.53               
H11-O10-H6=104.51              
 
 selected dihedral angles (degree)
 ---------------------------------
H7-O4-S1-O2=260.88            H7-O4-S1-O3= 22.66            H7-O4-S1-O5=145.32            
 
 CMA Distance (Angstroems)
 ---------------------------
R(CMA):  4.1200

========================================================================
 FINAL SINGLEPOINT CALCULATION ON OPTIMIZED GEOMETRY
========================================================================

 Ncao       : 65
 Nao        : 64
 Nshell     : 38
 Nel        : 80
 T(el)      :   300.0
 intcut     :    25.0
 scfconv/Eh :  0.100E-05
   qconv/e  :  0.100E-03
 intneglect :  0.100E-07
 broydamp   :      0.250
 iter      E             dE          RMSdq      gap      omega  full diag
   1    -50.7496246 -0.507496E+02  0.188E-05    8.92       0.0  T
   2    -50.7496246 -0.262901E-12  0.117E-05    8.92    1671.4  T
   3    -50.7496246 -0.852651E-13  0.201E-06    8.92    9778.5  T
speedup  1.07
cpu  time for SCC    0.00 s
wall time for SCC    0.00 s

   *** convergence criteria satisfied after 3 iterations ***

          eigenvalues
 #    :          28         29         30         31         32         33         34         35
 occ. :        2.000      2.000      2.000      2.000      2.000      2.000      2.000      2.000
 eps  :       -13.569    -13.120    -12.555    -12.507    -12.441    -12.344    -12.227    -12.132
 #    :          36         37         38         39         40         41         42         43
 occ. :        2.000      2.000      2.000      2.000      2.000      0.000      0.000      0.000
 eps  :       -12.001    -11.891    -11.846    -11.686    -11.452     -2.532     -1.155     -0.445
 #    :          44         45         46         47         48         49         50         51
 occ. :        0.000      0.000      0.000      0.000      0.000      0.000      0.000      0.000
 eps  :         0.738      1.137      1.530      1.998      2.579      3.324      4.584      5.130


   #   Z            q   n(s)   n(p)   n(d)      C6AA      α(0)
   1  16 S      1.618  1.593  1.822  0.966    90.641    16.024
   2   8 O     -0.716  1.767  4.949  0.000    29.130     7.237
   3   8 O     -0.683  1.763  4.920  0.000    28.247     7.126
   4   8 O     -0.615  1.751  4.864  0.000    25.515     6.819
   5   8 O     -0.737  1.763  4.973  0.000    29.727     7.310
   6   1 H      0.334  0.666  0.000  0.000     0.628     1.245
   7   1 H      0.337  0.663  0.000  0.000     0.611     1.224
   8   8 O     -0.638  1.755  4.883  0.000    26.114     6.897
   9   1 H      0.327  0.673  0.000  0.000     0.645     1.261
  10   8 O     -0.627  1.741  4.886  0.000    25.847     6.862
  11   1 H      0.294  0.706  0.000  0.000     0.738     1.349
  12   8 O     -0.614  1.743  4.871  0.000    25.524     6.819
  13   1 H      0.282  0.718  0.000  0.000     0.778     1.385
  14   8 O     -0.611  1.740  4.871  0.000    25.452     6.809
  15   1 H      0.286  0.714  0.000  0.000     0.764     1.373
  16   1 H      0.331  0.669  0.000  0.000     0.635     1.252
  17   1 H      0.332  0.668  0.000  0.000     0.633     1.250
  18   8 O     -0.619  1.757  4.863  0.000    25.652     6.836
  19   1 H      0.312  0.688  0.000  0.000     0.686     1.301
  20   1 H      0.313  0.687  0.000  0.000     0.683     1.298
  21   1 H      0.334  0.666  0.000  0.000     0.628     1.245
  22   7 N     -0.355  1.277  4.078  0.000    29.134     8.017
  23   1 H      0.246  0.754  0.000  0.000     0.898     1.485
  24   1 H      0.277  0.723  0.000  0.000     0.786     1.389
  25   1 H      0.292  0.708  0.000  0.000     0.737     1.345
  26   1 H      0.298  0.702  0.000  0.000     0.716     1.325

 Mol. C6AA /au·bohr⁶  :       5434.417923
 Mol. C8AA /au·bohr⁸  :     117753.460601
 Mol. α(0) /au        :        106.479300

 
 Wiberg/Mayer (AO) data. WBOs > 0.1 written file <wbo>
 largest (>0.05) Wiberg bond orders for each atom
           total WBO             WBO to atom ...
     1  S   4.904    O    3 1.458    O    5 1.291    O    2 1.279    O    4 0.845
     2  O   1.778    S    1 1.279    H   26 0.148    O    5 0.110    O    3 0.109    O    4 0.071    N   22 0.058
     3  O   1.771    S    1 1.458    O    5 0.111    O    2 0.109    O    4 0.082
     4  O   1.938    H    7 0.869    S    1 0.845    O    3 0.082    O    2 0.071    O    5 0.063
     5  O   1.734    S    1 1.291    O    3 0.111    O    2 0.110    H    6 0.073    O    4 0.063
     6  H   0.888    O   10 0.809    O    5 0.073
     7  H   0.886    O    4 0.869
     8  O   1.907    H    9 0.844    H   21 0.825    H   25 0.089
     9  H   0.893    O    8 0.844
    10  O   1.873    H   11 0.902    H    6 0.809    H   24 0.061
    11  H   0.913    O   10 0.902
    12  O   1.849    H   13 0.917    H   17 0.845
    13  H   0.920    O   12 0.917
    14  O   1.845    H   15 0.910    H   16 0.853
    15  H   0.918    O   14 0.910
    16  H   0.890    O   14 0.853
    17  H   0.890    O   12 0.845
    18  O   1.871    H   19 0.881    H   20 0.863    H   21 0.061
    19  H   0.903    O   18 0.881
    20  H   0.902    O   18 0.863
    21  H   0.888    O    8 0.825    O   18 0.061
    22  N   3.520    H   23 0.931    H   24 0.855    H   25 0.814    H   26 0.755    O    2 0.058
    23  H   0.939    N   22 0.931
    24  H   0.923    N   22 0.855    O   10 0.061
    25  H   0.915    N   22 0.814    O    8 0.089
    26  H   0.911    N   22 0.755    O    2 0.148
 MOs/occ written to file <molden.input>
 
molecular dipole:
                 x           y           z       tot (Debye)
 q only:        0.781      -2.527       0.659
   full:        0.288      -2.291       0.284       5.914
molecular quadrupole (traceless):
                xx          xy          yy          xz          yz          zz
 q only:       14.614       2.906      -4.692      -5.602       9.673      -9.922
  q+dip:       18.687      -0.205      -5.487      -4.440       7.906     -13.200
   full:       19.248      -0.323      -5.663      -4.491       7.447     -13.585

SCC energy    :     -50.7496246
rep           :       0.2967510
ES            :       0.2670193
AES           :      -0.0684807
AXC           :      -0.0078931
disp          :      -0.0185124
XB            :       0.0000000
fix           :       0.0000000
total E       :     -50.4526797
atomizationE  :       4.9829839     3126.87
(atE without considering molecular charge,
 total energy contains solvation terms)
H-L gap (eV)  :          8.9201
optimized geometry written to: xtbopt.xyz


------------------------------------------------------------------------
 * finished run on 2019/09/16 at 11:38:17.641     
------------------------------------------------------------------------
 total:
 * wall-time:     0 d,  0 h,  0 min,  2.019 sec
 *  cpu-time:     0 d,  0 h,  0 min,  1.986 sec
 * ratio c/w:     0.983 speedup
 SCF:
 * wall-time:     0 d,  0 h,  0 min,  0.140 sec
 *  cpu-time:     0 d,  0 h,  0 min,  0.137 sec
 * ratio c/w:     0.977 speedup
 ANC optimizer:
 * wall-time:     0 d,  0 h,  0 min,  1.853 sec
 *  cpu-time:     0 d,  0 h,  0 min,  1.826 sec
 * ratio c/w:     0.985 speedup

