      -----------------------------------------------------------      
     |                   =====================                   |     
     |                           x T B                           |     
     |                   =====================                   |     
     |                         S. Grimme                         |     
     |          Mulliken Center for Theoretical Chemistry        |     
     |                    University of Bonn                     |     
     |                 Version 6.0.1 (SAW181210)                 |     
      -----------------------------------------------------------      

   This program is distributed in the hope that it will be useful,
   but WITHOUT ANY WARRANTY; without even the implied warranty of
   MERCHANTABILITY or FITNESS FOR A PARTICULAR PURPOSE.
   
   FOR NON-COMMERCIAL, ACADEMIA USE ONLY.
   
   Cite this work as:
   S. Grimme, C. Bannwarth, P. Shushkov, J. Comput. Theory Chem., 2017,
   13, 1989-2009.
   C. Bannwarth, S. Ehlert and S. Grimme., ChemRxiv, 2018, preprint.
   http://doi.org/10.26434/chemrxiv.7246238.v1
   
   for sTDA-xTB:
   S. Grimme and C. Bannwarth, J. Chem. Phys., 2016, 145, 054103.
   
   in the mass-spec context:
   V. Asgeirsson, C. Bauer and S. Grimme, Chem. Sci., 2017, 8, 4879.
   
   if GBSA is used:
   P. Shushkov, F. März and S. Grimme, unpublished.
   
   for ANC optimizer:
   S. Grimme, unpublished.
   Rational Function algorithm used in ANCopt:
   F. Eckert, P. Pulay, H.-J. Werner, J. Comput. Chem., 1997, 18, 1473.
   
   with help from (in alphabetical order)
   C. Bannwarth, F. Bohle, G. Brandenburg, E. Caldeweyher, M. Checinski,
   S. Dohm, S. Ehlert, S. Ehrlich, F. März, H. Neugebauer, J. Pisarek,
   P. Pracht, P. Shushkov, and S. Spicher.
   
 * started run on 2019/09/16 at 11:44:27.742     
========================================================================
 # omp threads = 1
========================================================================
number of atoms            : 26
number of electrons        : 80
charge                     : 0
spin                       : .0
first test random number   : .6489

########################################################################
# WARNING! Please study the warnings concerning your input carefully
#  - XTBPATH is not set, using XTBHOME instead
#  - the use of '-opt' is discouraged, please use '--opt' next time
#  - the use of '-chrg' is discouraged, please use '--chrg' next time
#  - the use of '-uhf' is discouraged, please use '--uhf' next time
########################################################################

           ------------------------------------------------- 
          |                 G F N 2 - x T B                 |
          | Geometry, Frequencies, Noncovalent interactions |
          |            JCTC 2018 parametrisation            |
           ------------------------------------------------- 
      method parameters     
 k(s)        :  1.8500
 k(p)        :  2.2300
 k(d)        :  2.2300
 k(f)        :  2.0000
 kEN (H0ij)  : -2.0000
 D4 a1       :  0.5200
 D4 a2       :  5.0000
 D4 s6       :  1.0000
 D4 s8       :  2.7000
 D4 s9       :  5.0000
 alphaj      :  2.0000


            Z     q(EN)     CN     RAES       Cart. coordinates
     1  S   6.0    0.60    4.56    4.64    -1.69090     2.45220    -0.81587
     2  O   6.0   -0.35    1.25    1.80    -1.26992    -0.31142    -0.47929
     3  O   6.0   -0.30    1.14    1.80    -0.13091     3.38413    -2.96670
     4  O   6.0   -0.26    2.11    1.84    -0.95978     3.78947     1.50570
     5  O   6.0   -0.25    2.10    1.84    -4.37587     2.92154    -1.34803
     6  H   1.0    0.16    1.25    1.48    -5.06836     3.99947    -0.06366
     7  H   1.0    0.17    1.28    1.49     0.79408     3.48339     1.85408
     8  O   6.0   -0.29    2.03    1.83     3.75180     2.33533     2.42894
     9  H   1.0    0.16    1.04    1.43     3.72804     0.53259     2.17558
    10  H   1.0    0.15    0.97    1.43     5.51373     2.78883     2.49649
    11  O   6.0   -0.29    1.99    1.82     1.44246    -1.24678    -4.99330
    12  H   1.0    0.16    1.01    1.43     0.31237    -1.63811    -3.62058
    13  H   1.0    0.17    1.00    1.43     1.46756     0.57092    -5.09299
    14  O   6.0   -0.29    2.03    1.83     3.11391    -2.46827     1.18893
    15  H   1.0    0.16    1.03    1.43     1.46166    -2.06471     0.53945
    16  H   1.0    0.15    1.04    1.43     3.89765    -3.49560    -0.09363
    17  O   6.0   -0.29    2.01    1.83    -4.50945    -1.05261     3.56836
    18  H   1.0    0.14    0.97    1.43    -4.46541    -2.53746     4.62093
    19  H   1.0    0.17    1.03    1.43    -3.37254    -1.40511     2.19076
    20  O   6.0   -0.28    1.99    1.83    -6.33808     3.69590     3.28679
    21  H   1.0    0.16    1.03    1.43    -5.90836     1.96552     3.65518
    22  H   1.0    0.14    0.97    1.43    -7.35415     4.24939     4.69245
    23  N   5.0   -0.22    3.00    1.93     4.94182    -4.95152    -3.12176
    24  H   1.0    0.10    0.99    1.43     6.74278    -4.66163    -3.74110
    25  H   1.0    0.12    1.02    1.43     3.85443    -3.66287    -4.05343
    26  H   1.0    0.10    0.99    1.43     4.42147    -6.67259    -3.81329

  Z AO/shell   Hii/eV     exponent
  1     Wed Apr 25 08:07:45 CEST 2018   EN: 2.200 GM2: 0.406  GM3: 0.0800  RAES: 1.40
     1s    -10.707211    1.230000
  7     Wed Apr 25 08:07:45 CEST 2018   EN: 3.040 GM2: 0.461  GM3:-0.0640  RAES: 1.90
     2s    -16.686243    2.339881
     2p    -12.523956    2.014332
  8     Wed Apr 25 08:07:45 CEST 2018   EN: 3.440 GM2: 0.452  GM3:-0.0517  RAES: 1.80
     2s    -20.229985    2.439742
     2p    -15.503117    2.137023
 16     Tue Apr 24 11:44:34 CEST 2018   EN: 2.580 GM2: 0.340  GM3:-0.0502  RAES: 3.10
     3s    -20.029654    1.981333
     3p    -11.377694    2.025643
     3d     -0.420282    1.702555
 no old-style atom pair restraining (fixing) potential

molecular fragmentation (1/2 indicates fragments):
11111112222222222222222222
# atoms in fragment 1/2:     7    19
 fragment masses (1/2) :       98.07      107.11
CMA distance (Bohr)    :   3.896
constraining FC (au)   :  0.0500
           ------------------------------------------------- 
          |        Self-Consistent Charge Iterations        |
           ------------------------------------------------- 

 Ncao       : 65
 Nao        : 64
 Nshell     : 38
 Nel        : 80
 T(el)      :   300.0
 intcut     :    25.0
 scfconv/Eh :  0.100E-05
   qconv/e  :  0.100E-03
 intneglect :  0.100E-07
 broydamp   :      0.250
 iter      E             dE          RMSdq      gap      omega  full diag
   1    -50.6233645 -0.506234E+02  0.703E+00   10.33       0.0  T
   2    -50.6802913 -0.569268E-01  0.505E+00    9.32       1.0  T
   3    -50.7203705 -0.400793E-01  0.142E+00    7.43       1.0  T
   4    -50.7267556 -0.638507E-02  0.585E-01    7.70       1.0  T
   5    -50.7274428 -0.687230E-03  0.362E-01    7.57       1.0  T
   6    -50.7280780 -0.635184E-03  0.173E-01    7.56       1.0  T
   7    -50.7282690 -0.190962E-03  0.689E-02    7.56       1.0  T
   8    -50.7282948 -0.258082E-04  0.393E-02    7.56       1.0  T
   9    -50.7283045 -0.971615E-05  0.157E-02    7.58       1.2  T
  10    -50.7283063 -0.176614E-05  0.295E-03    7.58       6.6  T
  11    -50.7283063 -0.297608E-07  0.142E-03    7.58      13.8  T
  12    -50.7283063 -0.618470E-08  0.700E-04    7.58      28.0  T
  13    -50.7283063 -0.272672E-08  0.162E-04    7.58     121.4  T
speedup  1.05
cpu  time for SCC    0.02 s
wall time for SCC    0.02 s

   *** convergence criteria satisfied after 13 iterations ***

          eigenvalues
 #    :          28         29         30         31         32         33         34         35
 occ. :        2.000      2.000      2.000      2.000      2.000      2.000      2.000      2.000
 eps  :       -13.238    -13.080    -12.882    -12.586    -12.461    -12.370    -12.269    -12.150
 #    :          36         37         38         39         40         41         42         43
 occ. :        2.000      2.000      2.000      2.000      2.000      0.000      0.000      0.000
 eps  :       -12.072    -11.890    -11.298    -11.262    -10.366     -2.787     -1.518     -0.437
 #    :          44         45         46         47         48         49         50         51
 occ. :        0.000      0.000      0.000      0.000      0.000      0.000      0.000      0.000
 eps  :         0.412      1.213      1.317      1.995      3.008      3.785      4.672      5.402


   #   Z            q   n(s)   n(p)   n(d)      C6AA      α(0)
   1  16 S      1.738  1.572  1.760  0.930    87.922    15.782
   2   8 O     -0.744  1.771  4.973  0.000    29.923     7.334
   3   8 O     -0.712  1.775  4.937  0.000    29.040     7.225
   4   8 O     -0.569  1.717  4.853  0.000    24.432     6.673
   5   8 O     -0.542  1.715  4.827  0.000    23.808     6.587
   6   1 H      0.413  0.587  0.000  0.000     0.455     1.055
   7   1 H      0.424  0.576  0.000  0.000     0.436     1.033
   8   8 O     -0.637  1.744  4.893  0.000    26.090     6.894
   9   1 H      0.341  0.659  0.000  0.000     0.611     1.228
  10   1 H      0.296  0.704  0.000  0.000     0.732     1.344
  11   8 O     -0.600  1.729  4.871  0.000    25.186     6.773
  12   1 H      0.294  0.706  0.000  0.000     0.739     1.350
  13   1 H      0.303  0.697  0.000  0.000     0.712     1.326
  14   8 O     -0.635  1.742  4.893  0.000    26.041     6.887
  15   1 H      0.304  0.696  0.000  0.000     0.708     1.322
  16   1 H      0.318  0.682  0.000  0.000     0.668     1.284
  17   8 O     -0.608  1.737  4.870  0.000    25.367     6.798
  18   1 H      0.294  0.706  0.000  0.000     0.739     1.350
  19   1 H      0.315  0.685  0.000  0.000     0.677     1.293
  20   8 O     -0.623  1.743  4.880  0.000    25.743     6.848
  21   1 H      0.328  0.672  0.000  0.000     0.642     1.258
  22   1 H      0.289  0.711  0.000  0.000     0.753     1.363
  23   7 N     -0.463  1.400  4.063  0.000    32.202     8.428
  24   1 H      0.138  0.862  0.000  0.000     1.483     1.907
  25   1 H      0.196  0.804  0.000  0.000     1.124     1.661
  26   1 H      0.140  0.860  0.000  0.000     1.474     1.902

 Mol. C6AA /au·bohr⁶  :       5462.650440
 Mol. C8AA /au·bohr⁸  :     117718.912445
 Mol. α(0) /au        :        106.905145

 
 Wiberg/Mayer (AO) data. WBOs > 0.1 written file <wbo>
 largest (>0.05) Wiberg bond orders for each atom
           total WBO             WBO to atom ...
     1  S   4.786    O    3 1.365    O    2 1.281    O    5 1.056    O    4 1.045
     2  O   1.696    S    1 1.281    O    3 0.131    O    4 0.087    O    5 0.075
     3  O   1.701    S    1 1.365    O    2 0.131    O    4 0.092    O    5 0.081
     4  O   2.036    S    1 1.045    H    7 0.733    O    3 0.092    O    2 0.087
     5  O   2.061    S    1 1.056    H    6 0.774    O    3 0.081    O    2 0.075
     6  H   0.829    O    5 0.774
     7  H   0.820    O    4 0.733    O    8 0.064
     8  O   1.838    H   10 0.902    H    9 0.820    H    7 0.064
     9  H   0.884    O    8 0.820    O   14 0.061
    10  H   0.912    O    8 0.902
    11  O   1.849    H   12 0.892    H   13 0.888
    12  H   0.913    O   11 0.892
    13  H   0.908    O   11 0.888
    14  O   1.851    H   15 0.872    H   16 0.845    H    9 0.061
    15  H   0.907    O   14 0.872
    16  H   0.899    O   14 0.845
    17  O   1.841    H   18 0.906    H   19 0.867
    18  H   0.914    O   17 0.906
    19  H   0.901    O   17 0.867
    20  O   1.825    H   22 0.909    H   21 0.852
    21  H   0.892    O   20 0.852
    22  H   0.916    O   20 0.909
    23  N   2.973    H   24 0.978    H   26 0.977    H   25 0.927
    24  H   0.981    N   23 0.978
    25  H   0.961    N   23 0.927
    26  H   0.980    N   23 0.977
 MOs/occ written to file <molden.input>
 
molecular dipole:
                 x           y           z       tot (Debye)
 q only:       -0.582       0.275       1.376
   full:       -0.754       0.167       1.433       4.138
molecular quadrupole (traceless):
                xx          xy          yy          xz          yz          zz
 q only:        8.067      -1.740       0.006      -5.867       4.256      -8.073
  q+dip:        9.379      -1.771      -0.419     -10.582       6.522      -8.959
   full:        9.769      -2.140      -0.322     -10.780       6.823      -9.448

SCC energy    :     -50.7283063
rep           :       0.3157339
ES            :       0.2430585
AES           :      -0.0492479
AXC           :      -0.0069907
disp          :      -0.0173261
XB            :       0.0000000
fix           :       0.0000000
total E       :     -50.4123808
atomizationE  :       4.9426850     3101.58
(atE without considering molecular charge,
 total energy contains solvation terms)
H-L gap (eV)  :          7.5782
           ------------------------------------------------- 
          |                 ===============                 |
          |                   A N C O P T                   |
          |                 ===============                 |
          |          Approximate Normal Coordinate          |
          |           Rational Function Optimizer           |
           ------------------------------------------------- 
dumping coords to <xtbopt.coord> and <xtbopt.log>
 optlevel               2
 Maxcycle             520
 Maxmicro              25
 Econv         1.000000000000000E-007
 Gconv         2.000000000000000E-004
 Maxdispl       1.00000000000000     
 Hlow          5.000000000000000E-003
 S6             20.0000000000000     
 Nvar               72

generating ANC from model Hessian ...
 Shifting diagonal of input Hessian by   5.076995063376314E-003
 Lowest  eigenvalues of input Hessian
    0.005000    0.005055   -0.000000   -0.000000   -0.000000    0.000000
    0.000000    0.000000    0.005119    0.005278    0.005583    0.005724
    0.005862    0.006008    0.006173    0.006277    0.006574    0.007172
 Highest eigenvalues
    1.427023    1.445836    1.555680    3.211709    3.411081    3.461618
 
cpu  time for ANC gen    0.01 s
wall time for ANC gen    0.01 s
................................................................................
.............................. CYCLE    1 ......................................
................................................................................
   1    -50.7283063 -0.507283E+02  0.626E-05    7.58       0.0  T
   2    -50.7283063 -0.922284E-11  0.478E-05    7.58     410.3  T
   3    -50.7283063 -0.706279E-11  0.276E-05    7.58     711.1  T
speedup  1.07
cpu  time for SCC    0.00 s
wall time for SCC    0.00 s
speedup  1.00
cpu  time for grad    0.01 s
wall time for grad    0.01 s
 E :    -50.41238080  G :  0.175576    pred/act E change:  0.000D+00  0.323D-07
Maxdispl :   0.1154   ||displ|| :   0.3052   Lambda : -0.148D-01
Largest |displ|/coords:  0.1154 (  29)  0.1018 (  24)  0.0954 (  14)
................................................................................
.............................. CYCLE    2 ......................................
................................................................................
   1    -50.7297544 -0.507298E+02  0.321E-01    7.54       0.0  T
   2    -50.7299258 -0.171367E-03  0.249E-01    7.55       1.0  T
   3    -50.7299740 -0.482148E-04  0.105E-01    7.56       1.0  T
   4    -50.7299894 -0.154012E-04  0.222E-02    7.57       1.0  T
   5    -50.7299902 -0.816669E-06  0.572E-03    7.57       3.4  T
   6    -50.7299902 -0.387975E-07  0.236E-03    7.57       8.3  T
speedup  0.98
cpu  time for SCC    0.01 s
wall time for SCC    0.01 s
speedup  1.03
cpu  time for grad    0.01 s
wall time for grad    0.01 s
 E :    -50.42420519  G :  0.114517    pred/act E change:  0.000D+00 -0.118D-01
Maxdispl :   0.1045   ||displ|| :   0.3110   Lambda : -0.882D-02
Largest |displ|/coords:  0.1045 (  24)  0.0952 (  35)  0.0864 (  29)
................................................................................
.............................. CYCLE    3 ......................................
................................................................................
   1    -50.7348079 -0.507348E+02  0.241E-01    7.51       0.0  T
   2    -50.7349755 -0.167611E-03  0.188E-01    7.53       1.0  T
   3    -50.7350183 -0.427893E-04  0.106E-01    7.56       1.0  T
   4    -50.7350235 -0.516036E-05  0.197E-02    7.58       1.0  T
   5    -50.7350239 -0.471048E-06  0.519E-03    7.58       3.8  T
   6    -50.7350240 -0.299950E-07  0.186E-03    7.58      10.6  T
speedup  0.94
cpu  time for SCC    0.00 s
wall time for SCC    0.01 s
speedup  1.02
cpu  time for grad    0.01 s
wall time for grad    0.01 s
 E :    -50.43116374  G :  0.061521    pred/act E change: -0.811D-02 -0.696D-02
Maxdispl :   0.1277   ||displ|| :   0.3359   Lambda : -0.455D-02
Largest |displ|/coords:  0.1277 (   8)  0.1212 (  14)  0.1192 (   7)
................................................................................
.............................. CYCLE    4 ......................................
................................................................................
   1    -50.7345758 -0.507346E+02  0.278E-01    7.49       0.0  T
   2    -50.7346794 -0.103516E-03  0.215E-01    7.51       1.0  T
   3    -50.7347037 -0.243114E-04  0.755E-02    7.56       1.0  T
   4    -50.7347159 -0.121974E-04  0.192E-02    7.56       1.0  T
   5    -50.7347163 -0.420594E-06  0.385E-03    7.56       5.1  T
   6    -50.7347163 -0.180599E-07  0.177E-03    7.56      11.1  T
speedup  0.94
cpu  time for SCC    0.01 s
wall time for SCC    0.01 s
speedup  1.01
cpu  time for grad    0.01 s
wall time for grad    0.01 s
 E :    -50.43449784  G :  0.030967    pred/act E change: -0.483D-02 -0.333D-02
Maxdispl :   0.2169   ||displ|| :   0.5554   Lambda : -0.513D-02
Largest |displ|/coords:  0.2169 (  13)  0.1711 (  11)  0.1613 (   8)
................................................................................
.............................. CYCLE    5 ......................................
................................................................................
   1    -50.7331167 -0.507331E+02  0.632E-01    7.37       0.0  T
   2    -50.7333984 -0.281767E-03  0.482E-01    7.41       1.0  T
   3    -50.7334884 -0.899815E-04  0.123E-01    7.50       1.0  T
   4    -50.7335350 -0.465635E-04  0.349E-02    7.50       1.0  T
   5    -50.7335367 -0.170480E-05  0.824E-03    7.49       2.4  T
   6    -50.7335367 -0.533970E-07  0.353E-03    7.49       5.6  T
   7    -50.7335367 -0.183549E-07  0.164E-03    7.49      12.0  T
speedup  1.11
cpu  time for SCC    0.01 s
wall time for SCC    0.01 s
speedup  1.01
cpu  time for grad    0.01 s
wall time for grad    0.01 s
 E :    -50.43538883  G :  0.042986    pred/act E change: -0.253D-02 -0.891D-03
Maxdispl :   0.1580   ||displ|| :   0.3286   Lambda : -0.358D-02
Largest |displ|/coords:  0.1580 (  11)  0.1307 (  13)  0.1098 (  14)
................................................................................
.............................. CYCLE    6 ......................................
................................................................................
   1    -50.7361523 -0.507362E+02  0.459E-01    7.40       0.0  T
   2    -50.7362032 -0.508270E-04  0.349E-01    7.41       1.0  T
   3    -50.7362490 -0.458753E-04  0.454E-02    7.42       1.0  T
   4    -50.7362550 -0.591601E-05  0.104E-02    7.42       1.9  T
   5    -50.7362552 -0.234149E-06  0.414E-03    7.42       4.7  T
   6    -50.7362552 -0.463977E-08  0.206E-03    7.42       9.5  T
speedup  0.96
cpu  time for SCC    0.01 s
wall time for SCC    0.01 s
speedup  0.94
cpu  time for grad    0.01 s
wall time for grad    0.01 s
 E :    -50.43714507  G :  0.031568    pred/act E change: -0.336D-02 -0.176D-02
Maxdispl :   0.1495   ||displ|| :   0.3481   Lambda : -0.197D-02
Largest |displ|/coords:  0.1495 (  23)  0.1240 (   9)  0.1221 (  11)
................................................................................
.............................. CYCLE    7 ......................................
................................................................................
   1    -50.7247977 -0.507248E+02  0.509E-01    7.42       0.0  T
   2    -50.7248950 -0.972192E-04  0.387E-01    7.41       1.0  T
   3    -50.7249471 -0.521253E-04  0.559E-02    7.38       1.0  T
   4    -50.7249642 -0.170739E-04  0.176E-02    7.39       1.1  T
   5    -50.7249651 -0.967500E-06  0.413E-03    7.39       4.7  T
   6    -50.7249651 -0.825515E-08  0.259E-03    7.39       7.6  T
speedup  0.96
cpu  time for SCC    0.00 s
wall time for SCC    0.01 s
speedup  0.94
cpu  time for grad    0.01 s
wall time for grad    0.01 s
 E :    -50.43698400  G :  0.045683    pred/act E change: -0.198D-02  0.161D-03
Maxdispl :   0.1399   ||displ|| :   0.2647   Lambda : -0.355D-02
Largest |displ|/coords:  0.1399 (   6)  0.1267 (  10)  0.0854 (   1)
................................................................................
.............................. CYCLE    8 ......................................
................................................................................
   1    -50.7326576 -0.507327E+02  0.424E-01    7.42       0.0  T
   2    -50.7327174 -0.598017E-04  0.323E-01    7.43       1.0  T
   3    -50.7327592 -0.417444E-04  0.436E-02    7.45       1.0  T
   4    -50.7327686 -0.943072E-05  0.893E-03    7.44       2.2  T
   5    -50.7327688 -0.161935E-06  0.409E-03    7.44       4.8  T
   6    -50.7327688 -0.551871E-08  0.198E-03    7.44       9.9  T
speedup  0.96
cpu  time for SCC    0.00 s
wall time for SCC    0.01 s
speedup  1.02
cpu  time for grad    0.01 s
wall time for grad    0.01 s
 E :    -50.43847578  G :  0.019080    pred/act E change: -0.111D-02 -0.149D-02
Maxdispl :   0.1030   ||displ|| :   0.2783   Lambda : -0.141D-02
Largest |displ|/coords:  0.1030 (   5)  0.0980 (   1)  0.0945 (   3)
................................................................................
.............................. CYCLE    9 ......................................
................................................................................
   1    -50.7411141 -0.507411E+02  0.188E-01    7.42       0.0  T
   2    -50.7411587 -0.446465E-04  0.140E-01    7.44       1.0  T
   3    -50.7411774 -0.186613E-04  0.429E-02    7.47       1.0  T
   4    -50.7411814 -0.396669E-05  0.132E-02    7.48       1.5  T
   5    -50.7411818 -0.430342E-06  0.290E-03    7.48       6.8  T
   6    -50.7411818 -0.826755E-08  0.161E-03    7.48      12.2  T
speedup  0.96
cpu  time for SCC    0.01 s
wall time for SCC    0.01 s
speedup  1.02
cpu  time for grad    0.01 s
wall time for grad    0.01 s
 E :    -50.43861604  G :  0.028386    pred/act E change: -0.190D-02 -0.140D-03
Maxdispl :   0.2007   ||displ|| :   0.4758   Lambda : -0.285D-02
Largest |displ|/coords:  0.2007 (   7)  0.1810 (  13)  0.1558 (   8)
................................................................................
.............................. CYCLE   10 ......................................
................................................................................
   1    -50.7310009 -0.507310E+02  0.511E-01    7.45       0.0  T
   2    -50.7311521 -0.151272E-03  0.384E-01    7.46       1.0  T
   3    -50.7312395 -0.873368E-04  0.715E-02    7.49       1.0  T
   4    -50.7312613 -0.218357E-04  0.191E-02    7.50       1.0  T
   5    -50.7312621 -0.813164E-06  0.650E-03    7.50       3.0  T
   6    -50.7312622 -0.654077E-07  0.403E-03    7.50       4.9  T
   7    -50.7312622 -0.309082E-07  0.896E-04    7.50      21.9  T
speedup  0.98
cpu  time for SCC    0.01 s
wall time for SCC    0.01 s
speedup  1.03
cpu  time for grad    0.01 s
wall time for grad    0.01 s
 E :    -50.43844326  G :  0.057367    pred/act E change: -0.758D-03  0.173D-03
Maxdispl :   0.1561   ||displ|| :   0.4603   Lambda : -0.927D-02
Largest |displ|/coords:  0.1561 (   7)  0.1289 (  13)  0.1281 (  14)
................................................................................
.............................. CYCLE   11 ......................................
................................................................................
   1    -50.7331762 -0.507332E+02  0.549E-01    7.65       0.0  T
   2    -50.7334216 -0.245336E-03  0.413E-01    7.63       1.0  T
   3    -50.7335575 -0.135868E-03  0.917E-02    7.59       1.0  T
   4    -50.7335890 -0.315858E-04  0.322E-02    7.58       1.0  T
   5    -50.7335915 -0.241938E-05  0.923E-03    7.58       2.1  T
   6    -50.7335915 -0.556347E-07  0.477E-03    7.58       4.1  T
   7    -50.7335916 -0.519531E-07  0.148E-03    7.58      13.3  T
speedup  0.98
cpu  time for SCC    0.01 s
wall time for SCC    0.01 s
speedup  1.02
cpu  time for grad    0.01 s
wall time for grad    0.01 s
 E :    -50.43753435  G :  0.067901    pred/act E change: -0.175D-02  0.909D-03
Maxdispl :   0.2149   ||displ|| :   0.4411   Lambda : -0.925D-02
Largest |displ|/coords:  0.2149 (   5)  0.1284 (  23)  0.1209 (   6)
................................................................................
.............................. CYCLE   12 ......................................
................................................................................
   1    -50.7393029 -0.507393E+02  0.512E-01    7.56       0.0  T
   2    -50.7394574 -0.154478E-03  0.383E-01    7.57       1.0  T
   3    -50.7395408 -0.834102E-04  0.711E-02    7.60       1.0  T
   4    -50.7395623 -0.215309E-04  0.220E-02    7.61       1.0  T
   5    -50.7395635 -0.118239E-05  0.686E-03    7.61       2.9  T
   6    -50.7395636 -0.563070E-07  0.415E-03    7.61       4.7  T
   7    -50.7395636 -0.320630E-07  0.918E-04    7.60      21.4  T
speedup  0.98
cpu  time for SCC    0.01 s
wall time for SCC    0.01 s
speedup  1.01
cpu  time for grad    0.01 s
wall time for grad    0.01 s
 E :    -50.43924132  G :  0.050026    pred/act E change: -0.561D-02 -0.171D-02
Maxdispl :   0.2116   ||displ|| :   0.4594   Lambda : -0.663D-02
Largest |displ|/coords:  0.2116 (   6)  0.1816 (  11)  0.1543 (   9)
................................................................................
.............................. CYCLE   13 ......................................
................................................................................
   1    -50.7282103 -0.507282E+02  0.585E-01    7.63       0.0  T
   2    -50.7284788 -0.268486E-03  0.431E-01    7.62       1.0  T
   3    -50.7286214 -0.142672E-03  0.927E-02    7.60       1.0  T
   4    -50.7286551 -0.336584E-04  0.228E-02    7.61       1.0  T
   5    -50.7286561 -0.101290E-05  0.957E-03    7.61       2.0  T
   6    -50.7286563 -0.196348E-06  0.556E-03    7.61       3.5  T
   7    -50.7286564 -0.549702E-07  0.112E-03    7.61      17.5  T
speedup  0.98
cpu  time for SCC    0.01 s
wall time for SCC    0.01 s
speedup  1.02
cpu  time for grad    0.01 s
wall time for grad    0.01 s
 E :    -50.43666889  G :  0.078004    pred/act E change: -0.552D-02  0.257D-02
Maxdispl :   0.2258   ||displ|| :   0.5194   Lambda : -0.186D-01
Largest |displ|/coords:  0.2258 (   6)  0.2174 (  13)  0.1664 (  10)
................................................................................
.............................. CYCLE   14 ......................................
................................................................................
   1    -50.7376230 -0.507376E+02  0.761E-01    7.63       0.0  T
   2    -50.7380211 -0.398070E-03  0.569E-01    7.64       1.0  T
   3    -50.7382976 -0.276441E-03  0.117E-01    7.66       1.0  T
   4    -50.7383446 -0.470212E-04  0.283E-02    7.65       1.0  T
   5    -50.7383461 -0.154969E-05  0.134E-02    7.65       1.5  T
   6    -50.7383462 -0.108279E-06  0.624E-03    7.64       3.1  T
   7    -50.7383464 -0.129583E-06  0.139E-03    7.64      14.2  T
   8    -50.7383464 -0.472185E-08  0.388E-04    7.64      50.5  T
speedup  1.00
cpu  time for SCC    0.01 s
wall time for SCC    0.01 s
speedup  1.03
cpu  time for grad    0.01 s
wall time for grad    0.01 s
 E :    -50.43809539  G :  0.076836    pred/act E change: -0.402D-02 -0.143D-02
Maxdispl :   0.1057   ||displ|| :   0.2740   Lambda : -0.690D-02
Largest |displ|/coords:  0.1057 (  11)  0.0988 (  29)  0.0806 (   4)
................................................................................
.............................. CYCLE   15 ......................................
................................................................................
   1    -50.7364238 -0.507364E+02  0.346E-01    7.63       0.0  T
   2    -50.7364861 -0.622919E-04  0.260E-01    7.63       1.0  T
   3    -50.7365308 -0.447051E-04  0.454E-02    7.63       1.0  T
   4    -50.7365384 -0.759097E-05  0.110E-02    7.63       1.8  T
   5    -50.7365386 -0.198876E-06  0.468E-03    7.63       4.2  T
   6    -50.7365387 -0.333573E-07  0.252E-03    7.63       7.8  T
speedup  1.15
cpu  time for SCC    0.01 s
wall time for SCC    0.01 s
speedup  1.02
cpu  time for grad    0.01 s
wall time for grad    0.01 s
 E :    -50.44087010  G :  0.022737    pred/act E change: -0.118D-01 -0.277D-02
Maxdispl :   0.0868   ||displ|| :   0.1947   Lambda : -0.122D-02
Largest |displ|/coords:  0.0868 (   3)  0.0684 (   1)  0.0620 (   5)
................................................................................
.............................. CYCLE   16 ......................................
................................................................................
   1    -50.7351712 -0.507352E+02  0.182E-01    7.66       0.0  T
   2    -50.7351802 -0.892673E-05  0.137E-01    7.66       1.0  T
   3    -50.7351887 -0.854752E-05  0.150E-02    7.65       1.3  T
   4    -50.7351897 -0.950413E-06  0.463E-03    7.66       4.2  T
   5    -50.7351897 -0.260282E-07  0.198E-03    7.66       9.9  T
speedup  1.14
cpu  time for SCC    0.00 s
wall time for SCC    0.00 s
speedup  1.00
cpu  time for grad    0.01 s
wall time for grad    0.01 s
 E :    -50.44152041  G :  0.019601    pred/act E change: -0.371D-02 -0.650D-03
Maxdispl :   0.1304   ||displ|| :   0.2652   Lambda : -0.914D-03
Largest |displ|/coords:  0.1304 (   3)  0.1186 (   8)  0.0865 (   5)
................................................................................
.............................. CYCLE   17 ......................................
................................................................................
   1    -50.7322275 -0.507322E+02  0.164E-01    7.63       0.0  T
   2    -50.7322339 -0.636859E-05  0.123E-01    7.64       1.0  T
   3    -50.7322391 -0.523001E-05  0.145E-02    7.65       1.4  T
   4    -50.7322399 -0.815968E-06  0.593E-03    7.65       3.3  T
   5    -50.7322400 -0.598988E-07  0.178E-03    7.65      11.0  T
   6    -50.7322400 -0.347401E-08  0.104E-03    7.65      18.8  T
speedup  0.96
cpu  time for SCC    0.00 s
wall time for SCC    0.01 s
speedup  1.02
cpu  time for grad    0.01 s
wall time for grad    0.01 s
 E :    -50.44211260  G :  0.018172    pred/act E change: -0.631D-03 -0.592D-03
Maxdispl :   0.1688   ||displ|| :   0.3752   Lambda : -0.110D-02
Largest |displ|/coords:  0.1688 (   3)  0.1299 (   4)  0.1285 (   8)
................................................................................
.............................. CYCLE   18 ......................................
................................................................................
   1    -50.7316808 -0.507317E+02  0.233E-01    7.64       0.0  T
   2    -50.7316917 -0.109267E-04  0.176E-01    7.64       1.0  T
   3    -50.7317017 -0.993895E-05  0.187E-02    7.66       1.0  T
   4    -50.7317029 -0.126989E-05  0.747E-03    7.66       2.6  T
   5    -50.7317030 -0.828400E-07  0.220E-03    7.66       8.9  T
   6    -50.7317030 -0.412763E-08  0.130E-03    7.66      15.1  T
speedup  0.96
cpu  time for SCC    0.00 s
wall time for SCC    0.01 s
speedup  1.01
cpu  time for grad    0.01 s
wall time for grad    0.01 s
 E :    -50.44302987  G :  0.018279    pred/act E change: -0.489D-03 -0.917D-03
Maxdispl :   0.2302   ||displ|| :   0.5880   Lambda : -0.182D-02
Largest |displ|/coords:  0.2302 (   8)  0.2168 (   3)  0.2130 (   5)
................................................................................
.............................. CYCLE   19 ......................................
................................................................................
   1    -50.7311890 -0.507312E+02  0.358E-01    7.66       0.0  T
   2    -50.7312087 -0.196643E-04  0.271E-01    7.68       1.0  T
   3    -50.7312286 -0.198840E-04  0.263E-02    7.71       1.0  T
   4    -50.7312305 -0.194244E-05  0.974E-03    7.71       2.0  T
   5    -50.7312306 -0.976771E-07  0.309E-03    7.71       6.4  T
   6    -50.7312306 -0.101516E-07  0.161E-03    7.71      12.1  T
   7    -50.7312306 -0.467392E-08  0.569E-04    7.71      34.5  T
speedup  0.98
cpu  time for SCC    0.01 s
wall time for SCC    0.01 s
speedup  1.00
cpu  time for grad    0.01 s
wall time for grad    0.01 s
 E :    -50.44429748  G :  0.019188    pred/act E change: -0.627D-03 -0.127D-02
Maxdispl :   0.2305   ||displ|| :   0.5252   Lambda : -0.157D-02
Largest |displ|/coords:  0.2305 (   5)  0.1892 (   3)  0.1556 (   8)
................................................................................
.............................. CYCLE   20 ......................................
................................................................................
   1    -50.7323110 -0.507323E+02  0.334E-01    7.77       0.0  T
   2    -50.7323586 -0.475599E-04  0.251E-01    7.77       1.0  T
   3    -50.7323888 -0.302126E-04  0.401E-02    7.80       1.0  T
   4    -50.7323960 -0.725577E-05  0.116E-02    7.81       1.7  T
   5    -50.7323963 -0.312415E-06  0.431E-03    7.80       4.5  T
   6    -50.7323964 -0.197200E-07  0.258E-03    7.80       7.6  T
   7    -50.7323964 -0.156869E-07  0.580E-04    7.80      33.8  T
speedup  1.00
cpu  time for SCC    0.01 s
wall time for SCC    0.01 s
speedup  1.02
cpu  time for grad    0.01 s
wall time for grad    0.01 s
 E :    -50.44488907  G :  0.025677    pred/act E change: -0.122D-02 -0.592D-03
Maxdispl :   0.1392   ||displ|| :   0.3170   Lambda : -0.128D-02
Largest |displ|/coords:  0.1392 (   3)  0.1328 (   5)  0.0862 (  10)
................................................................................
.............................. CYCLE   21 ......................................
................................................................................
   1    -50.7341720 -0.507342E+02  0.186E-01    7.86       0.0  T
   2    -50.7341817 -0.973370E-05  0.140E-01    7.86       1.0  T
   3    -50.7341897 -0.802105E-05  0.171E-02    7.87       1.1  T
   4    -50.7341910 -0.124278E-05  0.428E-03    7.86       4.6  T
   5    -50.7341910 -0.168917E-07  0.218E-03    7.86       9.0  T
speedup  1.14
cpu  time for SCC    0.00 s
wall time for SCC    0.00 s
speedup  1.00
cpu  time for grad    0.01 s
wall time for grad    0.01 s
 E :    -50.44561434  G :  0.015212    pred/act E change: -0.999D-03 -0.725D-03
Maxdispl :   0.1468   ||displ|| :   0.3304   Lambda : -0.643D-03
Largest |displ|/coords:  0.1468 (   8)  0.1360 (   3)  0.1186 (   5)
................................................................................
.............................. CYCLE   22 ......................................
................................................................................
   1    -50.7322713 -0.507323E+02  0.176E-01    7.85       0.0  T
   2    -50.7322793 -0.807564E-05  0.132E-01    7.85       1.0  T
   3    -50.7322846 -0.528469E-05  0.175E-02    7.85       1.1  T
   4    -50.7322858 -0.120703E-05  0.560E-03    7.85       3.5  T
   5    -50.7322859 -0.711787E-07  0.198E-03    7.85       9.9  T
   6    -50.7322859 -0.423520E-08  0.117E-03    7.85      16.8  T
speedup  0.94
cpu  time for SCC    0.00 s
wall time for SCC    0.01 s
speedup  0.99
cpu  time for grad    0.01 s
wall time for grad    0.01 s
 E :    -50.44590698  G :  0.019009    pred/act E change: -0.705D-03 -0.293D-03
Maxdispl :   0.1099   ||displ|| :   0.3280   Lambda : -0.766D-03
Largest |displ|/coords:  0.1099 (   3)  0.1072 (  10)  0.1045 (  16)
................................................................................
.............................. CYCLE   23 ......................................
................................................................................
   1    -50.7344194 -0.507344E+02  0.161E-01    7.88       0.0  T
   2    -50.7344288 -0.940503E-05  0.121E-01    7.88       1.0  T
   3    -50.7344358 -0.704083E-05  0.198E-02    7.87       1.0  T
   4    -50.7344369 -0.114162E-05  0.765E-03    7.87       2.6  T
   5    -50.7344370 -0.928928E-07  0.213E-03    7.87       9.2  T
   6    -50.7344370 -0.429132E-08  0.123E-03    7.87      15.9  T
speedup  1.13
cpu  time for SCC    0.01 s
wall time for SCC    0.01 s
speedup  1.00
cpu  time for grad    0.01 s
wall time for grad    0.01 s
 E :    -50.44621984  G :  0.018810    pred/act E change: -0.356D-03 -0.313D-03
Maxdispl :   0.2017   ||displ|| :   0.4246   Lambda : -0.126D-02
Largest |displ|/coords:  0.2017 (   3)  0.1925 (   5)  0.1390 (  16)
................................................................................
.............................. CYCLE   24 ......................................
................................................................................
   1    -50.7312634 -0.507313E+02  0.307E-01    7.94       0.0  T
   2    -50.7313045 -0.410564E-04  0.230E-01    7.92       1.0  T
   3    -50.7313323 -0.278305E-04  0.364E-02    7.86       1.0  T
   4    -50.7313381 -0.575804E-05  0.117E-02    7.88       1.7  T
   5    -50.7313383 -0.216326E-06  0.393E-03    7.88       5.0  T
   6    -50.7313383 -0.182673E-07  0.221E-03    7.88       8.9  T
   7    -50.7313383 -0.106220E-07  0.589E-04    7.88      33.3  T
speedup  1.00
cpu  time for SCC    0.01 s
wall time for SCC    0.01 s
speedup  0.95
cpu  time for grad    0.01 s
wall time for grad    0.01 s
 E :    -50.44605898  G :  0.036950    pred/act E change: -0.424D-03  0.161D-03
Maxdispl :   0.1634   ||displ|| :   0.2636   Lambda : -0.225D-02
Largest |displ|/coords:  0.1634 (   8)  0.0823 (   1)  0.0694 (   9)
................................................................................
.............................. CYCLE   25 ......................................
................................................................................
   1    -50.7507822 -0.507508E+02  0.240E-01    7.99       0.0  T
   2    -50.7508498 -0.676653E-04  0.175E-01    7.98       1.0  T
   3    -50.7508970 -0.471565E-04  0.464E-02    7.96       1.0  T
   4    -50.7509030 -0.601956E-05  0.105E-02    7.96       1.9  T
   5    -50.7509032 -0.178431E-06  0.565E-03    7.96       3.5  T
   6    -50.7509032 -0.321163E-07  0.225E-03    7.96       8.7  T
speedup  0.94
cpu  time for SCC    0.01 s
wall time for SCC    0.01 s
speedup  1.00
cpu  time for grad    0.01 s
wall time for grad    0.01 s
 E :    -50.44501358  G :  0.049420    pred/act E change: -0.746D-03  0.105D-02
Maxdispl :   0.1506   ||displ|| :   0.2957   Lambda : -0.443D-02
Largest |displ|/coords:  0.1506 (   8)  0.1193 (  10)  0.0769 (   1)

generating ANC from model Hessian ...
 Shifting diagonal of input Hessian by   5.061184446599761E-003
 Lowest  eigenvalues of input Hessian
    0.005000   -0.000000   -0.000000   -0.000000    0.000000    0.000000
    0.000000    0.005197    0.005351    0.005392    0.005765    0.006077
    0.006187    0.006294    0.006938    0.007298    0.008537    0.009664
 Highest eigenvalues
    1.409392    1.422459    1.432414    2.793591    3.298764    3.705649
 
cpu  time for ANC gen    0.01 s
wall time for ANC gen    0.01 s
................................................................................
.............................. CYCLE   26 ......................................
................................................................................
   1    -50.7313671 -0.507314E+02  0.256E-01    7.74       0.0  T
   2    -50.7314134 -0.463598E-04  0.188E-01    7.78       1.0  T
   3    -50.7314358 -0.223642E-04  0.430E-02    7.85       1.0  T
   4    -50.7314416 -0.579939E-05  0.115E-02    7.83       1.7  T
   5    -50.7314418 -0.258591E-06  0.407E-03    7.83       4.8  T
   6    -50.7314419 -0.242676E-07  0.225E-03    7.83       8.7  T
   7    -50.7314419 -0.867861E-08  0.677E-04    7.83      29.0  T
   8    -50.7314419 -0.110116E-08  0.183E-04    7.83     107.0  T
speedup  0.99
cpu  time for SCC    0.01 s
wall time for SCC    0.01 s
speedup  1.05
cpu  time for grad    0.02 s
wall time for grad    0.02 s
 E :    -50.44644081  G :  0.022380    pred/act E change:  0.000D+00 -0.143D-02
Maxdispl :   0.1378   ||displ|| :   0.2154   Lambda : -0.122D-02
Largest |displ|/coords:  0.1378 (   3)  0.0713 (   4)  0.0503 (  11)
................................................................................
.............................. CYCLE   27 ......................................
................................................................................
   1    -50.7346796 -0.507347E+02  0.191E-01    7.88       0.0  T
   2    -50.7346875 -0.788215E-05  0.144E-01    7.87       1.0  T
   3    -50.7346949 -0.745724E-05  0.154E-02    7.86       1.3  T
   4    -50.7346959 -0.990351E-06  0.450E-03    7.87       4.4  T
   5    -50.7346959 -0.249817E-07  0.217E-03    7.87       9.0  T
speedup  0.93
cpu  time for SCC    0.00 s
wall time for SCC    0.00 s
speedup  0.99
cpu  time for grad    0.01 s
wall time for grad    0.01 s
 E :    -50.44725212  G :  0.007884    pred/act E change:  0.000D+00 -0.811D-03
Maxdispl :   0.1454   ||displ|| :   0.2515   Lambda : -0.564D-03
Largest |displ|/coords:  0.1454 (   3)  0.0859 (   4)  0.0770 (  11)
................................................................................
.............................. CYCLE   28 ......................................
................................................................................
   1    -50.7355528 -0.507356E+02  0.214E-01    7.90       0.0  T
   2    -50.7355616 -0.883314E-05  0.162E-01    7.89       1.0  T
   3    -50.7355694 -0.773174E-05  0.171E-02    7.87       1.2  T
   4    -50.7355705 -0.111599E-05  0.491E-03    7.88       4.0  T
   5    -50.7355705 -0.317129E-07  0.231E-03    7.88       8.5  T
   6    -50.7355705 -0.571153E-08  0.960E-04    7.88      20.4  T
speedup  1.13
cpu  time for SCC    0.01 s
wall time for SCC    0.01 s
speedup  1.00
cpu  time for grad    0.01 s
wall time for grad    0.01 s
 E :    -50.44753161  G :  0.015756    pred/act E change: -0.636D-03 -0.279D-03
Maxdispl :   0.0629   ||displ|| :   0.1140   Lambda : -0.258D-03
Largest |displ|/coords:  0.0629 (   4)  0.0583 (   3)  0.0309 (   9)
................................................................................
.............................. CYCLE   29 ......................................
................................................................................
   1    -50.7369479 -0.507369E+02  0.622E-02    7.90       0.0  T
   2    -50.7369488 -0.876215E-06  0.465E-02    7.90       1.0  T
   3    -50.7369497 -0.856916E-06  0.611E-03    7.89       3.2  T
   4    -50.7369497 -0.837917E-07  0.197E-03    7.89      10.0  T
   5    -50.7369498 -0.512588E-08  0.714E-04    7.89      27.5  T
speedup  0.91
cpu  time for SCC    0.00 s
wall time for SCC    0.00 s
speedup  0.99
cpu  time for grad    0.01 s
wall time for grad    0.01 s
 E :    -50.44773282  G :  0.010643    pred/act E change: -0.300D-03 -0.201D-03
Maxdispl :   0.1748   ||displ|| :   0.3190   Lambda : -0.509D-03
Largest |displ|/coords:  0.1748 (   3)  0.1286 (   4)  0.1254 (  10)
................................................................................
.............................. CYCLE   30 ......................................
................................................................................
   1    -50.7370916 -0.507371E+02  0.193E-01    7.90       0.0  T
   2    -50.7370965 -0.491865E-05  0.145E-01    7.90       1.0  T
   3    -50.7371022 -0.569387E-05  0.147E-02    7.90       1.3  T
   4    -50.7371025 -0.331161E-06  0.485E-03    7.90       4.0  T
   5    -50.7371026 -0.292272E-07  0.198E-03    7.90       9.9  T
   6    -50.7371026 -0.460972E-08  0.911E-04    7.90      21.5  T
speedup  0.96
cpu  time for SCC    0.00 s
wall time for SCC    0.01 s
speedup  1.01
cpu  time for grad    0.01 s
wall time for grad    0.01 s
 E :    -50.44809162  G :  0.006519    pred/act E change: -0.131D-03 -0.359D-03
Maxdispl :   0.2681   ||displ|| :   0.4621   Lambda : -0.460D-03
Largest |displ|/coords:  0.2681 (   3)  0.2093 (   4)  0.1439 (   9)
................................................................................
.............................. CYCLE   31 ......................................
................................................................................
   1    -50.7331383 -0.507331E+02  0.283E-01    7.88       0.0  T
   2    -50.7331520 -0.137029E-04  0.213E-01    7.88       1.0  T
   3    -50.7331658 -0.138116E-04  0.234E-02    7.87       1.0  T
   4    -50.7331671 -0.133086E-05  0.693E-03    7.87       2.8  T
   5    -50.7331672 -0.605127E-07  0.326E-03    7.87       6.0  T
   6    -50.7331672 -0.124028E-07  0.153E-03    7.87      12.8  T
   7    -50.7331672 -0.558074E-08  0.343E-04    7.87      57.1  T
speedup  1.00
cpu  time for SCC    0.01 s
wall time for SCC    0.01 s
speedup  1.09
cpu  time for grad    0.01 s
wall time for grad    0.01 s
 E :    -50.44826591  G :  0.018159    pred/act E change: -0.280D-03 -0.174D-03
Maxdispl :   0.1020   ||displ|| :   0.2454   Lambda : -0.654D-03
Largest |displ|/coords:  0.1020 (   5)  0.1017 (   3)  0.1002 (   9)
................................................................................
.............................. CYCLE   32 ......................................
................................................................................
   1    -50.7355024 -0.507355E+02  0.138E-01    7.84       0.0  T
   2    -50.7355096 -0.716719E-05  0.103E-01    7.84       1.0  T
   3    -50.7355155 -0.590332E-05  0.170E-02    7.85       1.2  T
   4    -50.7355164 -0.834665E-06  0.528E-03    7.85       3.7  T
   5    -50.7355164 -0.444532E-07  0.187E-03    7.85      10.5  T
   6    -50.7355164 -0.371853E-08  0.105E-03    7.85      18.8  T
speedup  0.93
cpu  time for SCC    0.00 s
wall time for SCC    0.01 s
speedup  0.99
cpu  time for grad    0.01 s
wall time for grad    0.01 s
 E :    -50.44861739  G :  0.011005    pred/act E change: -0.279D-03 -0.351D-03
Maxdispl :   0.2062   ||displ|| :   0.3768   Lambda : -0.773D-03
Largest |displ|/coords:  0.2062 (   9)  0.1830 (  10)  0.1344 (   6)
................................................................................
.............................. CYCLE   33 ......................................
................................................................................
   1    -50.7387556 -0.507388E+02  0.240E-01    7.80       0.0  T
   2    -50.7387781 -0.225214E-04  0.181E-01    7.81       1.0  T
   3    -50.7387978 -0.196699E-04  0.278E-02    7.82       1.0  T
   4    -50.7388004 -0.266836E-05  0.749E-03    7.82       2.6  T
   5    -50.7388005 -0.763562E-07  0.353E-03    7.82       5.6  T
   6    -50.7388005 -0.151504E-07  0.164E-03    7.82      11.9  T
   7    -50.7388005 -0.548813E-08  0.383E-04    7.82      51.2  T
speedup  0.98
cpu  time for SCC    0.01 s
wall time for SCC    0.01 s
speedup  1.01
cpu  time for grad    0.01 s
wall time for grad    0.01 s
 E :    -50.44839054  G :  0.034321    pred/act E change: -0.347D-03  0.227D-03
Maxdispl :   0.1516   ||displ|| :   0.2458   Lambda : -0.125D-02
Largest |displ|/coords:  0.1516 (   3)  0.0898 (   4)  0.0882 (   5)
................................................................................
.............................. CYCLE   34 ......................................
................................................................................
   1    -50.7338115 -0.507338E+02  0.179E-01    7.81       0.0  T
   2    -50.7338239 -0.124171E-04  0.135E-01    7.80       1.0  T
   3    -50.7338336 -0.968720E-05  0.202E-02    7.79       1.0  T
   4    -50.7338351 -0.153499E-05  0.509E-03    7.79       3.9  T
   5    -50.7338352 -0.317555E-07  0.247E-03    7.79       7.9  T
speedup  1.14
cpu  time for SCC    0.00 s
wall time for SCC    0.00 s
speedup  0.99
cpu  time for grad    0.01 s
wall time for grad    0.01 s
 E :    -50.44909829  G :  0.010316    pred/act E change: -0.441D-03 -0.708D-03
Maxdispl :   0.1308   ||displ|| :   0.2232   Lambda : -0.403D-03
Largest |displ|/coords:  0.1308 (   7)  0.0799 (   5)  0.0758 (   3)
................................................................................
.............................. CYCLE   35 ......................................
................................................................................
   1    -50.7358392 -0.507358E+02  0.125E-01    7.76       0.0  T
   2    -50.7358438 -0.453700E-05  0.938E-02    7.77       1.0  T
   3    -50.7358473 -0.347534E-05  0.139E-02    7.77       1.4  T
   4    -50.7358478 -0.577273E-06  0.466E-03    7.77       4.2  T
   5    -50.7358479 -0.322145E-07  0.130E-03    7.77      15.0  T
   6    -50.7358479 -0.143820E-08  0.775E-04    7.77      25.3  T
speedup  0.96
cpu  time for SCC    0.01 s
wall time for SCC    0.01 s
speedup  1.01
cpu  time for grad    0.01 s
wall time for grad    0.01 s
 E :    -50.44925458  G :  0.009461    pred/act E change: -0.663D-03 -0.156D-03
Maxdispl :   0.2039   ||displ|| :   0.4868   Lambda : -0.481D-03
Largest |displ|/coords:  0.2039 (  10)  0.1974 (   3)  0.1887 (   9)
................................................................................
.............................. CYCLE   36 ......................................
................................................................................
   1    -50.7315406 -0.507315E+02  0.268E-01    7.68       0.0  T
   2    -50.7315500 -0.939024E-05  0.201E-01    7.68       1.0  T
   3    -50.7315604 -0.103146E-04  0.230E-02    7.69       1.0  T
   4    -50.7315610 -0.692859E-06  0.677E-03    7.69       2.9  T
   5    -50.7315611 -0.580183E-07  0.259E-03    7.69       7.6  T
   6    -50.7315611 -0.783832E-08  0.151E-03    7.69      13.0  T
speedup  0.94
cpu  time for SCC    0.00 s
wall time for SCC    0.01 s
speedup  1.00
cpu  time for grad    0.01 s
wall time for grad    0.01 s
 E :    -50.44956506  G :  0.014811    pred/act E change: -0.212D-03 -0.310D-03
Maxdispl :   0.1274   ||displ|| :   0.3056   Lambda : -0.617D-03
Largest |displ|/coords:  0.1274 (   5)  0.1148 (  11)  0.0852 (   6)
................................................................................
.............................. CYCLE   37 ......................................
................................................................................
   1    -50.7372304 -0.507372E+02  0.193E-01    7.74       0.0  T
   2    -50.7372413 -0.109311E-04  0.146E-01    7.75       1.0  T
   3    -50.7372506 -0.924412E-05  0.200E-02    7.77       1.0  T
   4    -50.7372517 -0.119725E-05  0.706E-03    7.77       2.8  T
   5    -50.7372518 -0.787099E-07  0.214E-03    7.77       9.1  T
   6    -50.7372518 -0.410112E-08  0.130E-03    7.77      15.1  T
speedup  1.18
cpu  time for SCC    0.01 s
wall time for SCC    0.01 s
speedup  1.01
cpu  time for grad    0.01 s
wall time for grad    0.01 s
 E :    -50.44963417  G :  0.022077    pred/act E change: -0.298D-03 -0.691D-04
Maxdispl :   0.0932   ||displ|| :   0.2616   Lambda : -0.713D-03
Largest |displ|/coords:  0.0932 (   2)  0.0922 (  10)  0.0887 (   9)
................................................................................
.............................. CYCLE   38 ......................................
................................................................................
   1    -50.7352656 -0.507353E+02  0.163E-01    7.75       0.0  T
   2    -50.7352713 -0.568379E-05  0.122E-01    7.75       1.0  T
   3    -50.7352765 -0.522834E-05  0.155E-02    7.76       1.3  T
   4    -50.7352771 -0.570442E-06  0.413E-03    7.76       4.7  T
   5    -50.7352771 -0.232227E-07  0.177E-03    7.76      11.1  T
speedup  0.91
cpu  time for SCC    0.00 s
wall time for SCC    0.00 s
speedup  0.99
cpu  time for grad    0.01 s
wall time for grad    0.01 s
 E :    -50.44999367  G :  0.013398    pred/act E change: -0.338D-03 -0.360D-03
Maxdispl :   0.1384   ||displ|| :   0.2027   Lambda : -0.472D-03
Largest |displ|/coords:  0.1384 (   7)  0.0607 (   5)  0.0583 (   1)
................................................................................
.............................. CYCLE   39 ......................................
................................................................................
   1    -50.7331434 -0.507331E+02  0.128E-01    7.75       0.0  T
   2    -50.7331509 -0.753790E-05  0.953E-02    7.75       1.0  T
   3    -50.7331558 -0.486168E-05  0.162E-02    7.76       1.2  T
   4    -50.7331568 -0.101518E-05  0.443E-03    7.76       4.4  T
   5    -50.7331568 -0.290692E-07  0.179E-03    7.76      10.9  T
   6    -50.7331568 -0.351677E-08  0.103E-03    7.76      19.0  T
speedup  1.13
cpu  time for SCC    0.01 s
wall time for SCC    0.01 s
speedup  1.00
cpu  time for grad    0.01 s
wall time for grad    0.01 s
 E :    -50.45014773  G :  0.012576    pred/act E change: -0.381D-03 -0.154D-03
Maxdispl :   0.1073   ||displ|| :   0.2396   Lambda : -0.441D-03
Largest |displ|/coords:  0.1073 (   7)  0.1011 (   5)  0.0843 (  10)
................................................................................
.............................. CYCLE   40 ......................................
................................................................................
   1    -50.7350580 -0.507351E+02  0.136E-01    7.76       0.0  T
   2    -50.7350636 -0.564139E-05  0.102E-01    7.76       1.0  T
   3    -50.7350677 -0.407585E-05  0.147E-02    7.77       1.3  T
   4    -50.7350685 -0.768574E-06  0.438E-03    7.77       4.5  T
   5    -50.7350685 -0.272367E-07  0.165E-03    7.77      11.9  T
   6    -50.7350685 -0.340091E-08  0.972E-04    7.77      20.2  T
speedup  0.96
cpu  time for SCC    0.00 s
wall time for SCC    0.01 s
speedup  1.01
cpu  time for grad    0.01 s
wall time for grad    0.01 s
 E :    -50.45034163  G :  0.014799    pred/act E change: -0.246D-03 -0.194D-03
Maxdispl :   0.1416   ||displ|| :   0.2744   Lambda : -0.566D-03
Largest |displ|/coords:  0.1416 (   7)  0.1300 (   1)  0.0834 (   5)
................................................................................
.............................. CYCLE   41 ......................................
................................................................................
   1    -50.7363791 -0.507364E+02  0.171E-01    7.83       0.0  T
   2    -50.7363897 -0.105543E-04  0.129E-01    7.84       1.0  T
   3    -50.7363981 -0.848191E-05  0.188E-02    7.86       1.0  T
   4    -50.7363995 -0.139838E-05  0.584E-03    7.85       3.4  T
   5    -50.7363996 -0.445621E-07  0.224E-03    7.85       8.8  T
   6    -50.7363996 -0.559395E-08  0.122E-03    7.85      16.1  T
speedup  0.98
cpu  time for SCC    0.00 s
wall time for SCC    0.01 s
speedup  1.01
cpu  time for grad    0.01 s
wall time for grad    0.01 s
 E :    -50.45048726  G :  0.015767    pred/act E change: -0.233D-03 -0.146D-03
Maxdispl :   0.0723   ||displ|| :   0.1539   Lambda : -0.406D-03
Largest |displ|/coords:  0.0723 (   3)  0.0711 (   1)  0.0503 (  12)
................................................................................
.............................. CYCLE   42 ......................................
................................................................................
   1    -50.7384855 -0.507385E+02  0.901E-02    7.88       0.0  T
   2    -50.7384908 -0.525703E-05  0.675E-02    7.89       1.0  T
   3    -50.7384942 -0.346913E-05  0.133E-02    7.90       1.5  T
   4    -50.7384949 -0.686198E-06  0.461E-03    7.90       4.3  T
   5    -50.7384950 -0.362903E-07  0.144E-03    7.90      13.7  T
   6    -50.7384950 -0.259271E-08  0.818E-04    7.89      24.0  T
speedup  0.94
cpu  time for SCC    0.01 s
wall time for SCC    0.01 s
speedup  0.92
cpu  time for grad    0.01 s
wall time for grad    0.01 s
 E :    -50.45067322  G :  0.008824    pred/act E change: -0.304D-03 -0.186D-03
Maxdispl :   0.1661   ||displ|| :   0.3742   Lambda : -0.413D-03
Largest |displ|/coords:  0.1661 (   7)  0.1546 (  10)  0.1350 (   2)
................................................................................
.............................. CYCLE   43 ......................................
................................................................................
   1    -50.7316665 -0.507317E+02  0.219E-01    7.74       0.0  T
   2    -50.7316769 -0.104267E-04  0.163E-01    7.74       1.0  T
   3    -50.7316847 -0.780250E-05  0.246E-02    7.75       1.0  T
   4    -50.7316859 -0.112458E-05  0.764E-03    7.75       2.6  T
   5    -50.7316859 -0.720185E-07  0.208E-03    7.75       9.4  T
   6    -50.7316859 -0.513936E-08  0.131E-03    7.75      15.0  T
speedup  0.94
cpu  time for SCC    0.00 s
wall time for SCC    0.01 s
speedup  0.99
cpu  time for grad    0.01 s
wall time for grad    0.01 s
 E :    -50.45058921  G :  0.017971    pred/act E change: -0.208D-03  0.840D-04
Maxdispl :   0.1108   ||displ|| :   0.2329   Lambda : -0.601D-03
Largest |displ|/coords:  0.1108 (   9)  0.1007 (  10)  0.0959 (   3)
................................................................................
.............................. CYCLE   44 ......................................
................................................................................
   1    -50.7391033 -0.507391E+02  0.131E-01    7.90       0.0  T
   2    -50.7391074 -0.415758E-05  0.958E-02    7.90       1.0  T
   3    -50.7391114 -0.394703E-05  0.170E-02    7.91       1.2  T
   4    -50.7391117 -0.309928E-06  0.478E-03    7.90       4.1  T
   5    -50.7391117 -0.381728E-07  0.162E-03    7.90      12.1  T
   6    -50.7391117 -0.250651E-08  0.984E-04    7.90      19.9  T
speedup  1.13
cpu  time for SCC    0.01 s
wall time for SCC    0.01 s
speedup  0.99
cpu  time for grad    0.01 s
wall time for grad    0.01 s
 E :    -50.45074465  G :  0.015475    pred/act E change: -0.236D-03 -0.155D-03
Maxdispl :   0.0747   ||displ|| :   0.2048   Lambda : -0.756D-03
Largest |displ|/coords:  0.0747 (  12)  0.0726 (   7)  0.0713 (   2)
................................................................................
.............................. CYCLE   45 ......................................
................................................................................
   1    -50.7364151 -0.507364E+02  0.161E-01    7.86       0.0  T
   2    -50.7364364 -0.212584E-04  0.119E-01    7.86       1.0  T
   3    -50.7364494 -0.130105E-04  0.265E-02    7.86       1.0  T
   4    -50.7364518 -0.237706E-05  0.770E-03    7.86       2.5  T
   5    -50.7364519 -0.109720E-06  0.284E-03    7.86       6.9  T
   6    -50.7364519 -0.676611E-08  0.149E-03    7.86      13.1  T
speedup  0.94
cpu  time for SCC    0.00 s
wall time for SCC    0.01 s
speedup  0.98
cpu  time for grad    0.01 s
wall time for grad    0.01 s
 E :    -50.45029700  G :  0.029999    pred/act E change: -0.317D-03  0.448D-03
Maxdispl :   0.0717   ||displ|| :   0.1330   Lambda : -0.126D-02
Largest |displ|/coords:  0.0717 (   2)  0.0479 (  12)  0.0430 (   5)
................................................................................
.............................. CYCLE   46 ......................................
................................................................................
   1    -50.7374247 -0.507374E+02  0.113E-01    7.85       0.0  T
   2    -50.7374346 -0.988660E-05  0.839E-02    7.85       1.0  T
   3    -50.7374401 -0.551438E-05  0.184E-02    7.85       1.1  T
   4    -50.7374412 -0.113266E-05  0.559E-03    7.85       3.5  T
   5    -50.7374413 -0.663988E-07  0.181E-03    7.85      10.9  T
speedup  0.89
cpu  time for SCC    0.00 s
wall time for SCC    0.00 s
speedup  0.98
cpu  time for grad    0.01 s
wall time for grad    0.01 s
 E :    -50.45092749  G :  0.003583    pred/act E change: -0.394D-03 -0.630D-03
Maxdispl :   0.0619   ||displ|| :   0.1497   Lambda : -0.123D-03
Largest |displ|/coords:  0.0619 (   5)  0.0597 (   1)  0.0591 (   4)
................................................................................
.............................. CYCLE   47 ......................................
................................................................................
   1    -50.7363587 -0.507364E+02  0.858E-02    7.81       0.0  T
   2    -50.7363603 -0.160173E-05  0.642E-02    7.81       1.0  T
   3    -50.7363618 -0.141509E-05  0.838E-03    7.82       2.3  T
   4    -50.7363619 -0.161999E-06  0.292E-03    7.82       6.7  T
   5    -50.7363619 -0.109534E-07  0.872E-04    7.82      22.5  T
   6    -50.7363619 -0.825040E-09  0.529E-04    7.82      37.1  T
speedup  0.94
cpu  time for SCC    0.00 s
wall time for SCC    0.01 s
speedup  0.96
cpu  time for grad    0.01 s
wall time for grad    0.01 s
 E :    -50.45092244  G :  0.009833    pred/act E change: -0.643D-03  0.506D-05
Maxdispl :   0.0294   ||displ|| :   0.0686   Lambda : -0.125D-03
Largest |displ|/coords:  0.0294 (   7)  0.0293 (   5)  0.0267 (   3)
................................................................................
.............................. CYCLE   48 ......................................
................................................................................
   1    -50.7369895 -0.507370E+02  0.370E-02    7.83       0.0  T
   2    -50.7369901 -0.585799E-06  0.277E-02    7.83       1.0  T
   3    -50.7369906 -0.438877E-06  0.423E-03    7.83       4.6  T
   4    -50.7369906 -0.756674E-07  0.170E-03    7.83      11.6  T
   5    -50.7369907 -0.406741E-08  0.523E-04    7.83      37.5  T
speedup  0.91
cpu  time for SCC    0.00 s
wall time for SCC    0.00 s
speedup  0.98
cpu  time for grad    0.01 s
wall time for grad    0.01 s
 E :    -50.45100269  G :  0.004434    pred/act E change: -0.626D-04 -0.803D-04
Maxdispl :   0.0535   ||displ|| :   0.1120   Lambda : -0.552D-04
Largest |displ|/coords:  0.0535 (   4)  0.0424 (   1)  0.0410 (   6)
................................................................................
.............................. CYCLE   49 ......................................
................................................................................
   1    -50.7372414 -0.507372E+02  0.543E-02    7.82       0.0  T
   2    -50.7372421 -0.646589E-06  0.406E-02    7.82       1.0  T
   3    -50.7372426 -0.539161E-06  0.470E-03    7.82       4.2  T
   4    -50.7372427 -0.675270E-07  0.176E-03    7.82      11.2  T
   5    -50.7372427 -0.298439E-08  0.509E-04    7.82      38.5  T
speedup  0.89
cpu  time for SCC    0.00 s
wall time for SCC    0.00 s
speedup  0.98
cpu  time for grad    0.01 s
wall time for grad    0.01 s
 E :    -50.45104006  G :  0.002500    pred/act E change: -0.630D-04 -0.374D-04
Maxdispl :   0.1215   ||displ|| :   0.2054   Lambda : -0.725D-04
Largest |displ|/coords:  0.1215 (   4)  0.0786 (   1)  0.0571 (   6)
................................................................................
.............................. CYCLE   50 ......................................
................................................................................
   1    -50.7376094 -0.507376E+02  0.997E-02    7.81       0.0  T
   2    -50.7376121 -0.265566E-05  0.746E-02    7.81       1.0  T
   3    -50.7376138 -0.175999E-05  0.990E-03    7.81       2.0  T
   4    -50.7376142 -0.367666E-06  0.366E-03    7.81       5.4  T
   5    -50.7376142 -0.169046E-07  0.960E-04    7.81      20.4  T
   6    -50.7376142 -0.908130E-09  0.563E-04    7.81      34.9  T
speedup  0.93
cpu  time for SCC    0.01 s
wall time for SCC    0.01 s
speedup  1.02
cpu  time for grad    0.01 s
wall time for grad    0.01 s
 E :    -50.45107021  G :  0.004231    pred/act E change: -0.279D-04 -0.302D-04
Maxdispl :   0.0428   ||displ|| :   0.0713   Lambda : -0.425D-04
Largest |displ|/coords:  0.0428 (   4)  0.0329 (   6)  0.0195 (  10)
................................................................................
.............................. CYCLE   51 ......................................
................................................................................
   1    -50.7381082 -0.507381E+02  0.312E-02    7.81       0.0  T
   2    -50.7381085 -0.276122E-06  0.234E-02    7.80       1.0  T
   3    -50.7381087 -0.187890E-06  0.320E-03    7.80       6.1  T
   4    -50.7381087 -0.396021E-07  0.119E-03    7.80      16.5  T
   5    -50.7381087 -0.175297E-08  0.316E-04    7.80      62.1  T
speedup  1.11
cpu  time for SCC    0.00 s
wall time for SCC    0.00 s
speedup  0.98
cpu  time for grad    0.01 s
wall time for grad    0.01 s
 E :    -50.45109771  G :  0.002589    pred/act E change: -0.378D-04 -0.275D-04
Maxdispl :   0.0457   ||displ|| :   0.0667   Lambda : -0.244D-04
Largest |displ|/coords:  0.0457 (   4)  0.0198 (  10)  0.0176 (   6)
................................................................................
.............................. CYCLE   52 ......................................
................................................................................
   1    -50.7382258 -0.507382E+02  0.317E-02    7.80       0.0  T
   2    -50.7382261 -0.278828E-06  0.240E-02    7.80       1.0  T
   3    -50.7382264 -0.242263E-06  0.324E-03    7.80       6.1  T
   4    -50.7382264 -0.368098E-07  0.125E-03    7.80      15.7  T
   5    -50.7382264 -0.175437E-08  0.335E-04    7.80      58.5  T
   6    -50.7382264 -0.151552E-09  0.211E-04    7.80      93.0  T
speedup  0.96
cpu  time for SCC    0.01 s
wall time for SCC    0.01 s
speedup  1.02
cpu  time for grad    0.01 s
wall time for grad    0.01 s
 E :    -50.45111559  G :  0.002637    pred/act E change: -0.213D-04 -0.179D-04
Maxdispl :   0.0685   ||displ|| :   0.1027   Lambda : -0.315D-04
Largest |displ|/coords:  0.0685 (   4)  0.0340 (   3)  0.0286 (   7)

generating ANC from model Hessian ...
 Shifting diagonal of input Hessian by   5.124863259513116E-003
 Lowest  eigenvalues of input Hessian
    0.005000    0.005109   -0.000000   -0.000000    0.000000    0.000000
    0.000000    0.000000    0.005383    0.005518    0.005679    0.005872
    0.006249    0.006346    0.006794    0.006967    0.007932    0.008907
 Highest eigenvalues
    1.393342    1.396812    1.404428    2.815942    3.278773    3.727527
 
cpu  time for ANC gen    0.01 s
wall time for ANC gen    0.01 s
................................................................................
.............................. CYCLE   53 ......................................
................................................................................
   1    -50.7385150 -0.507385E+02  0.505E-02    7.82       0.0  T
   2    -50.7385156 -0.617610E-06  0.383E-02    7.82       1.0  T
   3    -50.7385163 -0.655739E-06  0.456E-03    7.82       4.3  T
   4    -50.7385164 -0.624366E-07  0.184E-03    7.82      10.7  T
   5    -50.7385164 -0.396363E-08  0.499E-04    7.82      39.3  T
   6    -50.7385164 -0.353580E-09  0.316E-04    7.82      62.1  T
speedup  0.94
cpu  time for SCC    0.00 s
wall time for SCC    0.01 s
speedup  1.02
cpu  time for grad    0.01 s
wall time for grad    0.01 s
 E :    -50.45113411  G :  0.003305    pred/act E change:  0.000D+00 -0.185D-04
Maxdispl :   0.0226   ||displ|| :   0.0571   Lambda : -0.443D-04
Largest |displ|/coords:  0.0226 (   1)  0.0188 (   2)  0.0184 (   4)
................................................................................
.............................. CYCLE   54 ......................................
................................................................................
   1    -50.7384513 -0.507385E+02  0.435E-02    7.81       0.0  T
   2    -50.7384515 -0.267386E-06  0.328E-02    7.81       1.0  T
   3    -50.7384519 -0.342209E-06  0.310E-03    7.81       6.3  T
   4    -50.7384519 -0.100627E-07  0.917E-04    7.81      21.4  T
   5    -50.7384519 -0.960128E-09  0.362E-04    7.81      54.2  T
speedup  1.14
cpu  time for SCC    0.00 s
wall time for SCC    0.00 s
speedup  1.02
cpu  time for grad    0.01 s
wall time for grad    0.01 s
 E :    -50.45116485  G :  0.001367    pred/act E change:  0.000D+00 -0.307D-04
Maxdispl :   0.0479   ||displ|| :   0.0875   Lambda : -0.358D-04
Largest |displ|/coords:  0.0479 (   1)  0.0348 (   6)  0.0300 (   4)
................................................................................
.............................. CYCLE   55 ......................................
................................................................................
   1    -50.7381392 -0.507381E+02  0.650E-02    7.80       0.0  T
   2    -50.7381398 -0.597183E-06  0.492E-02    7.80       1.0  T
   3    -50.7381406 -0.724556E-06  0.384E-03    7.80       5.1  T
   4    -50.7381406 -0.362584E-07  0.169E-03    7.80      11.6  T
   5    -50.7381406 -0.281216E-08  0.534E-04    7.80      36.7  T
   6    -50.7381406 -0.326175E-09  0.278E-04    7.80      70.6  T
speedup  0.94
cpu  time for SCC    0.00 s
wall time for SCC    0.01 s
speedup  1.02
cpu  time for grad    0.01 s
wall time for grad    0.01 s
 E :    -50.45118993  G :  0.001266    pred/act E change: -0.222D-04 -0.251D-04
Maxdispl :   0.0598   ||displ|| :   0.1089   Lambda : -0.255D-04
Largest |displ|/coords:  0.0598 (   1)  0.0405 (   6)  0.0390 (   9)
................................................................................
.............................. CYCLE   56 ......................................
................................................................................
   1    -50.7377735 -0.507378E+02  0.723E-02    7.79       0.0  T
   2    -50.7377742 -0.689308E-06  0.545E-02    7.79       1.0  T
   3    -50.7377749 -0.740772E-06  0.438E-03    7.79       4.5  T
   4    -50.7377750 -0.604318E-07  0.185E-03    7.79      10.6  T
   5    -50.7377750 -0.404472E-08  0.630E-04    7.79      31.1  T
   6    -50.7377750 -0.437780E-09  0.329E-04    7.79      59.6  T
speedup  1.13
cpu  time for SCC    0.01 s
wall time for SCC    0.01 s
speedup  1.03
cpu  time for grad    0.01 s
wall time for grad    0.01 s
 E :    -50.45120623  G :  0.002243    pred/act E change: -0.181D-04 -0.163D-04
Maxdispl :   0.0539   ||displ|| :   0.0962   Lambda : -0.190D-04
Largest |displ|/coords:  0.0539 (   1)  0.0455 (   4)  0.0360 (   9)
................................................................................
.............................. CYCLE   57 ......................................
................................................................................
   1    -50.7378236 -0.507378E+02  0.504E-02    7.78       0.0  T
   2    -50.7378239 -0.285814E-06  0.379E-02    7.78       1.0  T
   3    -50.7378242 -0.221494E-06  0.336E-03    7.78       5.8  T
   4    -50.7378242 -0.399582E-07  0.123E-03    7.78      15.9  T
   5    -50.7378242 -0.201826E-08  0.386E-04    7.78      50.8  T
   6    -50.7378242 -0.141348E-09  0.222E-04    7.78      88.2  T
speedup  0.93
cpu  time for SCC    0.00 s
wall time for SCC    0.01 s
speedup  0.95
cpu  time for grad    0.01 s
wall time for grad    0.01 s
 E :    -50.45122060  G :  0.001957    pred/act E change: -0.129D-04 -0.144D-04
Maxdispl :   0.0887   ||displ|| :   0.1582   Lambda : -0.285D-04
Largest |displ|/coords:  0.0887 (   1)  0.0806 (   4)  0.0655 (   9)
................................................................................
.............................. CYCLE   58 ......................................
................................................................................
   1    -50.7380170 -0.507380E+02  0.710E-02    7.78       0.0  T
   2    -50.7380176 -0.578717E-06  0.533E-02    7.78       1.0  T
   3    -50.7380180 -0.474746E-06  0.528E-03    7.79       3.7  T
   4    -50.7380181 -0.763813E-07  0.187E-03    7.79      10.5  T
   5    -50.7380181 -0.356700E-08  0.534E-04    7.79      36.7  T
   6    -50.7380181 -0.272593E-09  0.322E-04    7.79      60.8  T
speedup  1.09
cpu  time for SCC    0.01 s
wall time for SCC    0.01 s
speedup  1.01
cpu  time for grad    0.01 s
wall time for grad    0.01 s
 E :    -50.45124025  G :  0.001448    pred/act E change: -0.961D-05 -0.197D-04
Maxdispl :   0.1030   ||displ|| :   0.1737   Lambda : -0.209D-04
Largest |displ|/coords:  0.1030 (   1)  0.0960 (   4)  0.0586 (   9)
................................................................................
.............................. CYCLE   59 ......................................
................................................................................
   1    -50.7378301 -0.507378E+02  0.751E-02    7.78       0.0  T
   2    -50.7378307 -0.643394E-06  0.566E-02    7.78       1.0  T
   3    -50.7378313 -0.587375E-06  0.497E-03    7.78       3.9  T
   4    -50.7378314 -0.754317E-07  0.194E-03    7.78      10.1  T
   5    -50.7378314 -0.344265E-08  0.547E-04    7.78      35.9  T
   6    -50.7378314 -0.258026E-09  0.323E-04    7.78      60.8  T
speedup  0.96
cpu  time for SCC    0.00 s
wall time for SCC    0.01 s
speedup  0.89
cpu  time for grad    0.01 s
wall time for grad    0.01 s
 E :    -50.45125329  G :  0.002094    pred/act E change: -0.146D-04 -0.130D-04
Maxdispl :   0.0707   ||displ|| :   0.1187   Lambda : -0.222D-04
Largest |displ|/coords:  0.0707 (   1)  0.0622 (   4)  0.0365 (   5)
................................................................................
.............................. CYCLE   60 ......................................
................................................................................
   1    -50.7384686 -0.507385E+02  0.438E-02    7.79       0.0  T
   2    -50.7384691 -0.441835E-06  0.327E-02    7.79       1.0  T
   3    -50.7384694 -0.386029E-06  0.419E-03    7.79       4.7  T
   4    -50.7384695 -0.499418E-07  0.159E-03    7.79      12.4  T
   5    -50.7384695 -0.401980E-08  0.504E-04    7.79      38.9  T
   6    -50.7384695 -0.356756E-09  0.284E-04    7.79      69.0  T
speedup  1.13
cpu  time for SCC    0.01 s
wall time for SCC    0.01 s
speedup  1.03
cpu  time for grad    0.01 s
wall time for grad    0.01 s
 E :    -50.45126070  G :  0.002959    pred/act E change: -0.108D-04 -0.741D-05
Maxdispl :   0.0489   ||displ|| :   0.0678   Lambda : -0.149D-04
Largest |displ|/coords:  0.0489 (   1)  0.0273 (   4)  0.0195 (   5)
................................................................................
.............................. CYCLE   61 ......................................
................................................................................
   1    -50.7381611 -0.507382E+02  0.354E-02    7.79       0.0  T
   2    -50.7381613 -0.167083E-06  0.268E-02    7.79       1.0  T
   3    -50.7381615 -0.179832E-06  0.202E-03    7.79       9.7  T
   4    -50.7381615 -0.139717E-07  0.811E-04    7.79      24.2  T
   5    -50.7381615 -0.638408E-09  0.291E-04    7.79      67.5  T
speedup  1.16
cpu  time for SCC    0.00 s
wall time for SCC    0.00 s
speedup  1.03
cpu  time for grad    0.01 s
wall time for grad    0.01 s
 E :    -50.45126983  G :  0.001499    pred/act E change: -0.113D-04 -0.913D-05
Maxdispl :   0.0326   ||displ|| :   0.0508   Lambda : -0.107D-04
Largest |displ|/coords:  0.0326 (   1)  0.0193 (   6)  0.0180 (   5)
................................................................................
.............................. CYCLE   62 ......................................
................................................................................
   1    -50.7380629 -0.507381E+02  0.231E-02    7.79       0.0  T
   2    -50.7380629 -0.538796E-07  0.174E-02    7.79       1.1  T
   3    -50.7380630 -0.611576E-07  0.134E-03    7.78      14.7  T
   4    -50.7380630 -0.397089E-08  0.378E-04    7.78      51.9  T
   5    -50.7380630 -0.168264E-09  0.201E-04    7.78      97.4  T
speedup  0.91
cpu  time for SCC    0.00 s
wall time for SCC    0.00 s
speedup  0.94
cpu  time for grad    0.01 s
wall time for grad    0.01 s
 E :    -50.45127737  G :  0.001414    pred/act E change: -0.746D-05 -0.754D-05
Maxdispl :   0.0814   ||displ|| :   0.1093   Lambda : -0.130D-04
Largest |displ|/coords:  0.0814 (   1)  0.0421 (   5)  0.0274 (   6)
................................................................................
.............................. CYCLE   63 ......................................
................................................................................
   1    -50.7379798 -0.507380E+02  0.503E-02    7.78       0.0  T
   2    -50.7379800 -0.240930E-06  0.378E-02    7.78       1.0  T
   3    -50.7379803 -0.266521E-06  0.275E-03    7.78       7.1  T
   4    -50.7379803 -0.194014E-07  0.117E-03    7.78      16.7  T
   5    -50.7379803 -0.126805E-08  0.394E-04    7.78      49.8  T
   6    -50.7379803 -0.202327E-09  0.206E-04    7.78      95.4  T
speedup  0.94
cpu  time for SCC    0.01 s
wall time for SCC    0.01 s
speedup  1.03
cpu  time for grad    0.01 s
wall time for grad    0.01 s
 E :    -50.45128568  G :  0.001735    pred/act E change: -0.535D-05 -0.831D-05
Maxdispl :   0.0738   ||displ|| :   0.0966   Lambda : -0.887D-05
Largest |displ|/coords:  0.0738 (   1)  0.0368 (   5)  0.0259 (   6)
................................................................................
.............................. CYCLE   64 ......................................
................................................................................
   1    -50.7382336 -0.507382E+02  0.371E-02    7.78       0.0  T
   2    -50.7382337 -0.139853E-06  0.277E-02    7.78       1.0  T
   3    -50.7382338 -0.109021E-06  0.251E-03    7.78       7.8  T
   4    -50.7382339 -0.179864E-07  0.871E-04    7.78      22.5  T
   5    -50.7382339 -0.105831E-08  0.294E-04    7.78      66.7  T
speedup  1.11
cpu  time for SCC    0.00 s
wall time for SCC    0.00 s
speedup  1.02
cpu  time for grad    0.01 s
wall time for grad    0.01 s
 E :    -50.45129096  G :  0.001395    pred/act E change: -0.658D-05 -0.528D-05
Maxdispl :   0.0989   ||displ|| :   0.1285   Lambda : -0.676D-05
Largest |displ|/coords:  0.0989 (   1)  0.0482 (   5)  0.0328 (   4)
................................................................................
.............................. CYCLE   65 ......................................
................................................................................
   1    -50.7379111 -0.507379E+02  0.582E-02    7.78       0.0  T
   2    -50.7379115 -0.315423E-06  0.438E-02    7.78       1.0  T
   3    -50.7379117 -0.292861E-06  0.348E-03    7.78       5.6  T
   4    -50.7379118 -0.365688E-07  0.136E-03    7.78      14.4  T
   5    -50.7379118 -0.178597E-08  0.400E-04    7.78      49.1  T
   6    -50.7379118 -0.183391E-09  0.201E-04    7.78      97.7  T
speedup  0.94
cpu  time for SCC    0.00 s
wall time for SCC    0.01 s
speedup  0.96
cpu  time for grad    0.01 s
wall time for grad    0.01 s
 E :    -50.45129332  G :  0.001851    pred/act E change: -0.447D-05 -0.236D-05
Maxdispl :   0.0176   ||displ|| :   0.0298   Lambda : -0.845D-05
Largest |displ|/coords:  0.0176 (   4)  0.0130 (   1)  0.0093 (   9)
................................................................................
.............................. CYCLE   66 ......................................
................................................................................
   1    -50.7385120 -0.507385E+02  0.142E-02    7.78       0.0  T
   2    -50.7385122 -0.120111E-06  0.106E-02    7.78       1.8  T
   3    -50.7385122 -0.748708E-07  0.197E-03    7.78      10.0  T
   4    -50.7385122 -0.167859E-07  0.671E-04    7.78      29.2  T
   5    -50.7385122 -0.625391E-09  0.198E-04    7.78      99.0  T
speedup  0.91
cpu  time for SCC    0.00 s
wall time for SCC    0.00 s
speedup  1.02
cpu  time for grad    0.01 s
wall time for grad    0.01 s
 E :    -50.45129683  G :  0.000967    pred/act E change: -0.343D-05 -0.350D-05
Maxdispl :   0.0235   ||displ|| :   0.0322   Lambda : -0.258D-05
Largest |displ|/coords:  0.0235 (   1)  0.0102 (   2)  0.0101 (   4)
................................................................................
.............................. CYCLE   67 ......................................
................................................................................
   1    -50.7383653 -0.507384E+02  0.150E-02    7.78       0.0  T
   2    -50.7383654 -0.328022E-07  0.113E-02    7.78       1.7  T
   3    -50.7383654 -0.299151E-07  0.115E-03    7.78      17.1  T
   4    -50.7383654 -0.378034E-08  0.451E-04    7.78      43.5  T
   5    -50.7383654 -0.211571E-09  0.117E-04    7.78     168.3  T
speedup  0.91
cpu  time for SCC    0.00 s
wall time for SCC    0.00 s
speedup  0.94
cpu  time for grad    0.01 s
wall time for grad    0.01 s
 E :    -50.45129850  G :  0.000417    pred/act E change: -0.423D-05 -0.167D-05
Maxdispl :   0.0308   ||displ|| :   0.0386   Lambda : -0.146D-05
Largest |displ|/coords:  0.0308 (   1)  0.0123 (   7)  0.0108 (   2)
................................................................................
.............................. CYCLE   68 ......................................
................................................................................
   1    -50.7382362 -0.507382E+02  0.179E-02    7.78       0.0  T
   2    -50.7382362 -0.380548E-07  0.135E-02    7.78       1.5  T
   3    -50.7382363 -0.378277E-07  0.122E-03    7.79      16.1  T
   4    -50.7382363 -0.396202E-08  0.506E-04    7.79      38.8  T
   5    -50.7382363 -0.267782E-09  0.135E-04    7.79     145.6  T
speedup  0.91
cpu  time for SCC    0.00 s
wall time for SCC    0.00 s
speedup  1.02
cpu  time for grad    0.01 s
wall time for grad    0.01 s
 E :    -50.45129943  G :  0.000404    pred/act E change: -0.129D-05 -0.929D-06
Maxdispl :   0.0224   ||displ|| :   0.0277   Lambda : -0.728D-06
Largest |displ|/coords:  0.0224 (   1)  0.0079 (   7)  0.0075 (   2)
................................................................................
.............................. CYCLE   69 ......................................
................................................................................
   1    -50.7381927 -0.507382E+02  0.127E-02    7.79       0.0  T
   2    -50.7381927 -0.178837E-07  0.952E-03    7.79       2.1  T
   3    -50.7381928 -0.189524E-07  0.846E-04    7.79      23.2  T
   4    -50.7381928 -0.160804E-08  0.347E-04    7.79      56.5  T
speedup  1.14
cpu  time for SCC    0.00 s
wall time for SCC    0.00 s
speedup  1.02
cpu  time for grad    0.01 s
wall time for grad    0.01 s
 E :    -50.45129995  G :  0.000329    pred/act E change: -0.729D-06 -0.526D-06
Maxdispl :   0.0128   ||displ|| :   0.0205   Lambda : -0.653D-06
Largest |displ|/coords:  0.0128 (   1)  0.0073 (   7)  0.0073 (   4)
................................................................................
.............................. CYCLE   70 ......................................
................................................................................
   1    -50.7382253 -0.507382E+02  0.106E-02    7.79       0.0  T
   2    -50.7382254 -0.142301E-07  0.795E-03    7.79       2.5  T
   3    -50.7382254 -0.169506E-07  0.698E-04    7.79      28.1  T
   4    -50.7382254 -0.105013E-08  0.269E-04    7.79      73.0  T
speedup  0.86
cpu  time for SCC    0.00 s
wall time for SCC    0.00 s
speedup  1.01
cpu  time for grad    0.01 s
wall time for grad    0.01 s
 E :    -50.45130041  G :  0.000290    pred/act E change: -0.364D-06 -0.455D-06
Maxdispl :   0.0114   ||displ|| :   0.0170   Lambda : -0.361D-06
Largest |displ|/coords:  0.0114 (   1)  0.0061 (   3)  0.0054 (   2)
................................................................................
.............................. CYCLE   71 ......................................
................................................................................
   1    -50.7382343 -0.507382E+02  0.878E-03    7.79       0.0  T
   2    -50.7382343 -0.105217E-07  0.662E-03    7.79       3.0  T
   3    -50.7382343 -0.108548E-07  0.551E-04    7.79      35.6  T
   4    -50.7382343 -0.107491E-08  0.168E-04    7.79     116.7  T
speedup  1.11
cpu  time for SCC    0.00 s
wall time for SCC    0.00 s
speedup  1.07
cpu  time for grad    0.01 s
wall time for grad    0.01 s
 E :    -50.45130066  G :  0.000249    pred/act E change: -0.326D-06 -0.251D-06
Maxdispl :   0.0063   ||displ|| :   0.0101   Lambda : -0.221D-06
Largest |displ|/coords:  0.0063 (   4)  0.0046 (   3)  0.0032 (   8)
................................................................................
.............................. CYCLE   72 ......................................
................................................................................
   1    -50.7382748 -0.507383E+02  0.483E-03    7.79       0.0  T
   2    -50.7382748 -0.444353E-08  0.363E-03    7.79       5.4  T
   3    -50.7382748 -0.375349E-08  0.384E-04    7.79      51.1  T
   4    -50.7382748 -0.586297E-09  0.138E-04    7.79     142.1  T
speedup  0.86
cpu  time for SCC    0.00 s
wall time for SCC    0.00 s
speedup  0.93
cpu  time for grad    0.01 s
wall time for grad    0.01 s
 E :    -50.45130082  G :  0.000236    pred/act E change: -0.181D-06 -0.164D-06
Maxdispl :   0.0045   ||displ|| :   0.0092   Lambda : -0.185D-06
Largest |displ|/coords:  0.0045 (   4)  0.0045 (   3)  0.0031 (   2)
................................................................................
.............................. CYCLE   73 ......................................
................................................................................
   1    -50.7382945 -0.507383E+02  0.437E-03    7.79       0.0  T
   2    -50.7382945 -0.381536E-08  0.327E-03    7.79       6.0  T
   3    -50.7382945 -0.302687E-08  0.415E-04    7.79      47.3  T
   4    -50.7382945 -0.489649E-09  0.154E-04    7.79     127.4  T
speedup  1.11
cpu  time for SCC    0.00 s
wall time for SCC    0.00 s
speedup  1.01
cpu  time for grad    0.01 s
wall time for grad    0.01 s
 E :    -50.45130095  G :  0.000174    pred/act E change: -0.110D-06 -0.129D-06
Maxdispl :   0.0031   ||displ|| :   0.0073   Lambda : -0.115D-06
Largest |displ|/coords:  0.0031 (   4)  0.0028 (   3)  0.0027 (   5)
................................................................................
.............................. CYCLE   74 ......................................
................................................................................
   1    -50.7383071 -0.507383E+02  0.312E-03    7.79       0.0  T
   2    -50.7383071 -0.181390E-08  0.233E-03    7.79       8.4  T
   3    -50.7383071 -0.153626E-08  0.335E-04    7.79      58.5  T
   4    -50.7383071 -0.206867E-09  0.127E-04    7.79     154.3  T
speedup  0.86
cpu  time for SCC    0.00 s
wall time for SCC    0.00 s
speedup  0.92
cpu  time for grad    0.01 s
wall time for grad    0.01 s
 E :    -50.45130103  G :  0.000130    pred/act E change: -0.925D-07 -0.825D-07
Maxdispl :   0.0026   ||displ|| :   0.0051   Lambda : -0.691D-07
Largest |displ|/coords:  0.0026 (   6)  0.0024 (   2)  0.0021 (   3)

   *** GEOMETRY OPTIMIZATION CONVERGED AFTER 74 ITERATIONS ***

------------------------------------------------------------------------
 total energy gain (kcal):     -0.1047
------------------------------------------------------------------------
================
 final structure:
================
$coord
       -0.93328663949424        2.13910027632225       -0.19290625857555      S 
       -1.84226961191502       -0.44641459852552       -0.25825761967846      O 
        1.19341416953393        2.62453472114582       -1.78591864770762      O 
       -0.30352257158102        2.81119684699929        2.55505074955846      O 
       -3.08950445426987        3.91704350471610       -0.89168313138786      O 
       -4.57769584458550        3.72724664390161        0.33150077473822      H 
        1.66164313300962        2.57003946401574        2.75869947070175      H 
        4.29224479789654        1.87456880555262        2.43555105323200      O 
        3.99216357318357        0.01793479448685        2.16980310395001      H 
        4.61702616520023        2.55489775426491        0.77748448666663      H 
        0.33423415367644       -1.26487670125300       -5.10846234937531      O 
       -0.95715210956003       -1.81577273525677       -3.95301909638646      H 
        0.89902162327089        0.33498435034785       -4.42623944400700      H 
        2.72256782815611       -2.59737968288217        1.27146560369864      O 
        1.01806713229448       -2.21510548226713        0.74055515317367      H 
        3.58691339078573       -3.24293665715592       -0.26844904172496      H 
       -4.28006975971733       -0.70184064516577        4.16643492057011      O 
       -3.00203879182285       -0.14048973048837        5.32662603382876      H 
       -3.41303422087392       -1.00638415328708        2.56816544886613      H 
       -6.70927344369293        3.12730273274166        2.15402145225723      O 
       -6.00290461489191        1.71203513950051        3.16450270547793      H 
       -8.14235990685787        2.46320281508826        1.26062611430227      H 
        4.65782295322615       -4.02991828560278       -3.19314916900133      N 
        6.32667266017892       -3.28727496404232       -3.75887584430282      H 
        3.26346011267768       -3.22426425865430       -4.25812528166906      H 
        4.68786021946818       -5.90142995448465       -3.58540118724678      H 
$end
 
 Bond Distances (Angstroems)
 ---------------------------
S1-O2=1.4507         S1-O3=1.4294         S1-O4=1.5337         S1-O5=1.5244         O2-S1=1.4507         O3-S1=1.4294         
O4-S1=1.5337         O4-H7=1.0532         O5-S1=1.5244         O5-H6=1.0243         H6-O5=1.0243         H7-O4=1.0532         
O8-H9=1.0051         O8-H10=0.9638        H9-O8=1.0051         H10-O8=0.9638        O11-H12=0.9622       O11-H13=0.9677       
H12-O11=0.9622       H13-O11=0.9677       O14-H15=0.9661       O14-H16=0.9950       H15-O14=0.9661       H16-O14=0.9950       
O17-H18=0.9605       O17-H19=0.9756       H18-O17=0.9605       H19-O17=0.9756       O20-H21=0.9932       O20-H22=0.9603       
H21-O20=0.9932       H22-O20=0.9603       N23-H24=1.0119       N23-H25=1.0217       N23-H26=1.0120       H24-N23=1.0119       
H25-N23=1.0217       H26-N23=1.0120       
 N  H  Rav=1.0152 sigma=0.0046  Rmin=1.0119  Rmax=1.0217     3
 O  H  Rav=0.9856 sigma=0.0284  Rmin=0.9603  Rmax=1.0532    12
 S  O  Rav=1.4845 sigma=0.0453  Rmin=1.4294  Rmax=1.5337     4
 
 selected bond angles (degree)
 --------------------
O3-S1-O2=114.61                O4-S1-O2=108.26                O4-S1-O3=110.27                O5-S1-O2=109.15                
O5-S1-O3=109.59                O5-S1-O4=104.45                H7-O4-S1=106.47                H6-O5-S1=111.20                
H10-O8-H9=105.42               
 
 selected dihedral angles (degree)
 ---------------------------------
H7-O4-S1-O2= 98.00            H7-O4-S1-O3=331.88            H7-O4-S1-O5=214.22            H6-O5-S1-O2= 59.20            
H6-O5-S1-O3=185.47            H6-O5-S1-O4=303.60            
 
 CMA Distance (Angstroems)
 ---------------------------
R(CMA):  1.6126

========================================================================
 FINAL SINGLEPOINT CALCULATION ON OPTIMIZED GEOMETRY
========================================================================

 Ncao       : 65
 Nao        : 64
 Nshell     : 38
 Nel        : 80
 T(el)      :   300.0
 intcut     :    25.0
 scfconv/Eh :  0.100E-05
   qconv/e  :  0.100E-03
 intneglect :  0.100E-07
 broydamp   :      0.250
 iter      E             dE          RMSdq      gap      omega  full diag
   1    -50.7383071 -0.507383E+02  0.431E-05    7.79       0.0  T
   2    -50.7383071 -0.873968E-12  0.276E-05    7.79     711.1  T
   3    -50.7383071 -0.525802E-12  0.394E-06    7.79    4978.7  T
speedup  0.74
cpu  time for SCC    0.00 s
wall time for SCC    0.00 s

   *** convergence criteria satisfied after 3 iterations ***

          eigenvalues
 #    :          28         29         30         31         32         33         34         35
 occ. :        2.000      2.000      2.000      2.000      2.000      2.000      2.000      2.000
 eps  :       -13.877    -13.693    -13.594    -13.207    -12.989    -12.888    -12.842    -12.731
 #    :          36         37         38         39         40         41         42         43
 occ. :        2.000      2.000      2.000      2.000      2.000      0.000      0.000      0.000
 eps  :       -12.648    -12.510    -11.897    -11.801    -10.930     -3.145     -1.122     -0.593
 #    :          44         45         46         47         48         49         50         51
 occ. :        0.000      0.000      0.000      0.000      0.000      0.000      0.000      0.000
 eps  :         0.354      0.600      0.843      1.784      2.789      3.444      4.167      4.951


   #   Z            q   n(s)   n(p)   n(d)      C6AA      α(0)
   1  16 S      1.765  1.574  1.738  0.923    87.320    15.728
   2   8 O     -0.752  1.772  4.980  0.000    30.157     7.363
   3   8 O     -0.705  1.757  4.948  0.000    28.845     7.201
   4   8 O     -0.652  1.765  4.887  0.000    26.443     6.941
   5   8 O     -0.614  1.754  4.860  0.000    25.509     6.818
   6   1 H      0.398  0.602  0.000  0.000     0.485     1.092
   7   1 H      0.396  0.604  0.000  0.000     0.486     1.091
   8   8 O     -0.595  1.758  4.838  0.000    25.045     6.756
   9   1 H      0.352  0.648  0.000  0.000     0.585     1.202
  10   1 H      0.313  0.687  0.000  0.000     0.682     1.297
  11   8 O     -0.598  1.735  4.863  0.000    25.148     6.768
  12   1 H      0.291  0.709  0.000  0.000     0.748     1.359
  13   1 H      0.301  0.699  0.000  0.000     0.717     1.330
  14   8 O     -0.635  1.753  4.882  0.000    26.041     6.887
  15   1 H      0.294  0.706  0.000  0.000     0.739     1.350
  16   1 H      0.323  0.677  0.000  0.000     0.656     1.272
  17   8 O     -0.600  1.741  4.859  0.000    25.188     6.774
  18   1 H      0.303  0.697  0.000  0.000     0.711     1.325
  19   1 H      0.320  0.680  0.000  0.000     0.664     1.280
  20   8 O     -0.599  1.753  4.845  0.000    25.146     6.768
  21   1 H      0.344  0.656  0.000  0.000     0.603     1.220
  22   1 H      0.305  0.695  0.000  0.000     0.706     1.319
  23   7 N     -0.455  1.373  4.082  0.000    31.971     8.398
  24   1 H      0.151  0.849  0.000  0.000     1.397     1.852
  25   1 H      0.197  0.803  0.000  0.000     1.123     1.660
  26   1 H      0.152  0.848  0.000  0.000     1.388     1.846

 Mol. C6AA /au·bohr⁶  :       5465.565537
 Mol. C8AA /au·bohr⁸  :     117803.644630
 Mol. α(0) /au        :        106.896274

 
 Wiberg/Mayer (AO) data. WBOs > 0.1 written file <wbo>
 largest (>0.05) Wiberg bond orders for each atom
           total WBO             WBO to atom ...
     1  S   4.780    O    3 1.406    O    2 1.293    O    5 1.033    O    4 1.008
     2  O   1.717    S    1 1.293    O    3 0.116    O    5 0.090    O    4 0.088
     3  O   1.755    S    1 1.406    O    2 0.116    O    4 0.093    O    5 0.073
     4  O   1.935    S    1 1.008    H    7 0.615    O    3 0.093    O    2 0.088    O    8 0.063    O    5 0.061
     5  O   1.981    S    1 1.033    H    6 0.664    O    2 0.090    O    3 0.073    O    4 0.061
     6  H   0.841    O    5 0.664    O   20 0.159
     7  H   0.843    O    4 0.615    O    8 0.210
     8  O   1.996    H   10 0.893    H    9 0.772    H    7 0.210    O    4 0.063
     9  H   0.876    O    8 0.772    O   14 0.102
    10  H   0.902    O    8 0.893
    11  O   1.857    H   12 0.903    H   13 0.878
    12  H   0.915    O   11 0.903
    13  H   0.909    O   11 0.878
    14  O   1.890    H   15 0.880    H   16 0.800    H    9 0.102
    15  H   0.913    O   14 0.880
    16  H   0.896    O   14 0.800    N   23 0.093
    17  O   1.901    H   18 0.904    H   19 0.847    H   21 0.085
    18  H   0.908    O   17 0.904
    19  H   0.898    O   17 0.847
    20  O   1.955    H   22 0.904    H   21 0.795    H    6 0.159
    21  H   0.882    O   20 0.795    O   17 0.085
    22  H   0.907    O   20 0.904
    23  N   3.036    H   24 0.975    H   26 0.975    H   25 0.927    H   16 0.093
    24  H   0.977    N   23 0.975
    25  H   0.961    N   23 0.927
    26  H   0.977    N   23 0.975
 MOs/occ written to file <molden.input>
 
molecular dipole:
                 x           y           z       tot (Debye)
 q only:       -0.135      -0.171       0.300
   full:       -0.215      -0.232      -0.167       0.910
molecular quadrupole (traceless):
                xx          xy          yy          xz          yz          zz
 q only:       11.424      -3.202      -3.503      -2.984       3.365      -7.921
  q+dip:       12.741      -3.262      -3.243      -5.642       4.495      -9.498
   full:       13.128      -3.269      -3.582      -5.506       4.576      -9.547

SCC energy    :     -50.7383071
rep           :       0.2868050
ES            :       0.2294757
AES           :      -0.0552240
AXC           :      -0.0076457
disp          :      -0.0189780
XB            :       0.0000000
fix           :       0.0000000
total E       :     -50.4513010
atomizationE  :       4.9816052     3126.00
(atE without considering molecular charge,
 total energy contains solvation terms)
H-L gap (eV)  :          7.7851
optimized geometry written to: xtbopt.xyz


------------------------------------------------------------------------
 * finished run on 2019/09/16 at 11:44:29.474     
------------------------------------------------------------------------
 total:
 * wall-time:     0 d,  0 h,  0 min,  1.730 sec
 *  cpu-time:     0 d,  0 h,  0 min,  1.712 sec
 * ratio c/w:     0.990 speedup
 SCF:
 * wall-time:     0 d,  0 h,  0 min,  0.154 sec
 *  cpu-time:     0 d,  0 h,  0 min,  0.151 sec
 * ratio c/w:     0.982 speedup
 ANC optimizer:
 * wall-time:     0 d,  0 h,  0 min,  1.549 sec
 *  cpu-time:     0 d,  0 h,  0 min,  1.538 sec
 * ratio c/w:     0.992 speedup

