      -----------------------------------------------------------      
     |                   =====================                   |     
     |                           x T B                           |     
     |                   =====================                   |     
     |                         S. Grimme                         |     
     |          Mulliken Center for Theoretical Chemistry        |     
     |                    University of Bonn                     |     
     |                 Version 6.0.1 (SAW181210)                 |     
      -----------------------------------------------------------      

   This program is distributed in the hope that it will be useful,
   but WITHOUT ANY WARRANTY; without even the implied warranty of
   MERCHANTABILITY or FITNESS FOR A PARTICULAR PURPOSE.
   
   FOR NON-COMMERCIAL, ACADEMIA USE ONLY.
   
   Cite this work as:
   S. Grimme, C. Bannwarth, P. Shushkov, J. Comput. Theory Chem., 2017,
   13, 1989-2009.
   C. Bannwarth, S. Ehlert and S. Grimme., ChemRxiv, 2018, preprint.
   http://doi.org/10.26434/chemrxiv.7246238.v1
   
   for sTDA-xTB:
   S. Grimme and C. Bannwarth, J. Chem. Phys., 2016, 145, 054103.
   
   in the mass-spec context:
   V. Asgeirsson, C. Bauer and S. Grimme, Chem. Sci., 2017, 8, 4879.
   
   if GBSA is used:
   P. Shushkov, F. März and S. Grimme, unpublished.
   
   for ANC optimizer:
   S. Grimme, unpublished.
   Rational Function algorithm used in ANCopt:
   F. Eckert, P. Pulay, H.-J. Werner, J. Comput. Chem., 1997, 18, 1473.
   
   with help from (in alphabetical order)
   C. Bannwarth, F. Bohle, G. Brandenburg, E. Caldeweyher, M. Checinski,
   S. Dohm, S. Ehlert, S. Ehrlich, F. März, H. Neugebauer, J. Pisarek,
   P. Pracht, P. Shushkov, and S. Spicher.
   
 * started run on 2019/09/16 at 11:36:22.103     
========================================================================
 # omp threads = 1
========================================================================
number of atoms            : 26
number of electrons        : 80
charge                     : 0
spin                       : .0
first test random number   : .2576

########################################################################
# WARNING! Please study the warnings concerning your input carefully
#  - XTBPATH is not set, using XTBHOME instead
#  - the use of '-opt' is discouraged, please use '--opt' next time
#  - the use of '-chrg' is discouraged, please use '--chrg' next time
#  - the use of '-uhf' is discouraged, please use '--uhf' next time
########################################################################

           ------------------------------------------------- 
          |                 G F N 2 - x T B                 |
          | Geometry, Frequencies, Noncovalent interactions |
          |            JCTC 2018 parametrisation            |
           ------------------------------------------------- 
      method parameters     
 k(s)        :  1.8500
 k(p)        :  2.2300
 k(d)        :  2.2300
 k(f)        :  2.0000
 kEN (H0ij)  : -2.0000
 D4 a1       :  0.5200
 D4 a2       :  5.0000
 D4 s6       :  1.0000
 D4 s8       :  2.7000
 D4 s9       :  5.0000
 alphaj      :  2.0000


            Z     q(EN)     CN     RAES       Cart. coordinates
     1  S   6.0    0.61    4.51    4.57    -2.52473     2.33503    -2.45297
     2  O   6.0   -0.31    1.19    1.80    -2.46638    -0.48003    -2.46470
     3  O   6.0   -0.31    1.18    1.80     0.09154     3.32931    -2.76063
     4  O   6.0   -0.27    2.13    1.84    -3.57745     3.22909    -0.04363
     5  O   6.0   -0.25    2.08    1.84    -4.11000     3.23682    -4.54729
     6  H   1.0    0.14    1.22    1.47    -5.48836     4.21372    -3.88633
     7  H   1.0    0.18    1.39    1.53    -2.54244     2.64043     1.32506
     8  O   6.0   -0.39    1.69    1.81    -0.65729     1.62256     3.18031
     9  H   1.0    0.17    0.95    1.42    -0.47768     2.70530     4.69000
    10  O   6.0   -0.29    2.03    1.83    -3.33449    -2.07399     4.22862
    11  H   1.0    0.14    0.97    1.43    -3.61397    -1.91627     6.02073
    12  H   1.0    0.18    1.13    1.45    -2.28669    -0.65494     3.77804
    13  O   6.0   -0.30    2.06    1.83     2.53205    -4.81512     0.09620
    14  H   1.0    0.16    1.05    1.44     0.72192    -5.00591     0.05543
    15  H   1.0    0.15    0.97    1.43     3.19846    -6.44373    -0.37085
    16  O   6.0   -0.29    2.05    1.83    -2.43063    -4.82986     0.09218
    17  H   1.0    0.17    1.03    1.43    -2.99169    -4.15055     1.68541
    18  H   1.0    0.18    1.04    1.43    -2.58776    -3.46045    -1.09720
    19  O   6.0   -0.23    2.92    2.58     3.14372    -0.11730     1.40595
    20  H   1.0    0.17    1.22    1.47     1.60547     0.61435     2.17297
    21  H   1.0    0.14    1.06    1.44     2.90842    -1.91081     0.93908
    22  H   1.0    0.13    1.06    1.44     3.76167     0.90374    -0.03179
    23  N   5.0   -0.22    3.04    1.93     5.31665     2.42519    -2.54923
    24  H   1.0    0.10    0.99    1.43     6.35376     4.04001    -2.38245
    25  H   1.0    0.13    1.03    1.43     3.51585     2.99657    -2.92569
    26  H   1.0    0.11    0.99    1.43     5.94006     1.56683    -4.15723

  Z AO/shell   Hii/eV     exponent
  1     Wed Apr 25 08:07:45 CEST 2018   EN: 2.200 GM2: 0.406  GM3: 0.0800  RAES: 1.40
     1s    -10.707211    1.230000
  7     Wed Apr 25 08:07:45 CEST 2018   EN: 3.040 GM2: 0.461  GM3:-0.0640  RAES: 1.90
     2s    -16.686243    2.339881
     2p    -12.523956    2.014332
  8     Wed Apr 25 08:07:45 CEST 2018   EN: 3.440 GM2: 0.452  GM3:-0.0517  RAES: 1.80
     2s    -20.229985    2.439742
     2p    -15.503117    2.137023
 16     Tue Apr 24 11:44:34 CEST 2018   EN: 2.580 GM2: 0.340  GM3:-0.0502  RAES: 3.10
     3s    -20.029654    1.981333
     3p    -11.377694    2.025643
     3d     -0.420282    1.702555
 no old-style atom pair restraining (fixing) potential

molecular fragmentation (1/2 indicates fragments):
11111112222222222222222222
# atoms in fragment 1/2:     7    19
 fragment masses (1/2) :       98.07      107.11
CMA distance (Bohr)    :   6.049
constraining FC (au)   :  0.0500
           ------------------------------------------------- 
          |        Self-Consistent Charge Iterations        |
           ------------------------------------------------- 

 Ncao       : 65
 Nao        : 64
 Nshell     : 38
 Nel        : 80
 T(el)      :   300.0
 intcut     :    25.0
 scfconv/Eh :  0.100E-05
   qconv/e  :  0.100E-03
 intneglect :  0.100E-07
 broydamp   :      0.250
 iter      E             dE          RMSdq      gap      omega  full diag
   1    -50.5743524 -0.505744E+02  0.708E+00   10.17       0.0  T
   2    -50.6338526 -0.595002E-01  0.512E+00    9.39       1.0  T
   3    -50.6730500 -0.391974E-01  0.148E+00    7.11       1.0  T
   4    -50.6800159 -0.696590E-02  0.614E-01    7.30       1.0  T
   5    -50.6805951 -0.579257E-03  0.383E-01    7.23       1.0  T
   6    -50.6813568 -0.761647E-03  0.164E-01    7.32       1.0  T
   7    -50.6815314 -0.174609E-03  0.584E-02    7.33       1.0  T
   8    -50.6815483 -0.168631E-04  0.369E-02    7.33       1.0  T
   9    -50.6815571 -0.883307E-05  0.135E-02    7.34       1.5  T
  10    -50.6815583 -0.124928E-05  0.242E-03    7.34       8.1  T
  11    -50.6815583 -0.149251E-07  0.130E-03    7.34      15.1  T
  12    -50.6815584 -0.684074E-08  0.439E-04    7.34      44.7  T
  13    -50.6815584 -0.874167E-09  0.171E-04    7.34     115.0  T
speedup  0.99
cpu  time for SCC    0.01 s
wall time for SCC    0.02 s

   *** convergence criteria satisfied after 13 iterations ***

          eigenvalues
 #    :          28         29         30         31         32         33         34         35
 occ. :        2.000      2.000      2.000      2.000      2.000      2.000      2.000      2.000
 eps  :       -12.701    -12.523    -12.357    -12.201    -12.152    -11.819    -11.696    -11.522
 #    :          36         37         38         39         40         41         42         43
 occ. :        2.000      2.000      2.000      2.000      2.000      0.000      0.000      0.000
 eps  :       -11.050    -10.889    -10.728    -10.435     -9.963     -2.619     -1.371     -0.153
 #    :          44         45         46         47         48         49         50         51
 occ. :        0.000      0.000      0.000      0.000      0.000      0.000      0.000      0.000
 eps  :        -0.039      0.608      1.810      2.563      3.335      3.996      5.173      5.283


   #   Z            q   n(s)   n(p)   n(d)      C6AA      α(0)
   1  16 S      1.697  1.574  1.781  0.947    88.834    15.863
   2   8 O     -0.712  1.770  4.941  0.000    29.033     7.224
   3   8 O     -0.724  1.768  4.956  0.000    29.367     7.266
   4   8 O     -0.602  1.722  4.879  0.000    25.195     6.776
   5   8 O     -0.539  1.719  4.820  0.000    23.735     6.577
   6   1 H      0.377  0.623  0.000  0.000     0.522     1.131
   7   1 H      0.416  0.584  0.000  0.000     0.448     1.046
   8   8 O     -0.861  1.843  5.018  0.000    33.437     7.755
   9   1 H      0.220  0.780  0.000  0.000     1.023     1.589
  10   8 O     -0.651  1.754  4.898  0.000    26.450     6.941
  11   1 H      0.262  0.738  0.000  0.000     0.847     1.446
  12   1 H      0.329  0.671  0.000  0.000     0.637     1.252
  13   8 O     -0.629  1.730  4.899  0.000    25.881     6.866
  14   1 H      0.341  0.659  0.000  0.000     0.611     1.227
  15   1 H      0.285  0.715  0.000  0.000     0.768     1.376
  16   8 O     -0.633  1.745  4.887  0.000    25.980     6.879
  17   1 H      0.327  0.673  0.000  0.000     0.645     1.262
  18   1 H      0.318  0.682  0.000  0.000     0.669     1.285
  19   8 O     -0.459  1.656  4.803  0.000    21.962     6.329
  20   1 H      0.403  0.597  0.000  0.000     0.472     1.075
  21   1 H      0.407  0.593  0.000  0.000     0.472     1.080
  22   1 H      0.381  0.619  0.000  0.000     0.520     1.133
  23   7 N     -0.459  1.383  4.076  0.000    32.095     8.414
  24   1 H      0.150  0.850  0.000  0.000     1.403     1.855
  25   1 H      0.203  0.797  0.000  0.000     1.093     1.638
  26   1 H      0.152  0.848  0.000  0.000     1.389     1.846

 Mol. C6AA /au·bohr⁶  :       5497.775308
 Mol. C8AA /au·bohr⁸  :     118721.553771
 Mol. α(0) /au        :        107.131267

 
 Wiberg/Mayer (AO) data. WBOs > 0.1 written file <wbo>
 largest (>0.05) Wiberg bond orders for each atom
           total WBO             WBO to atom ...
     1  S   4.827    O    2 1.350    O    3 1.340    O    4 1.076    O    5 1.015
     2  O   1.702    S    1 1.350    O    3 0.134    O    4 0.094    O    5 0.072
     3  O   1.690    S    1 1.340    O    2 0.134    O    4 0.092    O    5 0.072
     4  O   2.004    S    1 1.076    H    7 0.637    O    2 0.094    O    3 0.092
     5  O   2.054    S    1 1.015    H    6 0.834    O    2 0.072    O    3 0.072
     6  H   0.858    O    5 0.834
     7  H   0.827    O    4 0.637    O    8 0.170
     8  O   1.610    H    9 0.944    H   20 0.200    H    7 0.170    H   12 0.116    O   19 0.062
     9  H   0.952    O    8 0.944
    10  O   1.803    H   11 0.921    H   12 0.774
    11  H   0.931    O   10 0.921
    12  H   0.892    O   10 0.774    O    8 0.116
    13  O   1.850    H   15 0.904    H   14 0.805    H   21 0.078
    14  H   0.884    O   13 0.805    O   16 0.078
    15  H   0.919    O   13 0.904
    16  O   1.875    H   18 0.863    H   17 0.851    H   14 0.078
    17  H   0.893    O   16 0.851
    18  H   0.899    O   16 0.863
    19  O   2.283    H   22 0.762    H   21 0.748    H   20 0.633    O    8 0.062
    20  H   0.837    O   19 0.633    O    8 0.200
    21  H   0.835    O   19 0.748    O   13 0.078
    22  H   0.854    O   19 0.762    N   23 0.083
    23  N   3.010    H   24 0.974    H   26 0.973    H   25 0.923    H   22 0.083
    24  H   0.978    N   23 0.974
    25  H   0.959    N   23 0.923
    26  H   0.977    N   23 0.973
 MOs/occ written to file <molden.input>
 
molecular dipole:
                 x           y           z       tot (Debye)
 q only:        0.829       1.013      -0.299
   full:        0.168       1.844      -0.392       4.810
molecular quadrupole (traceless):
                xx          xy          yy          xz          yz          zz
 q only:        7.960     -13.362      -2.862       3.403      -2.705      -5.098
  q+dip:        5.864     -16.306      -2.833       0.512      -3.780      -3.031
   full:        5.701     -16.665      -3.097       0.439      -3.478      -2.603

SCC energy    :     -50.6815584
rep           :       0.3025493
ES            :       0.2728909
AES           :      -0.0625141
AXC           :      -0.0060192
disp          :      -0.0176034
XB            :       0.0000000
fix           :       0.0000000
total E       :     -50.3786671
atomizationE  :       4.9089712     3080.43
(atE without considering molecular charge,
 total energy contains solvation terms)
H-L gap (eV)  :          7.3432
           ------------------------------------------------- 
          |                 ===============                 |
          |                   A N C O P T                   |
          |                 ===============                 |
          |          Approximate Normal Coordinate          |
          |           Rational Function Optimizer           |
           ------------------------------------------------- 
dumping coords to <xtbopt.coord> and <xtbopt.log>
 optlevel               2
 Maxcycle             520
 Maxmicro              25
 Econv         1.000000000000000E-007
 Gconv         2.000000000000000E-004
 Maxdispl       1.00000000000000     
 Hlow          5.000000000000000E-003
 S6             20.0000000000000     
 Nvar               72

generating ANC from model Hessian ...
 Shifting diagonal of input Hessian by   5.109524457063715E-003
 Lowest  eigenvalues of input Hessian
    0.005000   -0.000000   -0.000000   -0.000000   -0.000000    0.000000
    0.000000    0.005136    0.005283    0.005502    0.005641    0.006024
    0.006182    0.006411    0.006785    0.007679    0.008508    0.008753
 Highest eigenvalues
    1.560345    1.571491    1.594565    3.213573    3.409493    3.462795
 
cpu  time for ANC gen    0.01 s
wall time for ANC gen    0.01 s
................................................................................
.............................. CYCLE    1 ......................................
................................................................................
   1    -50.6815584 -0.506816E+02  0.679E-05    7.34       0.0  T
   2    -50.6815584 -0.128964E-10  0.535E-05    7.34     366.3  T
   3    -50.6815584 -0.946443E-11  0.318E-05    7.34     616.8  T
speedup  1.03
cpu  time for SCC    0.00 s
wall time for SCC    0.00 s
speedup  0.99
cpu  time for grad    0.01 s
wall time for grad    0.01 s
 E :    -50.37866703  G :  0.240164    pred/act E change:  0.000D+00  0.409D-07
Maxdispl :   0.1184   ||displ|| :   0.2415   Lambda : -0.302D-01
Largest |displ|/coords:  0.1184 (  23)  0.0690 (  43)  0.0632 (  54)
................................................................................
.............................. CYCLE    2 ......................................
................................................................................
   1    -50.6894978 -0.506895E+02  0.246E-01    7.64       0.0  T
   2    -50.6897891 -0.291354E-03  0.194E-01    7.74       1.0  T
   3    -50.6898986 -0.109415E-03  0.115E-01    7.86       1.0  T
   4    -50.6899079 -0.933827E-05  0.295E-02    7.92       1.0  T
   5    -50.6899087 -0.811689E-06  0.546E-03    7.91       3.6  T
   6    -50.6899088 -0.512082E-07  0.306E-03    7.91       6.4  T
speedup  1.13
cpu  time for SCC    0.01 s
wall time for SCC    0.01 s
speedup  1.00
cpu  time for grad    0.01 s
wall time for grad    0.01 s
 E :    -50.40234187  G :  0.151480    pred/act E change:  0.000D+00 -0.237D-01
Maxdispl :   0.1778   ||displ|| :   0.2853   Lambda : -0.154D-01
Largest |displ|/coords:  0.1778 (  23)  0.0993 (  18)  0.0571 (  24)
................................................................................
.............................. CYCLE    3 ......................................
................................................................................
   1    -50.6971338 -0.506971E+02  0.236E-01    8.07       0.0  T
   2    -50.6974557 -0.321937E-03  0.183E-01    8.17       1.0  T
   3    -50.6975633 -0.107566E-03  0.115E-01    8.29       1.0  T
   4    -50.6975709 -0.760803E-05  0.271E-02    8.35       1.0  T
   5    -50.6975717 -0.811496E-06  0.524E-03    8.34       3.7  T
   6    -50.6975718 -0.407380E-07  0.278E-03    8.34       7.1  T
speedup  0.94
cpu  time for SCC    0.00 s
wall time for SCC    0.01 s
speedup  1.01
cpu  time for grad    0.01 s
wall time for grad    0.01 s
 E :    -50.41477674  G :  0.090193    pred/act E change: -0.160D-01 -0.124D-01
Maxdispl :   0.1791   ||displ|| :   0.3091   Lambda : -0.856D-02
Largest |displ|/coords:  0.1791 (  23)  0.1034 (   8)  0.0994 (  18)
................................................................................
.............................. CYCLE    4 ......................................
................................................................................
   1    -50.7013070 -0.507013E+02  0.225E-01    8.39       0.0  T
   2    -50.7015683 -0.261284E-03  0.172E-01    8.47       1.0  T
   3    -50.7016599 -0.916568E-04  0.990E-02    8.53       1.0  T
   4    -50.7016652 -0.522962E-05  0.250E-02    8.55       1.0  T
   5    -50.7016660 -0.820540E-06  0.513E-03    8.55       3.8  T
   6    -50.7016660 -0.396295E-07  0.266E-03    8.55       7.4  T
speedup  1.11
cpu  time for SCC    0.01 s
wall time for SCC    0.01 s
speedup  1.00
cpu  time for grad    0.01 s
wall time for grad    0.01 s
 E :    -50.42153206  G :  0.048453    pred/act E change: -0.832D-02 -0.676D-02
Maxdispl :   0.2388   ||displ|| :   0.4477   Lambda : -0.725D-02
Largest |displ|/coords:  0.2388 (  23)  0.1622 (   8)  0.1273 (  18)
................................................................................
.............................. CYCLE    5 ......................................
................................................................................
   1    -50.7012372 -0.507012E+02  0.338E-01    8.28       0.0  T
   2    -50.7016939 -0.456632E-03  0.254E-01    8.33       1.0  T
   3    -50.7018597 -0.165815E-03  0.120E-01    8.40       1.0  T
   4    -50.7018731 -0.134682E-04  0.350E-02    8.42       1.0  T
   5    -50.7018751 -0.192389E-05  0.750E-03    8.42       2.6  T
   6    -50.7018752 -0.101949E-06  0.409E-03    8.42       4.8  T
   7    -50.7018752 -0.277453E-07  0.129E-03    8.42      15.2  T
speedup  0.98
cpu  time for SCC    0.01 s
wall time for SCC    0.01 s
speedup  0.94
cpu  time for grad    0.01 s
wall time for grad    0.01 s
 E :    -50.42607190  G :  0.029671    pred/act E change: -0.469D-02 -0.454D-02
Maxdispl :   0.2689   ||displ|| :   0.4783   Lambda : -0.312D-02
Largest |displ|/coords:  0.2689 (   8)  0.2020 (  12)  0.1585 (  13)
................................................................................
.............................. CYCLE    6 ......................................
................................................................................
   1    -50.6962448 -0.506962E+02  0.471E-01    8.27       0.0  T
   2    -50.6964048 -0.159952E-03  0.356E-01    8.30       1.0  T
   3    -50.6964683 -0.635239E-04  0.675E-02    8.36       1.0  T
   4    -50.6964961 -0.277922E-04  0.253E-02    8.35       1.0  T
   5    -50.6964975 -0.139796E-05  0.563E-03    8.35       3.5  T
   6    -50.6964975 -0.375650E-07  0.340E-03    8.35       5.8  T
speedup  0.94
cpu  time for SCC    0.00 s
wall time for SCC    0.01 s
speedup  1.00
cpu  time for grad    0.01 s
wall time for grad    0.01 s
 E :    -50.42682684  G :  0.038098    pred/act E change: -0.435D-02 -0.755D-03
Maxdispl :   0.1618   ||displ|| :   0.3367   Lambda : -0.306D-02
Largest |displ|/coords:  0.1618 (  15)  0.1378 (   5)  0.1073 (   8)
................................................................................
.............................. CYCLE    7 ......................................
................................................................................
   1    -50.6997671 -0.506998E+02  0.363E-01    8.20       0.0  T
   2    -50.6998149 -0.477938E-04  0.276E-01    8.21       1.0  T
   3    -50.6998483 -0.333202E-04  0.359E-02    8.24       1.0  T
   4    -50.6998560 -0.771741E-05  0.100E-02    8.23       2.0  T
   5    -50.6998562 -0.228380E-06  0.403E-03    8.23       4.9  T
   6    -50.6998562 -0.118297E-07  0.229E-03    8.23       8.6  T
speedup  1.11
cpu  time for SCC    0.01 s
wall time for SCC    0.01 s
speedup  1.00
cpu  time for grad    0.01 s
wall time for grad    0.01 s
 E :    -50.42843940  G :  0.030728    pred/act E change: -0.192D-02 -0.161D-02
Maxdispl :   0.1776   ||displ|| :   0.2944   Lambda : -0.163D-02
Largest |displ|/coords:  0.1776 (   6)  0.0963 (   1)  0.0863 (   3)
................................................................................
.............................. CYCLE    8 ......................................
................................................................................
   1    -50.7035989 -0.507036E+02  0.263E-01    8.33       0.0  T
   2    -50.7036236 -0.246828E-04  0.200E-01    8.33       1.0  T
   3    -50.7036366 -0.129638E-04  0.277E-02    8.32       1.0  T
   4    -50.7036411 -0.453438E-05  0.117E-02    8.32       1.7  T
   5    -50.7036414 -0.255570E-06  0.291E-03    8.32       6.7  T
   6    -50.7036414 -0.796665E-08  0.152E-03    8.32      12.9  T
speedup  0.94
cpu  time for SCC    0.00 s
wall time for SCC    0.01 s
speedup  1.01
cpu  time for grad    0.01 s
wall time for grad    0.01 s
 E :    -50.42909859  G :  0.020453    pred/act E change: -0.170D-02 -0.659D-03
Maxdispl :   0.1902   ||displ|| :   0.3928   Lambda : -0.228D-02
Largest |displ|/coords:  0.1902 (   5)  0.1725 (   2)  0.1088 (  13)
................................................................................
.............................. CYCLE    9 ......................................
................................................................................
   1    -50.7025437 -0.507025E+02  0.399E-01    8.52       0.0  T
   2    -50.7026147 -0.710532E-04  0.305E-01    8.53       1.0  T
   3    -50.7026588 -0.441109E-04  0.505E-02    8.55       1.0  T
   4    -50.7026702 -0.113920E-04  0.193E-02    8.56       1.0  T
   5    -50.7026709 -0.706954E-06  0.437E-03    8.55       4.5  T
   6    -50.7026709 -0.201409E-07  0.248E-03    8.55       7.9  T
speedup  0.94
cpu  time for SCC    0.00 s
wall time for SCC    0.01 s
speedup  1.01
cpu  time for grad    0.01 s
wall time for grad    0.01 s
 E :    -50.43022250  G :  0.028142    pred/act E change: -0.885D-03 -0.112D-02
Maxdispl :   0.1423   ||displ|| :   0.3773   Lambda : -0.214D-02
Largest |displ|/coords:  0.1423 (  23)  0.1360 (   8)  0.1157 (  20)
................................................................................
.............................. CYCLE   10 ......................................
................................................................................
   1    -50.7062007 -0.507062E+02  0.256E-01    8.63       0.0  T
   2    -50.7063161 -0.115431E-03  0.189E-01    8.65       1.0  T
   3    -50.7063732 -0.570750E-04  0.581E-02    8.69       1.0  T
   4    -50.7063840 -0.108058E-04  0.201E-02    8.69       1.0  T
   5    -50.7063850 -0.991667E-06  0.568E-03    8.69       3.5  T
   6    -50.7063850 -0.451980E-07  0.335E-03    8.69       5.9  T
speedup  0.96
cpu  time for SCC    0.01 s
wall time for SCC    0.01 s
speedup  1.02
cpu  time for grad    0.01 s
wall time for grad    0.01 s
 E :    -50.43135623  G :  0.031243    pred/act E change: -0.131D-02 -0.113D-02
Maxdispl :   0.1414   ||displ|| :   0.3702   Lambda : -0.212D-02
Largest |displ|/coords:  0.1414 (   8)  0.1396 (   2)  0.1081 (   4)
................................................................................
.............................. CYCLE   11 ......................................
................................................................................
   1    -50.7101240 -0.507101E+02  0.247E-01    8.80       0.0  T
   2    -50.7101936 -0.696107E-04  0.187E-01    8.83       1.0  T
   3    -50.7102299 -0.363248E-04  0.486E-02    8.89       1.0  T
   4    -50.7102388 -0.892435E-05  0.224E-02    8.89       1.0  T
   5    -50.7102395 -0.698188E-06  0.432E-03    8.89       4.5  T
   6    -50.7102396 -0.216323E-07  0.259E-03    8.89       7.6  T
speedup  0.96
cpu  time for SCC    0.00 s
wall time for SCC    0.01 s
speedup  1.02
cpu  time for grad    0.01 s
wall time for grad    0.01 s
 E :    -50.43261787  G :  0.036953    pred/act E change: -0.122D-02 -0.126D-02
Maxdispl :   0.1929   ||displ|| :   0.4345   Lambda : -0.315D-02
Largest |displ|/coords:  0.1929 (  13)  0.1519 (   1)  0.1212 (  23)
................................................................................
.............................. CYCLE   12 ......................................
................................................................................
   1    -50.7191804 -0.507192E+02  0.315E-01    9.15       0.0  T
   2    -50.7192784 -0.980148E-04  0.238E-01    9.18       1.0  T
   3    -50.7193370 -0.585881E-04  0.612E-02    9.25       1.0  T
   4    -50.7193496 -0.126419E-04  0.287E-02    9.25       1.0  T
   5    -50.7193505 -0.907631E-06  0.532E-03    9.25       3.7  T
   6    -50.7193506 -0.340169E-07  0.321E-03    9.25       6.1  T
speedup  1.11
cpu  time for SCC    0.01 s
wall time for SCC    0.01 s
speedup  0.99
cpu  time for grad    0.01 s
wall time for grad    0.01 s
 E :    -50.43446765  G :  0.044136    pred/act E change: -0.121D-02 -0.185D-02
Maxdispl :   0.1766   ||displ|| :   0.5140   Lambda : -0.537D-02
Largest |displ|/coords:  0.1766 (   5)  0.1574 (   4)  0.1413 (  20)
................................................................................
.............................. CYCLE   13 ......................................
................................................................................
   1    -50.7147572 -0.507148E+02  0.450E-01    9.54       0.0  T
   2    -50.7148700 -0.112809E-03  0.338E-01    9.55       1.0  T
   3    -50.7149550 -0.849987E-04  0.671E-02    9.53       1.0  T
   4    -50.7149686 -0.135993E-04  0.240E-02    9.53       1.0  T
   5    -50.7149693 -0.668688E-06  0.649E-03    9.53       3.0  T
   6    -50.7149693 -0.582330E-07  0.406E-03    9.53       4.8  T
   7    -50.7149693 -0.235668E-07  0.895E-04    9.53      21.9  T
speedup  0.97
cpu  time for SCC    0.01 s
wall time for SCC    0.01 s
speedup  1.00
cpu  time for grad    0.01 s
wall time for grad    0.01 s
 E :    -50.43713924  G :  0.046642    pred/act E change: -0.187D-02 -0.267D-02
Maxdispl :   0.1848   ||displ|| :   0.4598   Lambda : -0.530D-02
Largest |displ|/coords:  0.1848 (   7)  0.1770 (   3)  0.1369 (  14)
................................................................................
.............................. CYCLE   14 ......................................
................................................................................
   1    -50.7270140 -0.507270E+02  0.360E-01    9.52       0.0  T
   2    -50.7271018 -0.878408E-04  0.269E-01    9.52       1.0  T
   3    -50.7271792 -0.773933E-04  0.602E-02    9.52       1.0  T
   4    -50.7271881 -0.887798E-05  0.190E-02    9.52       1.0  T
   5    -50.7271886 -0.527077E-06  0.655E-03    9.52       3.0  T
   6    -50.7271887 -0.476309E-07  0.341E-03    9.52       5.7  T
   7    -50.7271887 -0.166041E-07  0.886E-04    9.52      22.1  T
speedup  1.09
cpu  time for SCC    0.01 s
wall time for SCC    0.01 s
speedup  1.00
cpu  time for grad    0.01 s
wall time for grad    0.01 s
 E :    -50.43849181  G :  0.051391    pred/act E change: -0.339D-02 -0.135D-02
Maxdispl :   0.1552   ||displ|| :   0.3861   Lambda : -0.620D-02
Largest |displ|/coords:  0.1552 (  13)  0.1330 (   4)  0.1004 (   7)
................................................................................
.............................. CYCLE   15 ......................................
................................................................................
   1    -50.7129465 -0.507129E+02  0.347E-01    9.06       0.0  T
   2    -50.7130995 -0.152931E-03  0.259E-01    9.08       1.0  T
   3    -50.7131830 -0.835762E-04  0.623E-02    9.10       1.0  T
   4    -50.7132019 -0.189132E-04  0.226E-02    9.10       1.0  T
   5    -50.7132027 -0.756955E-06  0.713E-03    9.10       2.8  T
   6    -50.7132028 -0.729523E-07  0.353E-03    9.10       5.6  T
   7    -50.7132028 -0.181501E-07  0.101E-03    9.10      19.4  T
speedup  1.13
cpu  time for SCC    0.01 s
wall time for SCC    0.01 s
speedup  1.01
cpu  time for grad    0.01 s
wall time for grad    0.01 s
 E :    -50.43882922  G :  0.047423    pred/act E change: -0.321D-02 -0.337D-03
Maxdispl :   0.1170   ||displ|| :   0.3243   Lambda : -0.482D-02
Largest |displ|/coords:  0.1170 (   7)  0.1009 (  13)  0.0949 (  18)
................................................................................
.............................. CYCLE   16 ......................................
................................................................................
   1    -50.7127191 -0.507127E+02  0.260E-01    9.03       0.0  T
   2    -50.7127956 -0.765903E-04  0.192E-01    9.03       1.0  T
   3    -50.7128372 -0.415559E-04  0.468E-02    9.04       1.0  T
   4    -50.7128461 -0.886054E-05  0.137E-02    9.04       1.4  T
   5    -50.7128464 -0.359241E-06  0.500E-03    9.04       3.9  T
   6    -50.7128465 -0.353518E-07  0.244E-03    9.04       8.0  T
speedup  0.96
cpu  time for SCC    0.00 s
wall time for SCC    0.01 s
speedup  0.94
cpu  time for grad    0.01 s
wall time for grad    0.01 s
 E :    -50.44028261  G :  0.029522    pred/act E change: -0.356D-02 -0.145D-02
Maxdispl :   0.1645   ||displ|| :   0.4427   Lambda : -0.446D-02
Largest |displ|/coords:  0.1645 (  14)  0.1483 (  18)  0.1295 (   6)
................................................................................
.............................. CYCLE   17 ......................................
................................................................................
   1    -50.7283132 -0.507283E+02  0.385E-01    9.47       0.0  T
   2    -50.7284679 -0.154729E-03  0.287E-01    9.46       1.0  T
   3    -50.7285521 -0.841983E-04  0.729E-02    9.44       1.0  T
   4    -50.7285715 -0.194062E-04  0.277E-02    9.45       1.0  T
   5    -50.7285726 -0.106774E-05  0.676E-03    9.45       2.9  T
   6    -50.7285726 -0.569888E-07  0.368E-03    9.45       5.3  T
   7    -50.7285726 -0.211447E-07  0.118E-03    9.45      16.6  T
speedup  0.98
cpu  time for SCC    0.01 s
wall time for SCC    0.01 s
speedup  0.96
cpu  time for grad    0.01 s
wall time for grad    0.01 s
 E :    -50.44074694  G :  0.050485    pred/act E change: -0.266D-02 -0.464D-03
Maxdispl :   0.1422   ||displ|| :   0.3281   Lambda : -0.576D-02
Largest |displ|/coords:  0.1422 (   9)  0.1347 (   6)  0.1023 (   7)
................................................................................
.............................. CYCLE   18 ......................................
................................................................................
   1    -50.7165644 -0.507166E+02  0.320E-01    8.95       0.0  T
   2    -50.7166513 -0.869199E-04  0.240E-01    8.96       1.0  T
   3    -50.7167096 -0.582251E-04  0.511E-02    8.99       1.0  T
   4    -50.7167190 -0.944092E-05  0.225E-02    8.98       1.0  T
   5    -50.7167198 -0.822577E-06  0.569E-03    8.98       3.4  T
   6    -50.7167199 -0.549401E-07  0.311E-03    8.98       6.3  T
speedup  0.96
cpu  time for SCC    0.00 s
wall time for SCC    0.01 s
speedup  1.02
cpu  time for grad    0.01 s
wall time for grad    0.01 s
 E :    -50.44119244  G :  0.037776    pred/act E change: -0.266D-02 -0.446D-03
Maxdispl :   0.1281   ||displ|| :   0.2934   Lambda : -0.387D-02
Largest |displ|/coords:  0.1281 (   8)  0.0919 (   4)  0.0914 (   9)
................................................................................
.............................. CYCLE   19 ......................................
................................................................................
   1    -50.7116965 -0.507117E+02  0.216E-01    8.97       0.0  T
   2    -50.7117919 -0.954077E-04  0.159E-01    8.97       1.0  T
   3    -50.7118385 -0.466168E-04  0.503E-02    8.98       1.0  T
   4    -50.7118482 -0.962421E-05  0.144E-02    8.98       1.4  T
   5    -50.7118485 -0.372331E-06  0.531E-03    8.98       3.7  T
   6    -50.7118486 -0.358153E-07  0.238E-03    8.98       8.2  T
speedup  0.94
cpu  time for SCC    0.00 s
wall time for SCC    0.01 s
speedup  1.01
cpu  time for grad    0.01 s
wall time for grad    0.01 s
 E :    -50.44221889  G :  0.034508    pred/act E change: -0.319D-02 -0.103D-02
Maxdispl :   0.1551   ||displ|| :   0.3788   Lambda : -0.348D-02
Largest |displ|/coords:  0.1551 (   2)  0.1368 (  18)  0.1095 (   7)
................................................................................
.............................. CYCLE   20 ......................................
................................................................................
   1    -50.7265016 -0.507265E+02  0.278E-01    9.37       0.0  T
   2    -50.7265733 -0.716431E-04  0.207E-01    9.37       1.0  T
   3    -50.7266157 -0.424240E-04  0.519E-02    9.34       1.0  T
   4    -50.7266241 -0.839490E-05  0.239E-02    9.35       1.0  T
   5    -50.7266248 -0.687986E-06  0.460E-03    9.35       4.3  T
   6    -50.7266248 -0.308354E-07  0.271E-03    9.35       7.2  T
speedup  0.96
cpu  time for SCC    0.00 s
wall time for SCC    0.01 s
speedup  1.00
cpu  time for grad    0.01 s
wall time for grad    0.01 s
 E :    -50.44323345  G :  0.038180    pred/act E change: -0.210D-02 -0.101D-02
Maxdispl :   0.1128   ||displ|| :   0.2257   Lambda : -0.202D-02
Largest |displ|/coords:  0.1128 (   7)  0.0980 (  10)  0.0613 (   9)
................................................................................
.............................. CYCLE   21 ......................................
................................................................................
   1    -50.7265811 -0.507266E+02  0.173E-01    9.18       0.0  T
   2    -50.7266210 -0.399257E-04  0.128E-01    9.19       1.0  T
   3    -50.7266368 -0.157831E-04  0.332E-02    9.20       1.0  T
   4    -50.7266419 -0.503877E-05  0.924E-03    9.20       2.1  T
   5    -50.7266420 -0.153708E-06  0.239E-03    9.20       8.2  T
   6    -50.7266420 -0.530896E-08  0.127E-03    9.20      15.4  T
speedup  0.94
cpu  time for SCC    0.00 s
wall time for SCC    0.01 s
speedup  0.93
cpu  time for grad    0.01 s
wall time for grad    0.01 s
 E :    -50.44453982  G :  0.025659    pred/act E change: -0.199D-02 -0.131D-02
Maxdispl :   0.2737   ||displ|| :   0.4399   Lambda : -0.284D-02
Largest |displ|/coords:  0.2737 (   7)  0.1540 (   2)  0.1169 (  10)
................................................................................
.............................. CYCLE   22 ......................................
................................................................................
   1    -50.7152045 -0.507152E+02  0.307E-01    8.86       0.0  T
   2    -50.7153098 -0.105357E-03  0.228E-01    8.86       1.0  T
   3    -50.7153473 -0.375196E-04  0.530E-02    8.83       1.0  T
   4    -50.7153625 -0.151575E-04  0.144E-02    8.83       1.4  T
   5    -50.7153628 -0.272327E-06  0.375E-03    8.83       5.2  T
   6    -50.7153628 -0.220020E-07  0.184E-03    8.83      10.6  T
speedup  0.96
cpu  time for SCC    0.00 s
wall time for SCC    0.01 s
speedup  1.02
cpu  time for grad    0.01 s
wall time for grad    0.01 s
 E :    -50.44563080  G :  0.038884    pred/act E change: -0.106D-02 -0.109D-02
Maxdispl :   0.1493   ||displ|| :   0.3705   Lambda : -0.290D-02
Largest |displ|/coords:  0.1493 (  18)  0.1200 (   2)  0.1104 (  14)
................................................................................
.............................. CYCLE   23 ......................................
................................................................................
   1    -50.7264698 -0.507265E+02  0.230E-01    9.06       0.0  T
   2    -50.7266765 -0.206698E-03  0.165E-01    9.02       1.0  T
   3    -50.7267551 -0.785075E-04  0.679E-02    8.96       1.0  T
   4    -50.7267646 -0.952282E-05  0.148E-02    8.94       1.3  T
   5    -50.7267650 -0.471837E-06  0.469E-03    8.94       4.2  T
   6    -50.7267651 -0.294237E-07  0.225E-03    8.94       8.7  T
speedup  0.94
cpu  time for SCC    0.01 s
wall time for SCC    0.01 s
speedup  1.00
cpu  time for grad    0.01 s
wall time for grad    0.01 s
 E :    -50.44746692  G :  0.037762    pred/act E change: -0.170D-02 -0.184D-02
Maxdispl :   0.2842   ||displ|| :   0.4583   Lambda : -0.338D-02
Largest |displ|/coords:  0.2842 (   7)  0.1468 (  14)  0.1255 (  18)
................................................................................
.............................. CYCLE   24 ......................................
................................................................................
   1    -50.7367064 -0.507367E+02  0.254E-01    8.99       0.0  T
   2    -50.7368393 -0.132961E-03  0.187E-01    8.96       1.0  T
   3    -50.7368898 -0.505094E-04  0.653E-02    8.92       1.0  T
   4    -50.7369012 -0.113190E-04  0.197E-02    8.91       1.0  T
   5    -50.7369018 -0.656974E-06  0.497E-03    8.91       3.9  T
   6    -50.7369019 -0.446164E-07  0.272E-03    8.91       7.2  T
speedup  0.94
cpu  time for SCC    0.00 s
wall time for SCC    0.01 s
speedup  1.01
cpu  time for grad    0.01 s
wall time for grad    0.01 s
 E :    -50.44912640  G :  0.026164    pred/act E change: -0.165D-02 -0.166D-02
Maxdispl :   0.1080   ||displ|| :   0.2963   Lambda : -0.192D-02
Largest |displ|/coords:  0.1080 (  18)  0.1025 (  10)  0.0877 (   2)
................................................................................
.............................. CYCLE   25 ......................................
................................................................................
   1    -50.7415925 -0.507416E+02  0.184E-01    9.00       0.0  T
   2    -50.7416166 -0.241010E-04  0.137E-01    8.98       1.0  T
   3    -50.7416284 -0.117588E-04  0.263E-02    8.94       1.0  T
   4    -50.7416320 -0.363125E-05  0.748E-03    8.95       2.6  T
   5    -50.7416321 -0.107302E-06  0.206E-03    8.95       9.5  T
   6    -50.7416321 -0.509651E-08  0.111E-03    8.95      17.6  T
speedup  1.15
cpu  time for SCC    0.01 s
wall time for SCC    0.01 s
speedup  1.01
cpu  time for grad    0.01 s
wall time for grad    0.01 s
 E :    -50.45011058  G :  0.014976    pred/act E change: -0.205D-02 -0.984D-03
Maxdispl :   0.3060   ||displ|| :   0.4289   Lambda : -0.151D-02
Largest |displ|/coords:  0.3060 (   7)  0.1653 (   2)  0.0906 (  28)

generating ANC from model Hessian ...
 Shifting diagonal of input Hessian by   5.068524990339846E-003
 Lowest  eigenvalues of input Hessian
    0.005000   -0.000000   -0.000000    0.000000    0.000000    0.000000
    0.000000    0.005199    0.005494    0.005746    0.006200    0.006750
    0.007363    0.007851    0.008211    0.008958    0.009444    0.010662
 Highest eigenvalues
    1.391435    1.395277    1.405928    2.513857    3.441135    3.635519
 
cpu  time for ANC gen    0.01 s
wall time for ANC gen    0.02 s
................................................................................
.............................. CYCLE   26 ......................................
................................................................................
   1    -50.7307872 -0.507308E+02  0.238E-01    8.83       0.0  T
   2    -50.7308187 -0.315874E-04  0.178E-01    8.81       1.0  T
   3    -50.7308353 -0.165097E-04  0.316E-02    8.75       1.0  T
   4    -50.7308396 -0.437884E-05  0.118E-02    8.75       1.7  T
   5    -50.7308398 -0.206600E-06  0.307E-03    8.75       6.4  T
   6    -50.7308399 -0.167764E-07  0.170E-03    8.75      11.5  T
   7    -50.7308399 -0.463961E-08  0.619E-04    8.75      31.7  T
   8    -50.7308399 -0.695813E-09  0.155E-04    8.75     126.7  T
speedup  0.97
cpu  time for SCC    0.01 s
wall time for SCC    0.01 s
speedup  1.04
cpu  time for grad    0.02 s
wall time for grad    0.02 s
 E :    -50.44986836  G :  0.036935    pred/act E change:  0.000D+00  0.242D-03
Maxdispl :   0.0750   ||displ|| :   0.1980   Lambda : -0.211D-02
Largest |displ|/coords:  0.0750 (   7)  0.0748 (   5)  0.0676 (   8)
................................................................................
.............................. CYCLE   27 ......................................
................................................................................
   1    -50.7381997 -0.507382E+02  0.144E-01    8.83       0.0  T
   2    -50.7382047 -0.498444E-05  0.108E-01    8.83       1.0  T
   3    -50.7382087 -0.397235E-05  0.143E-02    8.83       1.4  T
   4    -50.7382092 -0.504911E-06  0.493E-03    8.83       4.0  T
   5    -50.7382092 -0.323054E-07  0.138E-03    8.83      14.3  T
speedup  0.91
cpu  time for SCC    0.00 s
wall time for SCC    0.00 s
speedup  1.00
cpu  time for grad    0.01 s
wall time for grad    0.01 s
 E :    -50.45127937  G :  0.014357    pred/act E change:  0.000D+00 -0.141D-02
Maxdispl :   0.1404   ||displ|| :   0.2554   Lambda : -0.867D-03
Largest |displ|/coords:  0.1404 (   5)  0.0997 (   8)  0.0800 (   2)
................................................................................
.............................. CYCLE   28 ......................................
................................................................................
   1    -50.7413488 -0.507413E+02  0.178E-01    8.89       0.0  T
   2    -50.7413530 -0.418733E-05  0.132E-01    8.89       1.0  T
   3    -50.7413556 -0.262456E-05  0.147E-02    8.89       1.3  T
   4    -50.7413561 -0.541865E-06  0.435E-03    8.89       4.5  T
   5    -50.7413561 -0.219338E-07  0.131E-03    8.89      14.9  T
   6    -50.7413561 -0.148239E-08  0.601E-04    8.89      32.7  T
speedup  0.94
cpu  time for SCC    0.00 s
wall time for SCC    0.01 s
speedup  1.00
cpu  time for grad    0.01 s
wall time for grad    0.01 s
 E :    -50.45190265  G :  0.007228    pred/act E change: -0.109D-02 -0.623D-03
Maxdispl :   0.1745   ||displ|| :   0.4069   Lambda : -0.769D-03
Largest |displ|/coords:  0.1745 (   5)  0.1619 (   7)  0.1537 (   8)
................................................................................
.............................. CYCLE   29 ......................................
................................................................................
   1    -50.7380043 -0.507380E+02  0.286E-01    8.96       0.0  T
   2    -50.7380172 -0.128933E-04  0.214E-01    8.96       1.0  T
   3    -50.7380292 -0.119969E-04  0.242E-02    8.97       1.0  T
   4    -50.7380304 -0.113602E-05  0.767E-03    8.97       2.6  T
   5    -50.7380304 -0.625528E-07  0.261E-03    8.97       7.5  T
   6    -50.7380304 -0.361086E-08  0.114E-03    8.97      17.2  T
speedup  0.96
cpu  time for SCC    0.01 s
wall time for SCC    0.01 s
speedup  1.00
cpu  time for grad    0.01 s
wall time for grad    0.01 s
 E :    -50.45225781  G :  0.019910    pred/act E change: -0.462D-03 -0.355D-03
Maxdispl :   0.0939   ||displ|| :   0.2136   Lambda : -0.674D-03
Largest |displ|/coords:  0.0939 (   5)  0.0926 (   8)  0.0773 (   7)
................................................................................
.............................. CYCLE   30 ......................................
................................................................................
   1    -50.7406558 -0.507407E+02  0.172E-01    8.96       0.0  T
   2    -50.7406723 -0.164666E-04  0.129E-01    8.96       1.0  T
   3    -50.7406840 -0.117219E-04  0.230E-02    8.96       1.0  T
   4    -50.7406862 -0.219057E-05  0.514E-03    8.96       3.8  T
   5    -50.7406862 -0.419161E-07  0.255E-03    8.96       7.7  T
   6    -50.7406862 -0.611220E-08  0.110E-03    8.96      17.8  T
speedup  1.13
cpu  time for SCC    0.01 s
wall time for SCC    0.01 s
speedup  1.00
cpu  time for grad    0.01 s
wall time for grad    0.01 s
 E :    -50.45233322  G :  0.019814    pred/act E change: -0.448D-03 -0.754D-04
Maxdispl :   0.0718   ||displ|| :   0.1425   Lambda : -0.710D-03
Largest |displ|/coords:  0.0718 (   2)  0.0516 (  17)  0.0463 (  14)
................................................................................
.............................. CYCLE   31 ......................................
................................................................................
   1    -50.7444767 -0.507445E+02  0.107E-01    8.98       0.0  T
   2    -50.7444806 -0.390567E-05  0.804E-02    8.98       1.0  T
   3    -50.7444833 -0.262813E-05  0.111E-02    8.98       1.8  T
   4    -50.7444839 -0.614251E-06  0.344E-03    8.98       5.7  T
   5    -50.7444839 -0.182578E-07  0.126E-03    8.98      15.6  T
   6    -50.7444839 -0.190101E-08  0.624E-04    8.98      31.4  T
speedup  0.96
cpu  time for SCC    0.00 s
wall time for SCC    0.01 s
speedup  1.01
cpu  time for grad    0.01 s
wall time for grad    0.01 s
 E :    -50.45259365  G :  0.008869    pred/act E change: -0.352D-03 -0.260D-03
Maxdispl :   0.1036   ||displ|| :   0.2448   Lambda : -0.435D-03
Largest |displ|/coords:  0.1036 (   5)  0.0994 (   2)  0.0836 (   3)
................................................................................
.............................. CYCLE   32 ......................................
................................................................................
   1    -50.7393370 -0.507393E+02  0.173E-01    8.98       0.0  T
   2    -50.7393439 -0.695143E-05  0.130E-01    8.98       1.0  T
   3    -50.7393500 -0.605092E-05  0.150E-02    8.98       1.3  T
   4    -50.7393508 -0.819152E-06  0.438E-03    8.98       4.5  T
   5    -50.7393508 -0.221752E-07  0.197E-03    8.98      10.0  T
   6    -50.7393508 -0.445042E-08  0.907E-04    8.98      21.6  T
speedup  0.94
cpu  time for SCC    0.01 s
wall time for SCC    0.01 s
speedup  1.00
cpu  time for grad    0.01 s
wall time for grad    0.01 s
 E :    -50.45275434  G :  0.017702    pred/act E change: -0.362D-03 -0.161D-03
Maxdispl :   0.0691   ||displ|| :   0.1139   Lambda : -0.301D-03
Largest |displ|/coords:  0.0691 (   3)  0.0640 (   9)  0.0384 (   7)
................................................................................
.............................. CYCLE   33 ......................................
................................................................................
   1    -50.7401631 -0.507402E+02  0.689E-02    8.97       0.0  T
   2    -50.7401653 -0.212356E-05  0.513E-02    8.97       1.0  T
   3    -50.7401669 -0.164706E-05  0.830E-03    8.97       2.4  T
   4    -50.7401672 -0.259440E-06  0.222E-03    8.97       8.9  T
   5    -50.7401672 -0.734382E-08  0.104E-03    8.97      18.9  T
speedup  1.09
cpu  time for SCC    0.00 s
wall time for SCC    0.00 s
speedup  1.06
cpu  time for grad    0.01 s
wall time for grad    0.01 s
 E :    -50.45292370  G :  0.008547    pred/act E change: -0.231D-03 -0.169D-03
Maxdispl :   0.1004   ||displ|| :   0.2054   Lambda : -0.242D-03
Largest |displ|/coords:  0.1004 (   5)  0.0978 (   3)  0.0964 (   2)
................................................................................
.............................. CYCLE   34 ......................................
................................................................................
   1    -50.7408927 -0.507409E+02  0.108E-01    8.96       0.0  T
   2    -50.7408941 -0.148438E-05  0.810E-02    8.96       1.0  T
   3    -50.7408954 -0.127338E-05  0.757E-03    8.95       2.6  T
   4    -50.7408956 -0.156881E-06  0.167E-03    8.95      11.8  T
   5    -50.7408956 -0.432741E-08  0.938E-04    8.95      20.9  T
speedup  1.14
cpu  time for SCC    0.00 s
wall time for SCC    0.00 s
speedup  0.98
cpu  time for grad    0.01 s
wall time for grad    0.01 s
 E :    -50.45309964  G :  0.006018    pred/act E change: -0.152D-03 -0.176D-03
Maxdispl :   0.2224   ||displ|| :   0.4408   Lambda : -0.395D-03
Largest |displ|/coords:  0.2224 (   3)  0.2163 (   2)  0.1610 (   5)
................................................................................
.............................. CYCLE   35 ......................................
................................................................................
   1    -50.7399405 -0.507399E+02  0.234E-01    8.92       0.0  T
   2    -50.7399483 -0.786392E-05  0.176E-01    8.92       1.0  T
   3    -50.7399564 -0.805576E-05  0.190E-02    8.92       1.0  T
   4    -50.7399570 -0.619308E-06  0.692E-03    8.92       2.8  T
   5    -50.7399571 -0.498731E-07  0.200E-03    8.92       9.8  T
   6    -50.7399571 -0.346666E-08  0.120E-03    8.92      16.4  T
speedup  0.94
cpu  time for SCC    0.00 s
wall time for SCC    0.01 s
speedup  0.99
cpu  time for grad    0.01 s
wall time for grad    0.01 s
 E :    -50.45337994  G :  0.008078    pred/act E change: -0.126D-03 -0.280D-03
Maxdispl :   0.1769   ||displ|| :   0.3228   Lambda : -0.260D-03
Largest |displ|/coords:  0.1769 (   2)  0.1630 (   3)  0.0911 (   5)
................................................................................
.............................. CYCLE   36 ......................................
................................................................................
   1    -50.7407284 -0.507407E+02  0.172E-01    8.90       0.0  T
   2    -50.7407328 -0.431680E-05  0.128E-01    8.90       1.0  T
   3    -50.7407365 -0.378151E-05  0.154E-02    8.90       1.3  T
   4    -50.7407370 -0.446720E-06  0.561E-03    8.90       3.5  T
   5    -50.7407370 -0.336214E-07  0.138E-03    8.90      14.2  T
   6    -50.7407370 -0.151577E-08  0.883E-04    8.90      22.2  T
speedup  0.93
cpu  time for SCC    0.01 s
wall time for SCC    0.01 s
speedup  0.98
cpu  time for grad    0.01 s
wall time for grad    0.01 s
 E :    -50.45355159  G :  0.010593    pred/act E change: -0.236D-03 -0.172D-03
Maxdispl :   0.2190   ||displ|| :   0.3999   Lambda : -0.296D-03
Largest |displ|/coords:  0.2190 (   3)  0.1819 (   2)  0.1143 (   4)
................................................................................
.............................. CYCLE   37 ......................................
................................................................................
   1    -50.7381266 -0.507381E+02  0.199E-01    8.87       0.0  T
   2    -50.7381320 -0.537881E-05  0.148E-01    8.87       1.0  T
   3    -50.7381368 -0.481858E-05  0.175E-02    8.86       1.1  T
   4    -50.7381373 -0.500924E-06  0.587E-03    8.86       3.3  T
   5    -50.7381374 -0.367310E-07  0.156E-03    8.86      12.6  T
   6    -50.7381374 -0.166642E-08  0.917E-04    8.86      21.4  T
speedup  1.11
cpu  time for SCC    0.01 s
wall time for SCC    0.01 s
speedup  0.98
cpu  time for grad    0.01 s
wall time for grad    0.01 s
 E :    -50.45372209  G :  0.013332    pred/act E change: -0.144D-03 -0.171D-03
Maxdispl :   0.1767   ||displ|| :   0.3634   Lambda : -0.651D-03
Largest |displ|/coords:  0.1767 (   3)  0.1450 (   4)  0.1144 (   2)
................................................................................
.............................. CYCLE   38 ......................................
................................................................................
   1    -50.7453666 -0.507454E+02  0.160E-01    8.94       0.0  T
   2    -50.7453771 -0.105356E-04  0.119E-01    8.95       1.0  T
   3    -50.7453837 -0.657716E-05  0.220E-02    8.95       1.0  T
   4    -50.7453849 -0.124794E-05  0.596E-03    8.95       3.3  T
   5    -50.7453850 -0.929539E-07  0.197E-03    8.95       9.9  T
   6    -50.7453850 -0.235346E-08  0.110E-03    8.95      17.9  T
speedup  0.96
cpu  time for SCC    0.00 s
wall time for SCC    0.01 s
speedup  1.00
cpu  time for grad    0.01 s
wall time for grad    0.01 s
 E :    -50.45385063  G :  0.021789    pred/act E change: -0.171D-03 -0.129D-03
Maxdispl :   0.1453   ||displ|| :   0.2992   Lambda : -0.710D-03
Largest |displ|/coords:  0.1453 (   2)  0.1293 (   6)  0.1218 (   3)
................................................................................
.............................. CYCLE   39 ......................................
................................................................................
   1    -50.7419969 -0.507420E+02  0.199E-01    8.97       0.0  T
   2    -50.7420066 -0.970378E-05  0.149E-01    8.97       1.0  T
   3    -50.7420143 -0.770347E-05  0.190E-02    8.97       1.0  T
   4    -50.7420156 -0.126929E-05  0.550E-03    8.97       3.6  T
   5    -50.7420157 -0.471629E-07  0.233E-03    8.97       8.4  T
speedup  0.93
cpu  time for SCC    0.00 s
wall time for SCC    0.00 s
speedup  0.99
cpu  time for grad    0.01 s
wall time for grad    0.01 s
 E :    -50.45423632  G :  0.017486    pred/act E change: -0.368D-03 -0.386D-03
Maxdispl :   0.1199   ||displ|| :   0.2091   Lambda : -0.390D-03
Largest |displ|/coords:  0.1199 (   6)  0.0888 (   4)  0.0655 (  10)
................................................................................
.............................. CYCLE   40 ......................................
................................................................................
   1    -50.7406142 -0.507406E+02  0.119E-01    8.93       0.0  T
   2    -50.7406194 -0.514439E-05  0.885E-02    8.93       1.0  T
   3    -50.7406215 -0.215768E-05  0.170E-02    8.92       1.2  T
   4    -50.7406223 -0.780370E-06  0.438E-03    8.92       4.5  T
   5    -50.7406224 -0.348947E-07  0.125E-03    8.92      15.7  T
   6    -50.7406224 -0.180926E-08  0.695E-04    8.92      28.2  T
speedup  1.13
cpu  time for SCC    0.01 s
wall time for SCC    0.01 s
speedup  0.99
cpu  time for grad    0.01 s
wall time for grad    0.01 s
 E :    -50.45444036  G :  0.014544    pred/act E change: -0.387D-03 -0.204D-03
Maxdispl :   0.1233   ||displ|| :   0.2528   Lambda : -0.448D-03
Largest |displ|/coords:  0.1233 (   5)  0.1053 (   6)  0.0884 (   4)
................................................................................
.............................. CYCLE   41 ......................................
................................................................................
   1    -50.7407296 -0.507407E+02  0.125E-01    8.94       0.0  T
   2    -50.7407376 -0.799033E-05  0.933E-02    8.93       1.0  T
   3    -50.7407411 -0.357918E-05  0.229E-02    8.92       1.0  T
   4    -50.7407423 -0.112729E-05  0.590E-03    8.92       3.3  T
   5    -50.7407423 -0.470121E-07  0.154E-03    8.93      12.7  T
   6    -50.7407423 -0.250307E-08  0.858E-04    8.93      22.9  T
speedup  0.96
cpu  time for SCC    0.00 s
wall time for SCC    0.01 s
speedup  1.00
cpu  time for grad    0.01 s
wall time for grad    0.01 s
 E :    -50.45468223  G :  0.009636    pred/act E change: -0.204D-03 -0.242D-03
Maxdispl :   0.1824   ||displ|| :   0.4207   Lambda : -0.467D-03
Largest |displ|/coords:  0.1824 (   6)  0.1529 (   3)  0.1490 (   4)
................................................................................
.............................. CYCLE   42 ......................................
................................................................................
   1    -50.7427972 -0.507428E+02  0.191E-01    8.96       0.0  T
   2    -50.7428031 -0.583288E-05  0.143E-01    8.95       1.0  T
   3    -50.7428076 -0.451695E-05  0.140E-02    8.94       1.4  T
   4    -50.7428083 -0.745825E-06  0.564E-03    8.94       3.5  T
   5    -50.7428084 -0.422375E-07  0.157E-03    8.94      12.5  T
   6    -50.7428084 -0.161238E-08  0.884E-04    8.94      22.2  T
speedup  0.96
cpu  time for SCC    0.00 s
wall time for SCC    0.01 s
speedup  1.00
cpu  time for grad    0.01 s
wall time for grad    0.01 s
 E :    -50.45501473  G :  0.008627    pred/act E change: -0.238D-03 -0.332D-03
Maxdispl :   0.1824   ||displ|| :   0.3677   Lambda : -0.369D-03
Largest |displ|/coords:  0.1824 (   6)  0.1449 (   4)  0.1186 (   5)
................................................................................
.............................. CYCLE   43 ......................................
................................................................................
   1    -50.7469435 -0.507469E+02  0.165E-01    9.01       0.0  T
   2    -50.7469486 -0.508107E-05  0.123E-01    9.01       1.0  T
   3    -50.7469516 -0.296518E-05  0.147E-02    8.99       1.3  T
   4    -50.7469523 -0.703847E-06  0.514E-03    8.99       3.8  T
   5    -50.7469523 -0.409477E-07  0.138E-03    8.99      14.2  T
   6    -50.7469523 -0.166757E-08  0.774E-04    8.99      25.3  T
speedup  0.96
cpu  time for SCC    0.00 s
wall time for SCC    0.01 s
speedup  1.00
cpu  time for grad    0.01 s
wall time for grad    0.01 s
 E :    -50.45515606  G :  0.008592    pred/act E change: -0.275D-03 -0.141D-03
Maxdispl :   0.2592   ||displ|| :   0.5939   Lambda : -0.484D-03
Largest |displ|/coords:  0.2592 (   3)  0.2536 (   2)  0.2241 (   6)
................................................................................
.............................. CYCLE   44 ......................................
................................................................................
   1    -50.7369654 -0.507370E+02  0.312E-01    8.82       0.0  T
   2    -50.7369827 -0.172608E-04  0.232E-01    8.82       1.0  T
   3    -50.7369978 -0.151365E-04  0.294E-02    8.80       1.0  T
   4    -50.7369994 -0.160624E-05  0.102E-02    8.80       1.9  T
   5    -50.7369995 -0.132397E-06  0.278E-03    8.80       7.1  T
   6    -50.7369996 -0.929482E-08  0.174E-03    8.80      11.2  T
speedup  0.96
cpu  time for SCC    0.01 s
wall time for SCC    0.01 s
speedup  1.01
cpu  time for grad    0.01 s
wall time for grad    0.01 s
 E :    -50.45498150  G :  0.023260    pred/act E change: -0.209D-03  0.175D-03
Maxdispl :   0.1100   ||displ|| :   0.2615   Lambda : -0.109D-02
Largest |displ|/coords:  0.1100 (   6)  0.0992 (   2)  0.0919 (   4)
................................................................................
.............................. CYCLE   45 ......................................
................................................................................
   1    -50.7469375 -0.507469E+02  0.160E-01    8.97       0.0  T
   2    -50.7469449 -0.734012E-05  0.119E-01    8.97       1.0  T
   3    -50.7469502 -0.530625E-05  0.196E-02    8.97       1.0  T
   4    -50.7469510 -0.855552E-06  0.665E-03    8.97       3.0  T
   5    -50.7469511 -0.577847E-07  0.185E-03    8.97      10.6  T
   6    -50.7469511 -0.319598E-08  0.106E-03    8.97      18.5  T
speedup  0.94
cpu  time for SCC    0.00 s
wall time for SCC    0.01 s
speedup  0.99
cpu  time for grad    0.01 s
wall time for grad    0.01 s
 E :    -50.45526288  G :  0.012336    pred/act E change: -0.327D-03 -0.281D-03
Maxdispl :   0.0688   ||displ|| :   0.1363   Lambda : -0.623D-03
Largest |displ|/coords:  0.0688 (   9)  0.0515 (   5)  0.0509 (   7)
................................................................................
.............................. CYCLE   46 ......................................
................................................................................
   1    -50.7469256 -0.507469E+02  0.116E-01    9.01       0.0  T
   2    -50.7469280 -0.234345E-05  0.871E-02    9.02       1.0  T
   3    -50.7469301 -0.212335E-05  0.925E-03    9.02       2.1  T
   4    -50.7469303 -0.240461E-06  0.274E-03    9.02       7.2  T
   5    -50.7469303 -0.799524E-08  0.113E-03    9.02      17.4  T
speedup  0.89
cpu  time for SCC    0.00 s
wall time for SCC    0.00 s
speedup  0.98
cpu  time for grad    0.01 s
wall time for grad    0.01 s
 E :    -50.45536364  G :  0.009267    pred/act E change: -0.585D-03 -0.101D-03
Maxdispl :   0.0559   ||displ|| :   0.1330   Lambda : -0.320D-03
Largest |displ|/coords:  0.0559 (   3)  0.0501 (   9)  0.0422 (   4)
................................................................................
.............................. CYCLE   47 ......................................
................................................................................
   1    -50.7452664 -0.507453E+02  0.809E-02    9.00       0.0  T
   2    -50.7452675 -0.110023E-05  0.602E-02    8.99       1.0  T
   3    -50.7452685 -0.993859E-06  0.816E-03    8.99       2.4  T
   4    -50.7452685 -0.813667E-07  0.212E-03    8.99       9.3  T
   5    -50.7452685 -0.829201E-08  0.673E-04    8.99      29.2  T
speedup  1.14
cpu  time for SCC    0.00 s
wall time for SCC    0.00 s
speedup  1.07
cpu  time for grad    0.01 s
wall time for grad    0.01 s
 E :    -50.45553716  G :  0.005213    pred/act E change: -0.317D-03 -0.174D-03
Maxdispl :   0.0904   ||displ|| :   0.1966   Lambda : -0.130D-03
Largest |displ|/coords:  0.0904 (   2)  0.0635 (   3)  0.0617 (   1)
................................................................................
.............................. CYCLE   48 ......................................
................................................................................
   1    -50.7442522 -0.507443E+02  0.118E-01    8.94       0.0  T
   2    -50.7442547 -0.243814E-05  0.874E-02    8.94       1.0  T
   3    -50.7442566 -0.191315E-05  0.119E-02    8.94       1.6  T
   4    -50.7442568 -0.272186E-06  0.450E-03    8.94       4.4  T
   5    -50.7442569 -0.198636E-07  0.938E-04    8.94      20.9  T
   6    -50.7442569 -0.885329E-09  0.625E-04    8.94      31.4  T
speedup  0.94
cpu  time for SCC    0.01 s
wall time for SCC    0.01 s
speedup  0.99
cpu  time for grad    0.01 s
wall time for grad    0.01 s
 E :    -50.45560036  G :  0.008082    pred/act E change: -0.163D-03 -0.632D-04
Maxdispl :   0.0800   ||displ|| :   0.1641   Lambda : -0.122D-03
Largest |displ|/coords:  0.0800 (   2)  0.0588 (   3)  0.0576 (   1)
................................................................................
.............................. CYCLE   49 ......................................
................................................................................
   1    -50.7447350 -0.507447E+02  0.830E-02    8.98       0.0  T
   2    -50.7447361 -0.108669E-05  0.620E-02    8.98       1.0  T
   3    -50.7447368 -0.630031E-06  0.718E-03    8.97       2.7  T
   4    -50.7447369 -0.169870E-06  0.278E-03    8.97       7.1  T
   5    -50.7447369 -0.754035E-08  0.661E-04    8.98      29.7  T
speedup  0.91
cpu  time for SCC    0.00 s
wall time for SCC    0.00 s
speedup  0.98
cpu  time for grad    0.01 s
wall time for grad    0.01 s
 E :    -50.45569873  G :  0.006832    pred/act E change: -0.673D-04 -0.984D-04
Maxdispl :   0.1664   ||displ|| :   0.3368   Lambda : -0.298D-03
Largest |displ|/coords:  0.1664 (   2)  0.1627 (   1)  0.1203 (   4)
................................................................................
.............................. CYCLE   50 ......................................
................................................................................
   1    -50.7448860 -0.507449E+02  0.200E-01    9.00       0.0  T
   2    -50.7448924 -0.634916E-05  0.149E-01    9.00       1.0  T
   3    -50.7448961 -0.366748E-05  0.184E-02    9.01       1.1  T
   4    -50.7448970 -0.961294E-06  0.668E-03    9.00       2.9  T
   5    -50.7448971 -0.503046E-07  0.167E-03    9.00      11.7  T
   6    -50.7448971 -0.300365E-08  0.107E-03    9.00      18.2  T
speedup  1.13
cpu  time for SCC    0.01 s
wall time for SCC    0.01 s
speedup  0.99
cpu  time for grad    0.01 s
wall time for grad    0.01 s
 E :    -50.45582569  G :  0.009419    pred/act E change: -0.629D-04 -0.127D-03
Maxdispl :   0.0900   ||displ|| :   0.1995   Lambda : -0.266D-03
Largest |displ|/coords:  0.0900 (   2)  0.0846 (   1)  0.0597 (   6)
................................................................................
.............................. CYCLE   51 ......................................
................................................................................
   1    -50.7479298 -0.507479E+02  0.113E-01    9.02       0.0  T
   2    -50.7479354 -0.556206E-05  0.845E-02    9.02       1.0  T
   3    -50.7479383 -0.297163E-05  0.150E-02    9.02       1.3  T
   4    -50.7479391 -0.762090E-06  0.527E-03    9.02       3.7  T
   5    -50.7479392 -0.496751E-07  0.134E-03    9.02      14.6  T
   6    -50.7479392 -0.174781E-08  0.793E-04    9.02      24.7  T
speedup  0.93
cpu  time for SCC    0.00 s
wall time for SCC    0.01 s
speedup  0.98
cpu  time for grad    0.01 s
wall time for grad    0.01 s
 E :    -50.45580496  G :  0.013812    pred/act E change: -0.166D-03  0.207D-04
Maxdispl :   0.0748   ||displ|| :   0.1459   Lambda : -0.297D-03
Largest |displ|/coords:  0.0748 (   4)  0.0682 (   1)  0.0506 (   5)
................................................................................
.............................. CYCLE   52 ......................................
................................................................................
   1    -50.7459865 -0.507460E+02  0.939E-02    9.09       0.0  T
   2    -50.7459895 -0.305213E-05  0.700E-02    9.09       1.0  T
   3    -50.7459914 -0.190259E-05  0.109E-02    9.08       1.8  T
   4    -50.7459918 -0.388706E-06  0.418E-03    9.08       4.7  T
   5    -50.7459918 -0.248339E-07  0.110E-03    9.08      17.9  T
   6    -50.7459918 -0.135218E-08  0.652E-04    9.08      30.1  T
speedup  1.13
cpu  time for SCC    0.01 s
wall time for SCC    0.01 s
speedup  1.07
cpu  time for grad    0.01 s
wall time for grad    0.01 s
 E :    -50.45590840  G :  0.009176    pred/act E change: -0.138D-03 -0.103D-03
Maxdispl :   0.0695   ||displ|| :   0.1353   Lambda : -0.178D-03
Largest |displ|/coords:  0.0695 (   2)  0.0435 (   6)  0.0382 (   7)

generating ANC from model Hessian ...
 Shifting diagonal of input Hessian by   4.958217019915199E-003
 Lowest  eigenvalues of input Hessian
   -0.000000   -0.000000   -0.000000    0.000000    0.000000    0.000000
    0.005000    0.005294    0.005416    0.005660    0.006322    0.006425
    0.006811    0.007554    0.008068    0.008453    0.010123    0.010918
 Highest eigenvalues
    1.408308    1.423782    1.498723    2.567394    3.475150    3.600045
 
cpu  time for ANC gen    0.02 s
wall time for ANC gen    0.02 s
................................................................................
.............................. CYCLE   53 ......................................
................................................................................
   1    -50.7466063 -0.507466E+02  0.813E-02    8.98       0.0  T
   2    -50.7466109 -0.466727E-05  0.604E-02    8.98       1.0  T
   3    -50.7466130 -0.208072E-05  0.138E-02    8.99       1.4  T
   4    -50.7466136 -0.640568E-06  0.400E-03    8.99       4.9  T
   5    -50.7466137 -0.333853E-07  0.122E-03    8.99      16.1  T
   6    -50.7466137 -0.203937E-08  0.640E-04    8.99      30.7  T
   7    -50.7466137 -0.612907E-09  0.198E-04    8.99      99.1  T
speedup  0.97
cpu  time for SCC    0.01 s
wall time for SCC    0.01 s
speedup  0.97
cpu  time for grad    0.01 s
wall time for grad    0.01 s
 E :    -50.45591626  G :  0.007422    pred/act E change:  0.000D+00 -0.787D-05
Maxdispl :   0.0569   ||displ|| :   0.1029   Lambda : -0.162D-03
Largest |displ|/coords:  0.0569 (  12)  0.0414 (   4)  0.0367 (   5)
................................................................................
.............................. CYCLE   54 ......................................
................................................................................
   1    -50.7462870 -0.507463E+02  0.109E-01    9.00       0.0  T
   2    -50.7462886 -0.162017E-05  0.825E-02    9.01       1.0  T
   3    -50.7462905 -0.188687E-05  0.656E-03    9.01       3.0  T
   4    -50.7462906 -0.126545E-06  0.218E-03    9.01       9.0  T
   5    -50.7462906 -0.520725E-08  0.980E-04    9.01      20.0  T
speedup  0.89
cpu  time for SCC    0.00 s
wall time for SCC    0.00 s
speedup  0.98
cpu  time for grad    0.01 s
wall time for grad    0.01 s
 E :    -50.45603457  G :  0.001933    pred/act E change:  0.000D+00 -0.118D-03
Maxdispl :   0.1059   ||displ|| :   0.1786   Lambda : -0.135D-03
Largest |displ|/coords:  0.1059 (  12)  0.0948 (   4)  0.0505 (   6)
................................................................................
.............................. CYCLE   55 ......................................
................................................................................
   1    -50.7451732 -0.507452E+02  0.167E-01    9.01       0.0  T
   2    -50.7451766 -0.340652E-05  0.126E-01    9.01       1.0  T
   3    -50.7451807 -0.414171E-05  0.980E-03    9.01       2.0  T
   4    -50.7451809 -0.238318E-06  0.282E-03    9.01       6.9  T
   5    -50.7451809 -0.607248E-08  0.161E-03    9.01      12.2  T
   6    -50.7451809 -0.536863E-08  0.360E-04    9.01      54.4  T
   7    -50.7451809 -0.268216E-09  0.132E-04    9.01     148.2  T
speedup  0.97
cpu  time for SCC    0.01 s
wall time for SCC    0.01 s
speedup  0.97
cpu  time for grad    0.01 s
wall time for grad    0.01 s
 E :    -50.45604027  G :  0.011616    pred/act E change: -0.818D-04 -0.571D-05
Maxdispl :   0.0367   ||displ|| :   0.0655   Lambda : -0.141D-03
Largest |displ|/coords:  0.0367 (  12)  0.0228 (   8)  0.0214 (   4)
................................................................................
.............................. CYCLE   56 ......................................
................................................................................
   1    -50.7463641 -0.507464E+02  0.718E-02    9.01       0.0  T
   2    -50.7463655 -0.140506E-05  0.544E-02    9.01       1.0  T
   3    -50.7463669 -0.138563E-05  0.625E-03    9.01       3.1  T
   4    -50.7463671 -0.164575E-06  0.173E-03    9.01      11.3  T
   5    -50.7463671 -0.303753E-08  0.874E-04    9.01      22.4  T
speedup  0.89
cpu  time for SCC    0.00 s
wall time for SCC    0.00 s
speedup  0.98
cpu  time for grad    0.01 s
wall time for grad    0.01 s
 E :    -50.45611090  G :  0.003597    pred/act E change: -0.697D-04 -0.706D-04
Maxdispl :   0.0423   ||displ|| :   0.0745   Lambda : -0.401D-04
Largest |displ|/coords:  0.0423 (   4)  0.0329 (   3)  0.0299 (   6)
................................................................................
.............................. CYCLE   57 ......................................
................................................................................
   1    -50.7465555 -0.507466E+02  0.369E-02    9.01       0.0  T
   2    -50.7465557 -0.164371E-06  0.278E-02    9.01       1.0  T
   3    -50.7465559 -0.182682E-06  0.255E-03    9.01       7.7  T
   4    -50.7465559 -0.125603E-07  0.743E-04    9.01      26.4  T
   5    -50.7465559 -0.725692E-09  0.322E-04    9.01      60.9  T
speedup  0.91
cpu  time for SCC    0.00 s
wall time for SCC    0.00 s
speedup  0.94
cpu  time for grad    0.01 s
wall time for grad    0.01 s
 E :    -50.45614710  G :  0.002390    pred/act E change: -0.709D-04 -0.362D-04
Maxdispl :   0.2662   ||displ|| :   0.4380   Lambda : -0.191D-03
Largest |displ|/coords:  0.2662 (   4)  0.1671 (   3)  0.1627 (   6)
................................................................................
.............................. CYCLE   58 ......................................
................................................................................
   1    -50.7456021 -0.507456E+02  0.222E-01    8.98       0.0  T
   2    -50.7456072 -0.505588E-05  0.168E-01    8.99       1.0  T
   3    -50.7456137 -0.647605E-05  0.133E-02    9.00       1.5  T
   4    -50.7456139 -0.249030E-06  0.355E-03    9.00       5.5  T
   5    -50.7456139 -0.153731E-07  0.202E-03    9.00       9.7  T
   6    -50.7456140 -0.650163E-08  0.702E-04    9.00      27.9  T
   7    -50.7456140 -0.104177E-08  0.155E-04    9.00     126.5  T
speedup  0.98
cpu  time for SCC    0.01 s
wall time for SCC    0.01 s
speedup  1.04
cpu  time for grad    0.01 s
wall time for grad    0.01 s
 E :    -50.45626437  G :  0.006412    pred/act E change: -0.202D-04 -0.117D-03
Maxdispl :   0.1303   ||displ|| :   0.1888   Lambda : -0.864D-04
Largest |displ|/coords:  0.1303 (   4)  0.0805 (   3)  0.0700 (   6)
................................................................................
.............................. CYCLE   59 ......................................
................................................................................
   1    -50.7460150 -0.507460E+02  0.811E-02    8.98       0.0  T
   2    -50.7460164 -0.149620E-05  0.608E-02    8.98       1.0  T
   3    -50.7460176 -0.112854E-05  0.690E-03    8.99       2.8  T
   4    -50.7460178 -0.210705E-06  0.201E-03    8.99       9.7  T
   5    -50.7460178 -0.528993E-08  0.938E-04    8.99      20.9  T
speedup  1.06
cpu  time for SCC    0.00 s
wall time for SCC    0.00 s
speedup  0.96
cpu  time for grad    0.01 s
wall time for grad    0.01 s
 E :    -50.45629041  G :  0.003462    pred/act E change: -0.114D-03 -0.260D-04
Maxdispl :   0.0563   ||displ|| :   0.1088   Lambda : -0.637D-04
Largest |displ|/coords:  0.0563 (   6)  0.0534 (   4)  0.0488 (   3)
................................................................................
.............................. CYCLE   60 ......................................
................................................................................
   1    -50.7463767 -0.507464E+02  0.593E-02    8.99       0.0  T
   2    -50.7463772 -0.535216E-06  0.451E-02    8.99       1.0  T
   3    -50.7463778 -0.597288E-06  0.371E-03    8.99       5.3  T
   4    -50.7463779 -0.420214E-07  0.132E-03    8.99      14.8  T
   5    -50.7463779 -0.193126E-08  0.510E-04    8.99      38.4  T
   6    -50.7463779 -0.261416E-09  0.261E-04    8.99      75.1  T
speedup  0.96
cpu  time for SCC    0.00 s
wall time for SCC    0.01 s
speedup  1.03
cpu  time for grad    0.01 s
wall time for grad    0.01 s
 E :    -50.45632913  G :  0.002791    pred/act E change: -0.447D-04 -0.387D-04
Maxdispl :   0.0187   ||displ|| :   0.0504   Lambda : -0.305D-04
Largest |displ|/coords:  0.0187 (  10)  0.0186 (   4)  0.0179 (   6)
................................................................................
.............................. CYCLE   61 ......................................
................................................................................
   1    -50.7470324 -0.507470E+02  0.401E-02    9.01       0.0  T
   2    -50.7470328 -0.312528E-06  0.303E-02    9.01       1.0  T
   3    -50.7470331 -0.299590E-06  0.348E-03    9.01       5.6  T
   4    -50.7470331 -0.308476E-07  0.103E-03    9.01      19.0  T
   5    -50.7470331 -0.155440E-08  0.282E-04    9.01      69.7  T
   6    -50.7470331 -0.515428E-10  0.164E-04    9.01     119.8  T
speedup  0.96
cpu  time for SCC    0.00 s
wall time for SCC    0.01 s
speedup  0.96
cpu  time for grad    0.01 s
wall time for grad    0.01 s
 E :    -50.45635246  G :  0.001966    pred/act E change: -0.322D-04 -0.233D-04
Maxdispl :   0.1538   ||displ|| :   0.2323   Lambda : -0.692D-04
Largest |displ|/coords:  0.1538 (   4)  0.1118 (   6)  0.0829 (   3)
................................................................................
.............................. CYCLE   62 ......................................
................................................................................
   1    -50.7462748 -0.507463E+02  0.155E-01    9.01       0.0  T
   2    -50.7462779 -0.311979E-05  0.117E-01    9.01       1.0  T
   3    -50.7462820 -0.408279E-05  0.888E-03    9.00       2.2  T
   4    -50.7462821 -0.143901E-06  0.383E-03    9.00       5.1  T
   5    -50.7462821 -0.148808E-07  0.122E-03    9.00      16.1  T
   6    -50.7462821 -0.157975E-08  0.618E-04    9.00      31.8  T
   7    -50.7462821 -0.584258E-09  0.117E-04    9.00     167.5  T
speedup  0.97
cpu  time for SCC    0.01 s
wall time for SCC    0.01 s
speedup  0.97
cpu  time for grad    0.01 s
wall time for grad    0.01 s
 E :    -50.45636953  G :  0.007516    pred/act E change: -0.153D-04 -0.171D-04
Maxdispl :   0.0696   ||displ|| :   0.1254   Lambda : -0.925D-04
Largest |displ|/coords:  0.0696 (   8)  0.0385 (   7)  0.0384 (   4)
................................................................................
.............................. CYCLE   63 ......................................
................................................................................
   1    -50.7475590 -0.507476E+02  0.730E-02    9.01       0.0  T
   2    -50.7475604 -0.148352E-05  0.544E-02    9.01       1.0  T
   3    -50.7475619 -0.141788E-05  0.853E-03    9.00       2.3  T
   4    -50.7475620 -0.136465E-06  0.208E-03    9.00       9.4  T
   5    -50.7475620 -0.685416E-08  0.753E-04    9.00      26.1  T
speedup  0.91
cpu  time for SCC    0.00 s
wall time for SCC    0.00 s
speedup  0.98
cpu  time for grad    0.01 s
wall time for grad    0.01 s
 E :    -50.45639810  G :  0.003459    pred/act E change: -0.365D-04 -0.286D-04
Maxdispl :   0.0397   ||displ|| :   0.0703   Lambda : -0.317D-04
Largest |displ|/coords:  0.0397 (   3)  0.0294 (   4)  0.0242 (   7)
................................................................................
.............................. CYCLE   64 ......................................
................................................................................
   1    -50.7473923 -0.507474E+02  0.391E-02    9.00       0.0  T
   2    -50.7473925 -0.211264E-06  0.293E-02    9.00       1.0  T
   3    -50.7473927 -0.204153E-06  0.323E-03    9.00       6.1  T
   4    -50.7473927 -0.197452E-07  0.109E-03    9.00      18.0  T
   5    -50.7473927 -0.137715E-08  0.311E-04    9.00      63.0  T
   6    -50.7473927 -0.948717E-10  0.181E-04    9.00     108.6  T
speedup  0.96
cpu  time for SCC    0.00 s
wall time for SCC    0.01 s
speedup  0.96
cpu  time for grad    0.01 s
wall time for grad    0.01 s
 E :    -50.45641607  G :  0.002070    pred/act E change: -0.470D-04 -0.180D-04
Maxdispl :   0.0528   ||displ|| :   0.0845   Lambda : -0.174D-04
Largest |displ|/coords:  0.0528 (   4)  0.0365 (   3)  0.0358 (   6)
................................................................................
.............................. CYCLE   65 ......................................
................................................................................
   1    -50.7469679 -0.507470E+02  0.496E-02    8.99       0.0  T
   2    -50.7469681 -0.252615E-06  0.375E-02    8.99       1.0  T
   3    -50.7469685 -0.333842E-06  0.240E-03    8.99       8.2  T
   4    -50.7469685 -0.126181E-07  0.112E-03    8.99      17.5  T
   5    -50.7469685 -0.147371E-08  0.383E-04    8.99      51.2  T
   6    -50.7469685 -0.261373E-09  0.188E-04    8.99     104.5  T
speedup  0.96
cpu  time for SCC    0.00 s
wall time for SCC    0.01 s
speedup  0.94
cpu  time for grad    0.01 s
wall time for grad    0.01 s
 E :    -50.45642722  G :  0.001996    pred/act E change: -0.159D-04 -0.112D-04
Maxdispl :   0.0331   ||displ|| :   0.0763   Lambda : -0.141D-04
Largest |displ|/coords:  0.0331 (   3)  0.0287 (   2)  0.0262 (   4)
................................................................................
.............................. CYCLE   66 ......................................
[...]
   3    -50.7490696 -0.150633E-07  0.938E-04    8.98      20.9  T
   4    -50.7490696 -0.119545E-08  0.266E-04    8.98      73.8  T
speedup  1.11
cpu  time for SCC    0.00 s
wall time for SCC    0.00 s
speedup  1.00
cpu  time for grad    0.01 s
wall time for grad    0.01 s
 E :    -50.45692868  G :  0.000394    pred/act E change: -0.345D-06 -0.412D-06
Maxdispl :   0.0092   ||displ|| :   0.0173   Lambda : -0.663D-06
Largest |displ|/coords:  0.0092 (   3)  0.0055 (   7)  0.0043 (  17)

generating ANC from model Hessian ...
 Shifting diagonal of input Hessian by   5.009802518565761E-003
 Lowest  eigenvalues of input Hessian
    0.005000   -0.000000   -0.000000   -0.000000   -0.000000    0.000000
    0.000000    0.005156    0.005304    0.005742    0.006380    0.006468
    0.007179    0.007736    0.008590    0.009162    0.009405    0.010646
 Highest eigenvalues
    1.410145    1.412530    1.496254    2.588355    3.452766    3.639681
 
cpu  time for ANC gen    0.02 s
wall time for ANC gen    0.02 s
................................................................................
.............................. CYCLE  113 ......................................
................................................................................
   1    -50.7490587 -0.507491E+02  0.145E-02    8.98       0.0  T
   2    -50.7490587 -0.223375E-07  0.109E-02    8.98       1.8  T
   3    -50.7490587 -0.268184E-07  0.102E-03    8.98      19.2  T
   4    -50.7490587 -0.128132E-08  0.304E-04    8.98      64.5  T
   5    -50.7490587 -0.144738E-09  0.102E-04    8.98     191.8  T
speedup  1.14
cpu  time for SCC    0.00 s
wall time for SCC    0.00 s
speedup  1.01
cpu  time for grad    0.01 s
wall time for grad    0.01 s
 E :    -50.45692919  G :  0.000389    pred/act E change:  0.000D+00 -0.514D-06
Maxdispl :   0.0018   ||displ|| :   0.0043   Lambda : -0.288D-06
Largest |displ|/coords:  0.0018 (   3)  0.0016 (   2)  0.0014 (   6)
................................................................................
.............................. CYCLE  114 ......................................
................................................................................
   1    -50.7490730 -0.507491E+02  0.299E-03    8.98       0.0  T
   2    -50.7490730 -0.175874E-08  0.224E-03    8.98       8.7  T
   3    -50.7490730 -0.155342E-08  0.315E-04    8.98      62.3  T
   4    -50.7490730 -0.213781E-09  0.852E-05    8.98     230.1  T
speedup  1.11
cpu  time for SCC    0.00 s
wall time for SCC    0.00 s
speedup  0.99
cpu  time for grad    0.01 s
wall time for grad    0.01 s
 E :    -50.45692943  G :  0.000216    pred/act E change:  0.000D+00 -0.242D-06
Maxdispl :   0.0057   ||displ|| :   0.0151   Lambda : -0.703D-06
Largest |displ|/coords:  0.0057 (   3)  0.0054 (   2)  0.0052 (   6)
................................................................................
.............................. CYCLE  115 ......................................
................................................................................
   1    -50.7490898 -0.507491E+02  0.991E-03    8.98       0.0  T
   2    -50.7490898 -0.147166E-07  0.742E-03    8.98       2.6  T
   3    -50.7490898 -0.147151E-07  0.961E-04    8.98      20.4  T
   4    -50.7490898 -0.152264E-08  0.258E-04    8.98      76.2  T
speedup  0.86
cpu  time for SCC    0.00 s
wall time for SCC    0.00 s
speedup  1.00
cpu  time for grad    0.01 s
wall time for grad    0.01 s
 E :    -50.45692982  G :  0.000283    pred/act E change: -0.144D-06 -0.385D-06
Maxdispl :   0.0036   ||displ|| :   0.0096   Lambda : -0.300D-06
Largest |displ|/coords:  0.0036 (   6)  0.0036 (   2)  0.0034 (  14)
................................................................................
.............................. CYCLE  116 ......................................
................................................................................
   1    -50.7490796 -0.507491E+02  0.679E-03    8.97       0.0  T
   2    -50.7490796 -0.415899E-08  0.511E-03    8.97       3.8  T
   3    -50.7490797 -0.500881E-08  0.448E-04    8.98      43.7  T
   4    -50.7490797 -0.244363E-09  0.131E-04    8.98     149.8  T
speedup  0.86
cpu  time for SCC    0.00 s
wall time for SCC    0.00 s
speedup  1.00
cpu  time for grad    0.01 s
wall time for grad    0.01 s
 E :    -50.45692994  G :  0.000338    pred/act E change: -0.351D-06 -0.123D-06
Maxdispl :   0.0029   ||displ|| :   0.0067   Lambda : -0.228D-06
Largest |displ|/coords:  0.0029 (   2)  0.0025 (   5)  0.0024 (   3)
................................................................................
.............................. CYCLE  117 ......................................
................................................................................
   1    -50.7490697 -0.507491E+02  0.452E-03    8.97       0.0  T
   2    -50.7490697 -0.217398E-08  0.341E-03    8.98       5.8  T
   3    -50.7490697 -0.263724E-08  0.299E-04    8.98      65.5  T
   4    -50.7490697 -0.122306E-09  0.106E-04    8.98     185.3  T
speedup  1.08
cpu  time for SCC    0.00 s
wall time for SCC    0.00 s
speedup  0.99
cpu  time for grad    0.01 s
wall time for grad    0.01 s
 E :    -50.45693013  G :  0.000249    pred/act E change: -0.150D-06 -0.188D-06
Maxdispl :   0.0087   ||displ|| :   0.0211   Lambda : -0.512D-06
Largest |displ|/coords:  0.0087 (   5)  0.0080 (   6)  0.0076 (   2)
................................................................................
.............................. CYCLE  118 ......................................
................................................................................
   1    -50.7490387 -0.507490E+02  0.146E-02    8.97       0.0  T
   2    -50.7490387 -0.237735E-07  0.110E-02    8.97       1.8  T
   3    -50.7490387 -0.273596E-07  0.103E-03    8.98      19.1  T
   4    -50.7490387 -0.165374E-08  0.397E-04    8.98      49.5  T
   5    -50.7490387 -0.163155E-09  0.112E-04    8.98     174.5  T
speedup  1.14
cpu  time for SCC    0.00 s
wall time for SCC    0.00 s
speedup  1.01
cpu  time for grad    0.01 s
wall time for grad    0.01 s
 E :    -50.45693045  G :  0.000161    pred/act E change: -0.114D-06 -0.319D-06
Maxdispl :   0.0056   ||displ|| :   0.0136   Lambda : -0.198D-06
Largest |displ|/coords:  0.0056 (   5)  0.0053 (   2)  0.0052 (   6)
................................................................................
.............................. CYCLE  119 ......................................
................................................................................
   1    -50.7490356 -0.507490E+02  0.980E-03    8.97       0.0  T
   2    -50.7490357 -0.121157E-07  0.738E-03    8.97       2.7  T
   3    -50.7490357 -0.136402E-07  0.766E-04    8.98      25.6  T
   4    -50.7490357 -0.932793E-09  0.293E-04    8.98      66.9  T
speedup  1.11
cpu  time for SCC    0.00 s
wall time for SCC    0.00 s
speedup  1.00
cpu  time for grad    0.01 s
wall time for grad    0.01 s
 E :    -50.45693060  G :  0.000179    pred/act E change: -0.256D-06 -0.153D-06
Maxdispl :   0.0070   ||displ|| :   0.0154   Lambda : -0.228D-06
Largest |displ|/coords:  0.0070 (   7)  0.0065 (   5)  0.0060 (   6)
................................................................................
.............................. CYCLE  120 ......................................
................................................................................
   1    -50.7490560 -0.507491E+02  0.116E-02    8.97       0.0  T
   2    -50.7490560 -0.182472E-07  0.870E-03    8.97       2.3  T
   3    -50.7490560 -0.203013E-07  0.102E-03    8.97      19.2  T
   4    -50.7490560 -0.143588E-08  0.352E-04    8.97      55.7  T
   5    -50.7490560 -0.130328E-09  0.937E-05    8.97     209.2  T
speedup  0.91
cpu  time for SCC    0.00 s
wall time for SCC    0.00 s
speedup  1.02
cpu  time for grad    0.01 s
wall time for grad    0.01 s
 E :    -50.45693078  G :  0.000172    pred/act E change: -0.989D-07 -0.182D-06
Maxdispl :   0.0073   ||displ|| :   0.0150   Lambda : -0.165D-06
Largest |displ|/coords:  0.0073 (   7)  0.0059 (   5)  0.0059 (   6)
................................................................................
.............................. CYCLE  121 ......................................
................................................................................
   1    -50.7490850 -0.507491E+02  0.114E-02    8.97       0.0  T
   2    -50.7490851 -0.169956E-07  0.857E-03    8.97       2.3  T
   3    -50.7490851 -0.206524E-07  0.967E-04    8.97      20.3  T
   4    -50.7490851 -0.102753E-08  0.307E-04    8.97      63.9  T
speedup  1.11
cpu  time for SCC    0.00 s
wall time for SCC    0.00 s
speedup  1.07
cpu  time for grad    0.01 s
wall time for grad    0.01 s
 E :    -50.45693088  G :  0.000145    pred/act E change: -0.114D-06 -0.998D-07
Maxdispl :   0.0009   ||displ|| :   0.0021   Lambda : -0.483D-07
Largest |displ|/coords:  0.0009 (   7)  0.0008 (   2)  0.0006 (   1)

   *** GEOMETRY OPTIMIZATION CONVERGED AFTER 121 ITERATIONS ***

------------------------------------------------------------------------
 total energy gain (kcal):     -0.0011
------------------------------------------------------------------------
================
 final structure:
================
$coord
       -2.05057996693625        2.74566705047491       -2.53136220059819      S 
       -0.88256591607877        0.53141046165901       -3.71238084554125      O 
       -0.18425478091276        4.63044521532139       -1.84944952454393      O 
       -3.71917907552802        2.03651447897769       -0.48765766699092      O 
       -3.77116020002650        4.00743236554099       -4.63746051569248      O 
       -5.24807271860378        2.97737375069741       -4.70788218396036      H 
       -1.80694524674287        2.10963226119906        1.90897016721799      H 
       -0.56993972168745        2.15315392011333        3.30433494474424      O 
       -0.44839076225000        3.89601628390965        3.78306861440880      H 
       -2.69775127133279       -2.72764468871290        4.18947005255917      O 
       -1.16230076797578       -3.70347542677255        4.20776791380636      H 
       -2.19061736293751       -0.98022007205924        4.30737891833636      H 
        1.86741710087230       -4.82055816289026        1.54836331672389      O 
        0.35561076705321       -4.46568176200604        0.48122900230763      H 
        2.53390171346096       -6.40189556655795        0.97873847413803      H 
       -2.21087479838902       -3.60143356050522       -0.98877206237477      O 
       -3.13403487440959       -3.05802966787064        0.50406378305958      H 
       -1.92420896305281       -2.10301025938450       -2.01410324822962      H 
        3.82836460406523       -0.22092885507910        2.18443374223303      O 
        2.33502269197686        0.65383248096132        2.84142837803548      H 
        3.32146923568979       -2.00154630497089        2.06469043857479      H 
        3.96305655819167        0.82233527114240       -0.45447369792215      H 
        3.64908679712318        1.66184007166943       -2.30887139375435      N 
        5.25268974537513        1.88800146755802       -3.33168408996115      H 
        2.63957690951946        3.35085027826639       -2.03488888279606      H 
        2.25468028466536        0.61991895045248       -3.24495145270989      H 
$end
 
 Bond Distances (Angstroems)
 ---------------------------
S1-O2=1.4648         S1-O3=1.4493         S1-O4=1.4457         S1-O5=1.5865         O2-S1=1.4648         O3-S1=1.4493         
O4-S1=1.4457         O5-S1=1.5865         O5-H6=0.9536         H6-O5=0.9536         H7-O8=0.9870         O8-H7=0.9870         
O8-H9=0.9586         H9-O8=0.9586         O10-H11=0.9628       O10-H12=0.9649       H11-O10=0.9628       H12-O10=0.9649       
O13-H14=0.9971       O13-H15=0.9568       H14-O13=0.9971       H15-O13=0.9568       O16-H17=0.9723       O16-H18=0.9727       
H17-O16=0.9723       H18-O16=0.9727       O19-H20=0.9796       O19-H21=0.9817       H20-O19=0.9796       H21-O19=0.9817       
H22-N23=1.0899       N23-H22=1.0899       N23-H24=1.0136       N23-H25=1.0513       N23-H26=1.0459       H24-N23=1.0136       
H25-N23=1.0513       H26-N23=1.0459       
 N  H  Rav=1.0502 sigma=0.0271  Rmin=1.0136  Rmax=1.0899     4
 O  H  Rav=0.9716 sigma=0.0131  Rmin=0.9536  Rmax=0.9971    11
 S  O  Rav=1.4866 sigma=0.0581  Rmin=1.4457  Rmax=1.5865     4
 
 selected bond angles (degree)
 --------------------
O3-S1-O2=111.67                O4-S1-O2=111.67                O4-S1-O3=114.12                O5-S1-O2=106.21                
O5-S1-O3=106.04                O5-S1-O4=106.51                H6-O5-S1=104.91                H9-O8-H7=105.35                
H12-O10-H11=106.18             
 
 selected dihedral angles (degree)
 ---------------------------------
H6-O5-S1-O2= 77.56            H6-O5-S1-O3=196.48            H6-O5-S1-O4=318.40            
 
 CMA Distance (Angstroems)
 ---------------------------
R(CMA):  3.3182

========================================================================
 FINAL SINGLEPOINT CALCULATION ON OPTIMIZED GEOMETRY
========================================================================

 Ncao       : 65
 Nao        : 64
 Nshell     : 38
 Nel        : 80
 T(el)      :   300.0
 intcut     :    25.0
 scfconv/Eh :  0.100E-05
   qconv/e  :  0.100E-03
 intneglect :  0.100E-07
 broydamp   :      0.250
 iter      E             dE          RMSdq      gap      omega  full diag
   1    -50.7490851 -0.507491E+02  0.128E-04    8.97       0.0  T
   2    -50.7490851 -0.678568E-11  0.830E-05    8.97     236.2  T
   3    -50.7490851 -0.469669E-11  0.150E-05    8.97    1308.3  T
speedup  1.11
cpu  time for SCC    0.00 s
wall time for SCC    0.00 s

   *** convergence criteria satisfied after 3 iterations ***

          eigenvalues
 #    :          28         29         30         31         32         33         34         35
 occ. :        2.000      2.000      2.000      2.000      2.000      2.000      2.000      2.000
 eps  :       -13.374    -13.187    -12.630    -12.419    -12.364    -12.278    -12.205    -12.137
 #    :          36         37         38         39         40         41         42         43
 occ. :        2.000      2.000      2.000      2.000      2.000      0.000      0.000      0.000
 eps  :       -12.075    -12.037    -11.888    -11.599    -11.395     -2.421     -0.880     -0.581
 #    :          44         45         46         47         48         49         50         51
 occ. :        0.000      0.000      0.000      0.000      0.000      0.000      0.000      0.000
 eps  :         0.525      0.845      1.076      2.139      3.040      4.032      4.402      4.733


   #   Z            q   n(s)   n(p)   n(d)      C6AA      α(0)
   1  16 S      1.662  1.586  1.797  0.954    89.628    15.934
   2   8 O     -0.756  1.773  4.983  0.000    30.267     7.376
   3   8 O     -0.718  1.760  4.958  0.000    29.209     7.246
   4   8 O     -0.732  1.772  4.960  0.000    29.596     7.294
   5   8 O     -0.586  1.750  4.836  0.000    24.819     6.725
   6   1 H      0.346  0.654  0.000  0.000     0.590     1.203
   7   1 H      0.329  0.671  0.000  0.000     0.640     1.257
   8   8 O     -0.629  1.741  4.888  0.000    25.903     6.869
   9   1 H      0.293  0.707  0.000  0.000     0.741     1.352
  10   8 O     -0.606  1.750  4.856  0.000    25.333     6.793
  11   1 H      0.301  0.699  0.000  0.000     0.719     1.331
  12   1 H      0.308  0.692  0.000  0.000     0.698     1.312
  13   8 O     -0.638  1.750  4.887  0.000    26.113     6.897
  14   1 H      0.339  0.661  0.000  0.000     0.615     1.232
  15   1 H      0.278  0.722  0.000  0.000     0.792     1.398
  16   8 O     -0.621  1.748  4.873  0.000    25.701     6.842
  17   1 H      0.323  0.677  0.000  0.000     0.656     1.272
  18   1 H      0.308  0.692  0.000  0.000     0.697     1.311
  19   8 O     -0.617  1.757  4.859  0.000    25.576     6.826
  20   1 H      0.330  0.670  0.000  0.000     0.637     1.254
  21   1 H      0.337  0.663  0.000  0.000     0.620     1.237
  22   1 H      0.308  0.692  0.000  0.000     0.689     1.300
  23   7 N     -0.356  1.274  4.082  0.000    29.161     8.020
  24   1 H      0.232  0.768  0.000  0.000     0.958     1.533
  25   1 H      0.284  0.716  0.000  0.000     0.764     1.369
  26   1 H      0.281  0.719  0.000  0.000     0.774     1.378

 Mol. C6AA /au·bohr⁶  :       5445.454344
 Mol. C8AA /au·bohr⁸  :     117887.223841
 Mol. α(0) /au        :        106.563787

 
 Wiberg/Mayer (AO) data. WBOs > 0.1 written file <wbo>
 largest (>0.05) Wiberg bond orders for each atom
           total WBO             WBO to atom ...
     1  S   4.867    O    3 1.344    O    4 1.331    O    2 1.264    O    5 0.896
     2  O   1.722    S    1 1.264    O    3 0.110    O    4 0.108    O    5 0.072    H   26 0.070
     3  O   1.753    S    1 1.344    O    2 0.110    O    4 0.110    H   25 0.080    O    5 0.062
     4  O   1.739    S    1 1.331    O    3 0.110    O    2 0.108    O    5 0.078    H    7 0.073
     5  O   1.975    S    1 0.896    H    6 0.863    O    4 0.078    O    2 0.072    O    3 0.062
     6  H   0.880    O    5 0.863
     7  H   0.892    O    8 0.810    O    4 0.073
     8  O   1.860    H    9 0.907    H    7 0.810    H   20 0.053
     9  H   0.914    O    8 0.907
    10  O   1.848    H   11 0.898    H   12 0.882
    11  H   0.910    O   10 0.898
    12  H   0.905    O   10 0.882
    13  O   1.843    H   15 0.915    H   14 0.789    H   21 0.059
    14  H   0.885    O   13 0.789    O   16 0.092
    15  H   0.923    O   13 0.915
    16  O   1.895    H   17 0.864    H   18 0.856    H   14 0.092
    17  H   0.896    O   16 0.864
    18  H   0.905    O   16 0.856
    19  O   1.966    H   20 0.836    H   21 0.825    H   22 0.170    N   23 0.075
    20  H   0.891    O   19 0.836    O    8 0.053
    21  H   0.887    O   19 0.825    O   13 0.059
    22  H   0.905    N   23 0.732    O   19 0.170
    23  N   3.509    H   24 0.942    H   26 0.843    H   25 0.831    H   22 0.732    O   19 0.075
    24  H   0.946    N   23 0.942
    25  H   0.919    N   23 0.831    O    3 0.080
    26  H   0.921    N   23 0.843    O    2 0.070
 MOs/occ written to file <molden.input>
 
molecular dipole:
                 x           y           z       tot (Debye)
 q only:        2.198       0.035      -0.609
   full:        1.659       0.387      -1.045       5.079
molecular quadrupole (traceless):
                xx          xy          yy          xz          yz          zz
 q only:        7.065       0.025      -5.233      -4.035       3.984      -1.832
  q+dip:        5.517      -4.217      -3.824      -2.420       4.379      -1.694
   full:        5.712      -4.458      -3.544      -2.078       4.428      -2.168

SCC energy    :     -50.7490851
rep           :       0.2917844
ES            :       0.2672352
AES           :      -0.0722486
AXC           :      -0.0081420
disp          :      -0.0190754
XB            :       0.0000000
fix           :       0.0000000
total E       :     -50.4569309
atomizationE  :       4.9872351     3129.54
(atE without considering molecular charge,
 total energy contains solvation terms)
H-L gap (eV)  :          8.9740
optimized geometry written to: xtbopt.xyz


------------------------------------------------------------------------
 * finished run on 2019/09/16 at 11:36:24.775     
------------------------------------------------------------------------
 total:
 * wall-time:     0 d,  0 h,  0 min,  2.670 sec
 *  cpu-time:     0 d,  0 h,  0 min,  2.645 sec
 * ratio c/w:     0.990 speedup
 SCF:
 * wall-time:     0 d,  0 h,  0 min,  0.153 sec
 *  cpu-time:     0 d,  0 h,  0 min,  0.144 sec
 * ratio c/w:     0.943 speedup
 ANC optimizer:
 * wall-time:     0 d,  0 h,  0 min,  2.492 sec
 *  cpu-time:     0 d,  0 h,  0 min,  2.478 sec
 * ratio c/w:     0.994 speedup

