      -----------------------------------------------------------      
     |                   =====================                   |     
     |                           x T B                           |     
     |                   =====================                   |     
     |                         S. Grimme                         |     
     |          Mulliken Center for Theoretical Chemistry        |     
     |                    University of Bonn                     |     
     |                 Version 6.0.1 (SAW181210)                 |     
      -----------------------------------------------------------      

   This program is distributed in the hope that it will be useful,
   but WITHOUT ANY WARRANTY; without even the implied warranty of
   MERCHANTABILITY or FITNESS FOR A PARTICULAR PURPOSE.
   
   FOR NON-COMMERCIAL, ACADEMIA USE ONLY.
   
   Cite this work as:
   S. Grimme, C. Bannwarth, P. Shushkov, J. Comput. Theory Chem., 2017,
   13, 1989-2009.
   C. Bannwarth, S. Ehlert and S. Grimme., ChemRxiv, 2018, preprint.
   http://doi.org/10.26434/chemrxiv.7246238.v1
   
   for sTDA-xTB:
   S. Grimme and C. Bannwarth, J. Chem. Phys., 2016, 145, 054103.
   
   in the mass-spec context:
   V. Asgeirsson, C. Bauer and S. Grimme, Chem. Sci., 2017, 8, 4879.
   
   if GBSA is used:
   P. Shushkov, F. März and S. Grimme, unpublished.
   
   for ANC optimizer:
   S. Grimme, unpublished.
   Rational Function algorithm used in ANCopt:
   F. Eckert, P. Pulay, H.-J. Werner, J. Comput. Chem., 1997, 18, 1473.
   
   with help from (in alphabetical order)
   C. Bannwarth, F. Bohle, G. Brandenburg, E. Caldeweyher, M. Checinski,
   S. Dohm, S. Ehlert, S. Ehrlich, F. März, H. Neugebauer, J. Pisarek,
   P. Pracht, P. Shushkov, and S. Spicher.
   
 * started run on 2019/09/16 at 12:33:15.938     
========================================================================
 # omp threads = 1
========================================================================
number of atoms            : 26
number of electrons        : 80
charge                     : 0
spin                       : .0
first test random number   : .0202

########################################################################
# WARNING! Please study the warnings concerning your input carefully
#  - XTBPATH is not set, using XTBHOME instead
#  - the use of '-opt' is discouraged, please use '--opt' next time
#  - the use of '-chrg' is discouraged, please use '--chrg' next time
#  - the use of '-uhf' is discouraged, please use '--uhf' next time
########################################################################

           ------------------------------------------------- 
          |                 G F N 2 - x T B                 |
          | Geometry, Frequencies, Noncovalent interactions |
          |            JCTC 2018 parametrisation            |
           ------------------------------------------------- 
      method parameters     
 k(s)        :  1.8500
 k(p)        :  2.2300
 k(d)        :  2.2300
 k(f)        :  2.0000
 kEN (H0ij)  : -2.0000
 D4 a1       :  0.5200
 D4 a2       :  5.0000
 D4 s6       :  1.0000
 D4 s8       :  2.7000
 D4 s9       :  5.0000
 alphaj      :  2.0000


            Z     q(EN)     CN     RAES       Cart. coordinates
     1  S   6.0    0.61    4.53    4.59     0.28923     1.41368    -2.16441
     2  O   6.0   -0.31    1.17    1.80     2.14761     1.78484    -0.08191
     3  O   6.0   -0.32    1.22    1.80    -2.30471     1.96217    -1.21639
     4  O   6.0   -0.27    2.13    1.84     0.41221    -1.21301    -3.05763
     5  O   6.0   -0.25    2.10    1.84     0.89174     3.13332    -4.26020
     6  H   1.0    0.16    1.29    1.49     1.23462     2.16711    -5.75686
     7  H   1.0    0.18    1.39    1.53     0.01874    -2.33706    -1.68914
     8  O   6.0   -0.39    1.64    1.81    -0.70171    -3.66760     0.71515
     9  H   1.0    0.17    0.95    1.42    -0.67242    -5.53235     0.64033
    10  O   6.0   -0.29    2.05    1.83    -3.87292     1.92084     3.68280
    11  H   1.0    0.17    1.02    1.43    -3.42295     2.53347     2.02846
    12  H   1.0    0.15    0.98    1.43    -5.30601     0.82946     3.41868
    13  O   6.0   -0.28    1.98    1.82    -5.15211    -2.05632     0.46065
    14  H   1.0    0.16    1.01    1.43    -4.70377    -0.53548    -0.43415
    15  H   1.0    0.18    1.09    1.44    -3.60208    -2.99873     0.61513
    16  O   6.0   -0.29    2.01    1.83     1.75595     0.34847    -8.38750
    17  H   1.0    0.14    0.97    1.43     2.18830     1.00558   -10.02941
    18  H   1.0    0.15    0.97    1.43     1.62808    -1.45411    -8.60874
    19  O   6.0   -0.23    2.92    2.58    -0.09524    -1.14410     4.42719
    20  H   1.0    0.17    1.22    1.47    -0.26554    -2.32931     2.99327
    21  H   1.0    0.13    1.07    1.44     1.58538    -0.32926     4.46653
    22  H   1.0    0.14    1.05    1.44    -1.48058     0.10921     4.46678
    23  N   5.0   -0.22    3.05    1.93     4.46802     1.27841     4.69759
    24  H   1.0    0.13    1.03    1.43     4.00235     1.72587     2.88265
    25  H   1.0    0.10    0.99    1.43     6.19274     0.42581     4.60012
    26  H   1.0    0.11    0.99    1.43     4.76504     2.95909     5.59099

  Z AO/shell   Hii/eV     exponent
  1     Wed Apr 25 08:07:45 CEST 2018   EN: 2.200 GM2: 0.406  GM3: 0.0800  RAES: 1.40
     1s    -10.707211    1.230000
  7     Wed Apr 25 08:07:45 CEST 2018   EN: 3.040 GM2: 0.461  GM3:-0.0640  RAES: 1.90
     2s    -16.686243    2.339881
     2p    -12.523956    2.014332
  8     Wed Apr 25 08:07:45 CEST 2018   EN: 3.440 GM2: 0.452  GM3:-0.0517  RAES: 1.80
     2s    -20.229985    2.439742
     2p    -15.503117    2.137023
 16     Tue Apr 24 11:44:34 CEST 2018   EN: 2.580 GM2: 0.340  GM3:-0.0502  RAES: 3.10
     3s    -20.029654    1.981333
     3p    -11.377694    2.025643
     3d     -0.420282    1.702555
 no old-style atom pair restraining (fixing) potential

molecular fragmentation (1/2 indicates fragments):
11111112222222222222222222
# atoms in fragment 1/2:     7    19
 fragment masses (1/2) :       98.07      107.11
CMA distance (Bohr)    :   3.732
constraining FC (au)   :  0.0500
           ------------------------------------------------- 
          |        Self-Consistent Charge Iterations        |
           ------------------------------------------------- 

 Ncao       : 65
 Nao        : 64
 Nshell     : 38
 Nel        : 80
 T(el)      :   300.0
 intcut     :    25.0
 scfconv/Eh :  0.100E-05
   qconv/e  :  0.100E-03
 intneglect :  0.100E-07
 broydamp   :      0.250
 iter      E             dE          RMSdq      gap      omega  full diag
   1    -50.5836002 -0.505836E+02  0.708E+00   10.23       0.0  T
   2    -50.6388537 -0.552535E-01  0.511E+00    9.50       1.0  T
   3    -50.6778638 -0.390101E-01  0.142E+00    6.81       1.0  T
   4    -50.6844150 -0.655121E-02  0.607E-01    7.06       1.0  T
   5    -50.6850584 -0.643337E-03  0.375E-01    6.98       1.0  T
   6    -50.6857642 -0.705811E-03  0.162E-01    7.08       1.0  T
   7    -50.6859323 -0.168156E-03  0.610E-02    7.09       1.0  T
   8    -50.6859524 -0.200883E-04  0.368E-02    7.08       1.0  T
   9    -50.6859610 -0.860620E-05  0.140E-02    7.09       1.4  T
  10    -50.6859624 -0.133471E-05  0.263E-03    7.10       7.5  T
  11    -50.6859624 -0.255258E-07  0.126E-03    7.10      15.6  T
  12    -50.6859624 -0.584592E-08  0.527E-04    7.10      37.2  T
  13    -50.6859624 -0.126204E-08  0.175E-04    7.10     112.0  T
speedup  1.01
cpu  time for SCC    0.01 s
wall time for SCC    0.01 s

   *** convergence criteria satisfied after 13 iterations ***

          eigenvalues
 #    :          28         29         30         31         32         33         34         35
 occ. :        2.000      2.000      2.000      2.000      2.000      2.000      2.000      2.000
 eps  :       -13.246    -12.567    -12.425    -12.182    -12.157    -11.908    -11.729    -11.564
 #    :          36         37         38         39         40         41         42         43
 occ. :        2.000      2.000      2.000      2.000      2.000      0.000      0.000      0.000
 eps  :       -11.405    -11.062    -10.113     -9.987     -9.444     -2.347     -1.047      0.150
 #    :          44         45         46         47         48         49         50         51
 occ. :        0.000      0.000      0.000      0.000      0.000      0.000      0.000      0.000
 eps  :         0.328      0.812      0.856      2.182      3.443      4.625      5.254      5.344


   #   Z            q   n(s)   n(p)   n(d)      C6AA      α(0)
   1  16 S      1.714  1.576  1.771  0.938    88.448    15.829
   2   8 O     -0.737  1.768  4.969  0.000    29.724     7.310
   3   8 O     -0.733  1.772  4.961  0.000    29.627     7.298
   4   8 O     -0.603  1.724  4.879  0.000    25.225     6.780
   5   8 O     -0.563  1.719  4.844  0.000    24.296     6.654
   6   1 H      0.402  0.598  0.000  0.000     0.474     1.077
   7   1 H      0.415  0.585  0.000  0.000     0.451     1.050
   8   8 O     -0.871  1.841  5.030  0.000    33.765     7.792
   9   1 H      0.212  0.788  0.000  0.000     1.060     1.618
  10   8 O     -0.604  1.735  4.869  0.000    25.280     6.786
  11   1 H      0.325  0.675  0.000  0.000     0.651     1.268
  12   1 H      0.320  0.680  0.000  0.000     0.662     1.278
  13   8 O     -0.672  1.755  4.916  0.000    26.963     7.008
  14   1 H      0.282  0.718  0.000  0.000     0.778     1.386
  15   1 H      0.312  0.688  0.000  0.000     0.685     1.300
  16   8 O     -0.585  1.738  4.847  0.000    24.833     6.726
  17   1 H      0.308  0.692  0.000  0.000     0.699     1.313
  18   1 H      0.314  0.686  0.000  0.000     0.679     1.294
  19   8 O     -0.461  1.656  4.805  0.000    22.010     6.336
  20   1 H      0.405  0.595  0.000  0.000     0.469     1.072
  21   1 H      0.378  0.622  0.000  0.000     0.526     1.140
  22   1 H      0.394  0.606  0.000  0.000     0.497     1.107
  23   7 N     -0.457  1.383  4.074  0.000    32.031     8.405
  24   1 H      0.203  0.797  0.000  0.000     1.090     1.635
  25   1 H      0.150  0.850  0.000  0.000     1.403     1.855
  26   1 H      0.152  0.848  0.000  0.000     1.387     1.845

 Mol. C6AA /au·bohr⁶  :       5502.148603
 Mol. C8AA /au·bohr⁸  :     118778.494966
 Mol. α(0) /au        :        107.162530

 
 Wiberg/Mayer (AO) data. WBOs > 0.1 written file <wbo>
 largest (>0.05) Wiberg bond orders for each atom
           total WBO             WBO to atom ...
     1  S   4.805    O    2 1.330    O    3 1.312    O    4 1.071    O    5 1.044
     2  O   1.673    S    1 1.330    O    3 0.131    O    4 0.092    O    5 0.076
     3  O   1.692    S    1 1.312    O    2 0.131    O    4 0.091    O    5 0.075
     4  O   2.002    S    1 1.071    H    7 0.640    O    2 0.092    O    3 0.091    O    5 0.052
     5  O   2.041    S    1 1.044    H    6 0.761    O    2 0.076    O    3 0.075    O    4 0.052
     6  H   0.838    O    5 0.761    O   16 0.055
     7  H   0.828    O    4 0.640    O    8 0.168
     8  O   1.579    H    9 0.945    H   20 0.197    H    7 0.168    H   15 0.097    O   19 0.061
     9  H   0.955    O    8 0.945
    10  O   1.914    H   12 0.881    H   11 0.860    H   22 0.102
    11  H   0.895    O   10 0.860
    12  H   0.897    O   10 0.881
    13  O   1.787    H   14 0.892    H   15 0.805
    14  H   0.921    O   13 0.892
    15  H   0.903    O   13 0.805    O    8 0.097
    16  O   1.869    H   17 0.901    H   18 0.895    H    6 0.055
    17  H   0.905    O   16 0.901
    18  H   0.901    O   16 0.895
    19  O   2.281    H   21 0.763    H   22 0.739    H   20 0.633    O    8 0.061
    20  H   0.836    O   19 0.633    O    8 0.197
    21  H   0.857    O   19 0.763    N   23 0.083
    22  H   0.845    O   19 0.739    O   10 0.102
    23  N   3.012    H   25 0.974    H   26 0.972    H   24 0.927    H   21 0.083
    24  H   0.959    N   23 0.927
    25  H   0.978    N   23 0.974
    26  H   0.977    N   23 0.972
 MOs/occ written to file <molden.input>
 
molecular dipole:
                 x           y           z       tot (Debye)
 q only:        1.897       0.213      -1.011
   full:        2.443       0.071      -2.317       8.560
molecular quadrupole (traceless):
                xx          xy          yy          xz          yz          zz
 q only:      -15.215      -3.594     -14.963      -3.179       1.879      30.178
  q+dip:      -15.474      -2.830     -15.081      -2.254       4.182      30.555
   full:      -16.331      -2.781     -14.315      -2.524       3.913      30.646

SCC energy    :     -50.6859624
rep           :       0.3024817
ES            :       0.2752060
AES           :      -0.0621428
AXC           :      -0.0066265
disp          :      -0.0184299
XB            :       0.0000000
fix           :       0.0000000
total E       :     -50.3832850
atomizationE  :       4.9135892     3083.32
(atE without considering molecular charge,
 total energy contains solvation terms)
H-L gap (eV)  :          7.0968
           ------------------------------------------------- 
          |                 ===============                 |
          |                   A N C O P T                   |
          |                 ===============                 |
          |          Approximate Normal Coordinate          |
          |           Rational Function Optimizer           |
           ------------------------------------------------- 
dumping coords to <xtbopt.coord> and <xtbopt.log>
 optlevel               2
 Maxcycle             520
 Maxmicro              25
 Econv         1.000000000000000E-007
 Gconv         2.000000000000000E-004
 Maxdispl       1.00000000000000     
 Hlow          5.000000000000000E-003
 S6             20.0000000000000     
 Nvar               72

generating ANC from model Hessian ...
 Shifting diagonal of input Hessian by   5.130701308287485E-003
 Lowest  eigenvalues of input Hessian
    0.005000   -0.000000   -0.000000   -0.000000    0.000000    0.000000
    0.000000    0.005138    0.005504    0.005618    0.005647    0.005754
    0.006172    0.006402    0.006617    0.007448    0.007750    0.008068
 Highest eigenvalues
    1.562076    1.574756    1.594353    3.213376    3.413840    3.464529
 
cpu  time for ANC gen    0.02 s
wall time for ANC gen    0.02 s
................................................................................
.............................. CYCLE    1 ......................................
................................................................................
   1    -50.6859624 -0.506860E+02  0.678E-05    7.10       0.0  T
   2    -50.6859624 -0.135643E-10  0.517E-05    7.10     379.4  T
   3    -50.6859624 -0.853362E-11  0.306E-05    7.10     640.1  T
speedup  1.03
cpu  time for SCC    0.00 s
wall time for SCC    0.00 s
speedup  0.97
cpu  time for grad    0.01 s
wall time for grad    0.01 s
 E :    -50.38328497  G :  0.218822    pred/act E change:  0.000D+00  0.394D-07
Maxdispl :   0.1025   ||displ|| :   0.2814   Lambda : -0.294D-01
Largest |displ|/coords:  0.1025 (  23)  0.0893 (  28)  0.0747 (  54)
................................................................................
.............................. CYCLE    2 ......................................
................................................................................
   1    -50.6919680 -0.506920E+02  0.291E-01    7.38       0.0  T
   2    -50.6922317 -0.263707E-03  0.224E-01    7.47       1.0  T
   3    -50.6923372 -0.105472E-03  0.112E-01    7.62       1.0  T
   4    -50.6923455 -0.837410E-05  0.289E-02    7.66       1.0  T
   5    -50.6923469 -0.141514E-05  0.534E-03    7.65       3.7  T
   6    -50.6923470 -0.383377E-07  0.309E-03    7.65       6.4  T
speedup  0.93
cpu  time for SCC    0.01 s
wall time for SCC    0.01 s
speedup  0.98
cpu  time for grad    0.01 s
wall time for grad    0.01 s
 E :    -50.40608119  G :  0.134989    pred/act E change:  0.000D+00 -0.228D-01
Maxdispl :   0.1443   ||displ|| :   0.3288   Lambda : -0.142D-01
Largest |displ|/coords:  0.1443 (  23)  0.1014 (  22)  0.0974 (   6)
................................................................................
.............................. CYCLE    3 ......................................
................................................................................
   1    -50.6967756 -0.506968E+02  0.295E-01    7.83       0.0  T
   2    -50.6970787 -0.303069E-03  0.224E-01    7.95       1.0  T
   3    -50.6971911 -0.112453E-03  0.115E-01    8.11       1.0  T
   4    -50.6971979 -0.675048E-05  0.281E-02    8.16       1.0  T
   5    -50.6971998 -0.196999E-05  0.523E-03    8.14       3.7  T
   6    -50.6971999 -0.329468E-07  0.308E-03    8.14       6.4  T
speedup  0.93
cpu  time for SCC    0.00 s
wall time for SCC    0.01 s
speedup  0.98
cpu  time for grad    0.01 s
wall time for grad    0.01 s
 E :    -50.41763228  G :  0.083168    pred/act E change: -0.158D-01 -0.116D-01
Maxdispl :   0.1195   ||displ|| :   0.3519   Lambda : -0.812D-02
Largest |displ|/coords:  0.1195 (  23)  0.1131 (  24)  0.1065 (  22)
................................................................................
.............................. CYCLE    4 ......................................
................................................................................
   1    -50.7001765 -0.507002E+02  0.247E-01    8.27       0.0  T
   2    -50.7004298 -0.253319E-03  0.187E-01    8.37       1.0  T
   3    -50.7005266 -0.968013E-04  0.941E-02    8.46       1.0  T
   4    -50.7005324 -0.575624E-05  0.258E-02    8.49       1.0  T
   5    -50.7005338 -0.136786E-05  0.520E-03    8.49       3.8  T
   6    -50.7005338 -0.375742E-07  0.304E-03    8.48       6.5  T
speedup  0.91
cpu  time for SCC    0.01 s
wall time for SCC    0.01 s
speedup  0.98
cpu  time for grad    0.01 s
wall time for grad    0.01 s
 E :    -50.42401265  G :  0.047532    pred/act E change: -0.789D-02 -0.638D-02
Maxdispl :   0.1993   ||displ|| :   0.5761   Lambda : -0.923D-02
Largest |displ|/coords:  0.1993 (  13)  0.1723 (   6)  0.1693 (   3)
................................................................................
.............................. CYCLE    5 ......................................
................................................................................
   1    -50.6925833 -0.506926E+02  0.602E-01    8.26       0.0  T
   2    -50.6934777 -0.894422E-03  0.451E-01    8.40       1.0  T
   3    -50.6938044 -0.326685E-03  0.175E-01    8.65       1.0  T
   4    -50.6938527 -0.482778E-04  0.519E-02    8.66       1.0  T
   5    -50.6938605 -0.778004E-05  0.969E-03    8.64       2.0  T
   6    -50.6938606 -0.132936E-06  0.621E-03    8.64       3.2  T
   7    -50.6938607 -0.516523E-07  0.161E-03    8.64      12.2  T
   8    -50.6938607 -0.658392E-08  0.542E-04    8.64      36.2  T
speedup  0.97
cpu  time for SCC    0.01 s
wall time for SCC    0.01 s
speedup  1.01
cpu  time for grad    0.01 s
wall time for grad    0.01 s
 E :    -50.42687061  G :  0.053760    pred/act E change: -0.456D-02 -0.286D-02
Maxdispl :   0.2373   ||displ|| :   0.5093   Lambda : -0.120D-01
Largest |displ|/coords:  0.2373 (  17)  0.1787 (  18)  0.1721 (  16)
................................................................................
.............................. CYCLE    6 ......................................
................................................................................
   1    -50.7003020 -0.507003E+02  0.760E-01    8.68       0.0  T
   2    -50.7005034 -0.201470E-03  0.578E-01    8.62       1.0  T
   3    -50.7006208 -0.117332E-03  0.809E-02    8.48       1.0  T
   4    -50.7006563 -0.355568E-04  0.190E-02    8.56       1.0  T
   5    -50.7006578 -0.143044E-05  0.764E-03    8.58       2.6  T
   6    -50.7006578 -0.225151E-07  0.418E-03    8.58       4.7  T
   7    -50.7006578 -0.185690E-07  0.555E-04    8.58      35.3  T
speedup  0.95
cpu  time for SCC    0.01 s
wall time for SCC    0.01 s
speedup  1.00
cpu  time for grad    0.01 s
wall time for grad    0.01 s
 E :    -50.42812444  G :  0.036570    pred/act E change: -0.615D-02 -0.125D-02
Maxdispl :   0.1417   ||displ|| :   0.2961   Lambda : -0.296D-02
Largest |displ|/coords:  0.1417 (  14)  0.1288 (   3)  0.1075 (  12)
................................................................................
.............................. CYCLE    7 ......................................
................................................................................
   1    -50.7034161 -0.507034E+02  0.262E-01    8.56       0.0  T
   2    -50.7034819 -0.658499E-04  0.198E-01    8.58       1.0  T
   3    -50.7035112 -0.292106E-04  0.450E-02    8.63       1.0  T
   4    -50.7035209 -0.971240E-05  0.148E-02    8.63       1.3  T
   5    -50.7035216 -0.755311E-06  0.388E-03    8.63       5.1  T
   6    -50.7035216 -0.126880E-07  0.238E-03    8.63       8.2  T
speedup  1.11
cpu  time for SCC    0.01 s
wall time for SCC    0.01 s
speedup  1.06
cpu  time for grad    0.01 s
wall time for grad    0.01 s
 E :    -50.43019561  G :  0.035002    pred/act E change: -0.756D-02 -0.207D-02
Maxdispl :   0.3225   ||displ|| :   0.5318   Lambda : -0.464D-02
Largest |displ|/coords:  0.3225 (   6)  0.1392 (  14)  0.1376 (   2)
................................................................................
.............................. CYCLE    8 ......................................
................................................................................
   1    -50.7045065 -0.507045E+02  0.549E-01    8.49       0.0  T
   2    -50.7047354 -0.228873E-03  0.415E-01    8.58       1.0  T
   3    -50.7048533 -0.117936E-03  0.817E-02    8.76       1.0  T
   4    -50.7048880 -0.346246E-04  0.266E-02    8.73       1.0  T
   5    -50.7048902 -0.223543E-05  0.668E-03    8.72       2.9  T
   6    -50.7048902 -0.298317E-07  0.442E-03    8.72       4.4  T
   7    -50.7048903 -0.249585E-07  0.842E-04    8.72      23.3  T
speedup  0.98
cpu  time for SCC    0.01 s
wall time for SCC    0.01 s
speedup  1.01
cpu  time for grad    0.01 s
wall time for grad    0.01 s
 E :    -50.43098257  G :  0.041212    pred/act E change: -0.161D-02 -0.787D-03
Maxdispl :   0.1294   ||displ|| :   0.2487   Lambda : -0.290D-02
Largest |displ|/coords:  0.1294 (   3)  0.1206 (   6)  0.0662 (  24)
................................................................................
.............................. CYCLE    9 ......................................
................................................................................
   1    -50.7021819 -0.507022E+02  0.242E-01    8.80       0.0  T
   2    -50.7022101 -0.281767E-04  0.183E-01    8.79       1.0  T
   3    -50.7022279 -0.178655E-04  0.318E-02    8.76       1.0  T
   4    -50.7022320 -0.408898E-05  0.981E-03    8.78       2.0  T
   5    -50.7022322 -0.223026E-06  0.309E-03    8.78       6.3  T
   6    -50.7022322 -0.564448E-08  0.179E-03    8.78      11.0  T
speedup  1.11
cpu  time for SCC    0.01 s
wall time for SCC    0.01 s
speedup  0.99
cpu  time for grad    0.01 s
wall time for grad    0.01 s
 E :    -50.43277100  G :  0.025240    pred/act E change: -0.297D-02 -0.179D-02
Maxdispl :   0.2358   ||displ|| :   0.3191   Lambda : -0.160D-02
Largest |displ|/coords:  0.2358 (   3)  0.1104 (   7)  0.0871 (   2)
................................................................................
.............................. CYCLE   10 ......................................
................................................................................
   1    -50.6980954 -0.506981E+02  0.389E-01    8.88       0.0  T
   2    -50.6981768 -0.814116E-04  0.294E-01    8.89       1.0  T
   3    -50.6982272 -0.503674E-04  0.521E-02    8.90       1.0  T
   4    -50.6982391 -0.118958E-04  0.132E-02    8.91       1.5  T
   5    -50.6982394 -0.281040E-06  0.432E-03    8.91       4.5  T
   6    -50.6982394 -0.218609E-07  0.251E-03    8.91       7.8  T
speedup  0.94
cpu  time for SCC    0.00 s
wall time for SCC    0.01 s
speedup  1.00
cpu  time for grad    0.01 s
wall time for grad    0.01 s
 E :    -50.43267914  G :  0.049469    pred/act E change: -0.154D-02  0.919D-04
Maxdispl :   0.1698   ||displ|| :   0.3257   Lambda : -0.438D-02
Largest |displ|/coords:  0.1698 (   7)  0.0888 (  14)  0.0884 (  22)
................................................................................
.............................. CYCLE   11 ......................................
................................................................................
   1    -50.7132550 -0.507133E+02  0.359E-01    9.02       0.0  T
   2    -50.7133661 -0.111092E-03  0.268E-01    9.04       1.0  T
   3    -50.7134346 -0.684812E-04  0.614E-02    9.09       1.0  T
   4    -50.7134480 -0.134094E-04  0.166E-02    9.09       1.2  T
   5    -50.7134485 -0.495548E-06  0.631E-03    9.08       3.1  T
   6    -50.7134485 -0.254177E-07  0.347E-03    9.08       5.7  T
   7    -50.7134485 -0.195484E-07  0.821E-04    9.08      23.9  T
speedup  0.97
cpu  time for SCC    0.01 s
wall time for SCC    0.01 s
speedup  1.01
cpu  time for grad    0.01 s
wall time for grad    0.01 s
 E :    -50.43449955  G :  0.031573    pred/act E change: -0.880D-03 -0.182D-02
Maxdispl :   0.2041   ||displ|| :   0.4649   Lambda : -0.384D-02
Largest |displ|/coords:  0.2041 (  24)  0.1697 (   5)  0.1623 (  21)
................................................................................
.............................. CYCLE   12 ......................................
................................................................................
   1    -50.7019559 -0.507020E+02  0.433E-01    9.04       0.0  T
   2    -50.7022668 -0.310831E-03  0.319E-01    9.10       1.0  T
   3    -50.7024157 -0.148960E-03  0.981E-02    9.20       1.0  T
   4    -50.7024449 -0.291517E-04  0.319E-02    9.20       1.0  T
   5    -50.7024474 -0.247720E-05  0.937E-03    9.20       2.1  T
   6    -50.7024475 -0.166307E-06  0.632E-03    9.20       3.1  T
   7    -50.7024476 -0.474204E-07  0.107E-03    9.19      18.3  T
   8    -50.7024476 -0.338453E-08  0.297E-04    9.19      66.1  T
speedup  1.00
cpu  time for SCC    0.01 s
wall time for SCC    0.01 s
speedup  0.95
cpu  time for grad    0.01 s
wall time for grad    0.01 s
 E :    -50.43396405  G :  0.068931    pred/act E change: -0.242D-02  0.535D-03
Maxdispl :   0.1809   ||displ|| :   0.3573   Lambda : -0.120D-01
Largest |displ|/coords:  0.1809 (  22)  0.1238 (  21)  0.1142 (  24)
................................................................................
.............................. CYCLE   13 ......................................
................................................................................
   1    -50.7185639 -0.507186E+02  0.471E-01    9.37       0.0  T
   2    -50.7188752 -0.311310E-03  0.346E-01    9.36       1.0  T
   3    -50.7190701 -0.194893E-03  0.955E-02    9.35       1.0  T
   4    -50.7190977 -0.276507E-04  0.259E-02    9.35       1.0  T
   5    -50.7190991 -0.133702E-05  0.107E-02    9.35       1.8  T
   6    -50.7190991 -0.380734E-07  0.505E-03    9.35       3.9  T
   7    -50.7190992 -0.884439E-07  0.126E-03    9.35      15.5  T
speedup  0.97
cpu  time for SCC    0.01 s
wall time for SCC    0.01 s
speedup  1.01
cpu  time for grad    0.01 s
wall time for grad    0.01 s
 E :    -50.43437451  G :  0.083336    pred/act E change: -0.234D-02 -0.410D-03
Maxdispl :   0.1232   ||displ|| :   0.3138   Lambda : -0.113D-01
Largest |displ|/coords:  0.1232 (  22)  0.1167 (  26)  0.0980 (  24)
................................................................................
.............................. CYCLE   14 ......................................
................................................................................
   1    -50.7088633 -0.507089E+02  0.399E-01    9.26       0.0  T
   2    -50.7090734 -0.210059E-03  0.292E-01    9.28       1.0  T
   3    -50.7091860 -0.112641E-03  0.799E-02    9.30       1.0  T
   4    -50.7092059 -0.198938E-04  0.211E-02    9.30       1.0  T
   5    -50.7092070 -0.101936E-05  0.797E-03    9.31       2.5  T
   6    -50.7092071 -0.142843E-06  0.497E-03    9.31       3.9  T
   7    -50.7092071 -0.311262E-07  0.865E-04    9.31      22.7  T
speedup  0.97
cpu  time for SCC    0.01 s
wall time for SCC    0.01 s
speedup  0.94
cpu  time for grad    0.01 s
wall time for grad    0.01 s
 E :    -50.43758905  G :  0.052355    pred/act E change: -0.677D-02 -0.321D-02
Maxdispl :   0.0789   ||displ|| :   0.2252   Lambda : -0.466D-02
Largest |displ|/coords:  0.0789 (   3)  0.0753 (  23)  0.0618 (  22)
................................................................................
.............................. CYCLE   15 ......................................
................................................................................
   1    -50.7175847 -0.507176E+02  0.216E-01    9.39       0.0  T
   2    -50.7176358 -0.510725E-04  0.160E-01    9.39       1.0  T
   3    -50.7176684 -0.326225E-04  0.409E-02    9.38       1.0  T
   4    -50.7176733 -0.488594E-05  0.158E-02    9.38       1.2  T
   5    -50.7176737 -0.362716E-06  0.401E-03    9.38       4.9  T
   6    -50.7176737 -0.148043E-07  0.220E-03    9.38       8.9  T
speedup  0.94
cpu  time for SCC    0.01 s
wall time for SCC    0.01 s
speedup  0.99
cpu  time for grad    0.01 s
wall time for grad    0.01 s
 E :    -50.43969956  G :  0.031706    pred/act E change: -0.622D-02 -0.211D-02
Maxdispl :   0.0547   ||displ|| :   0.1883   Lambda : -0.194D-02
Largest |displ|/coords:  0.0547 (  25)  0.0538 (  32)  0.0535 (  31)
................................................................................
.............................. CYCLE   16 ......................................
................................................................................
   1    -50.7205462 -0.507205E+02  0.133E-01    9.40       0.0  T
   2    -50.7205583 -0.120396E-04  0.998E-02    9.40       1.0  T
   3    -50.7205687 -0.104662E-04  0.217E-02    9.39       1.0  T
   4    -50.7205702 -0.145461E-05  0.669E-03    9.39       2.9  T
   5    -50.7205702 -0.525976E-07  0.242E-03    9.39       8.1  T
   6    -50.7205703 -0.895593E-08  0.125E-03    9.39      15.7  T
speedup  0.94
cpu  time for SCC    0.00 s
wall time for SCC    0.01 s
speedup  1.00
cpu  time for grad    0.01 s
wall time for grad    0.01 s
 E :    -50.44139002  G :  0.026447    pred/act E change: -0.245D-02 -0.169D-02
Maxdispl :   0.1801   ||displ|| :   0.6097   Lambda : -0.638D-02
Largest |displ|/coords:  0.1801 (  32)  0.1796 (  25)  0.1613 (  29)
................................................................................
.............................. CYCLE   17 ......................................
................................................................................
   1    -50.7255986 -0.507256E+02  0.442E-01    9.35       0.0  T
   2    -50.7257169 -0.118225E-03  0.334E-01    9.35       1.0  T
   3    -50.7258349 -0.118028E-03  0.685E-02    9.34       1.0  T
   4    -50.7258473 -0.124076E-04  0.287E-02    9.34       1.0  T
   5    -50.7258483 -0.103894E-05  0.825E-03    9.34       2.4  T
   6    -50.7258484 -0.101479E-06  0.487E-03    9.34       4.0  T
   7    -50.7258485 -0.268140E-07  0.102E-03    9.34      19.3  T
speedup  0.97
cpu  time for SCC    0.01 s
wall time for SCC    0.01 s
speedup  1.01
cpu  time for grad    0.01 s
wall time for grad    0.01 s
 E :    -50.44386800  G :  0.039813    pred/act E change: -0.100D-02 -0.248D-02
Maxdispl :   0.1085   ||displ|| :   0.2370   Lambda : -0.332D-02
Largest |displ|/coords:  0.1085 (   9)  0.0875 (  32)  0.0820 (   8)
................................................................................
.............................. CYCLE   18 ......................................
................................................................................
   1    -50.7212462 -0.507212E+02  0.185E-01    9.28       0.0  T
   2    -50.7212641 -0.179354E-04  0.139E-01    9.29       1.0  T
   3    -50.7212844 -0.202960E-04  0.236E-02    9.30       1.0  T
   4    -50.7212855 -0.101751E-05  0.825E-03    9.30       2.4  T
   5    -50.7212856 -0.123435E-06  0.285E-03    9.30       6.9  T
   6    -50.7212856 -0.132714E-07  0.174E-03    9.30      11.3  T
speedup  1.13
cpu  time for SCC    0.01 s
wall time for SCC    0.01 s
speedup  1.07
cpu  time for grad    0.01 s
wall time for grad    0.01 s
 E :    -50.44503201  G :  0.025369    pred/act E change: -0.438D-02 -0.116D-02
Maxdispl :   0.0854   ||displ|| :   0.1950   Lambda : -0.170D-02
Largest |displ|/coords:  0.0854 (  19)  0.0701 (  18)  0.0696 (   6)
................................................................................
.............................. CYCLE   19 ......................................
................................................................................
   1    -50.7255577 -0.507256E+02  0.152E-01    9.26       0.0  T
   2    -50.7255765 -0.187119E-04  0.116E-01    9.27       1.0  T
   3    -50.7255861 -0.960348E-05  0.240E-02    9.27       1.0  T
   4    -50.7255890 -0.290603E-05  0.114E-02    9.27       1.7  T
   5    -50.7255891 -0.132102E-06  0.229E-03    9.27       8.6  T
   6    -50.7255891 -0.792235E-08  0.124E-03    9.27      15.8  T
speedup  1.15
cpu  time for SCC    0.01 s
wall time for SCC    0.01 s
speedup  1.00
cpu  time for grad    0.01 s
wall time for grad    0.01 s
 E :    -50.44570218  G :  0.019572    pred/act E change: -0.175D-02 -0.670D-03
Maxdispl :   0.1149   ||displ|| :   0.2665   Lambda : -0.110D-02
Largest |displ|/coords:  0.1149 (  12)  0.0661 (   8)  0.0622 (  14)
................................................................................
.............................. CYCLE   20 ......................................
................................................................................
   1    -50.7235156 -0.507235E+02  0.168E-01    9.22       0.0  T
   2    -50.7235267 -0.110247E-04  0.126E-01    9.22       1.0  T
   3    -50.7235332 -0.656212E-05  0.188E-02    9.22       1.0  T
   4    -50.7235350 -0.179350E-05  0.616E-03    9.22       3.2  T
   5    -50.7235351 -0.439429E-07  0.219E-03    9.22       8.9  T
   6    -50.7235351 -0.711173E-08  0.110E-03    9.22      17.9  T
speedup  0.93
cpu  time for SCC    0.01 s
wall time for SCC    0.01 s
speedup  0.96
cpu  time for grad    0.01 s
wall time for grad    0.01 s
 E :    -50.44636418  G :  0.018586    pred/act E change: -0.881D-03 -0.662D-03
Maxdispl :   0.0921   ||displ|| :   0.3142   Lambda : -0.862D-03
Largest |displ|/coords:  0.0921 (   6)  0.0848 (   8)  0.0827 (  18)
................................................................................
.............................. CYCLE   21 ......................................
................................................................................
   1    -50.7232429 -0.507232E+02  0.182E-01    9.19       0.0  T
   2    -50.7232585 -0.156568E-04  0.137E-01    9.19       1.0  T
   3    -50.7232685 -0.995607E-05  0.216E-02    9.18       1.0  T
   4    -50.7232712 -0.268506E-05  0.679E-03    9.18       2.9  T
   5    -50.7232712 -0.569069E-07  0.244E-03    9.18       8.0  T
   6    -50.7232712 -0.582124E-08  0.117E-03    9.18      16.8  T
speedup  0.94
cpu  time for SCC    0.00 s
wall time for SCC    0.01 s
speedup  0.99
cpu  time for grad    0.01 s
wall time for grad    0.01 s
 E :    -50.44693027  G :  0.018707    pred/act E change: -0.587D-03 -0.566D-03
Maxdispl :   0.1794   ||displ|| :   0.4130   Lambda : -0.105D-02
Largest |displ|/coords:  0.1794 (   4)  0.1219 (   8)  0.1197 (   6)
................................................................................
.............................. CYCLE   22 ......................................
................................................................................
   1    -50.7160855 -0.507161E+02  0.244E-01    9.16       0.0  T
   2    -50.7161129 -0.274373E-04  0.184E-01    9.16       1.0  T
   3    -50.7161286 -0.156165E-04  0.298E-02    9.16       1.0  T
   4    -50.7161335 -0.498022E-05  0.913E-03    9.16       2.1  T
   5    -50.7161336 -0.979436E-07  0.323E-03    9.16       6.1  T
   6    -50.7161336 -0.106037E-07  0.148E-03    9.16      13.3  T
   7    -50.7161336 -0.475253E-08  0.412E-04    9.16      47.5  T
speedup  1.13
cpu  time for SCC    0.01 s
wall time for SCC    0.01 s
speedup  1.00
cpu  time for grad    0.01 s
wall time for grad    0.01 s
 E :    -50.44751241  G :  0.032023    pred/act E change: -0.474D-03 -0.582D-03
Maxdispl :   0.1547   ||displ|| :   0.4400   Lambda : -0.184D-02
Largest |displ|/coords:  0.1547 (   3)  0.1321 (  14)  0.1320 (  18)
................................................................................
.............................. CYCLE   23 ......................................
................................................................................
   1    -50.7179466 -0.507179E+02  0.248E-01    9.19       0.0  T
   2    -50.7179738 -0.271764E-04  0.186E-01    9.19       1.0  T
   3    -50.7179918 -0.180149E-04  0.325E-02    9.18       1.0  T
   4    -50.7179956 -0.376267E-05  0.930E-03    9.18       2.1  T
   5    -50.7179957 -0.129975E-06  0.295E-03    9.18       6.6  T
   6    -50.7179957 -0.778204E-08  0.144E-03    9.18      13.6  T
speedup  0.94
cpu  time for SCC    0.00 s
wall time for SCC    0.01 s
speedup  0.99
cpu  time for grad    0.01 s
wall time for grad    0.01 s
 E :    -50.44844886  G :  0.025609    pred/act E change: -0.612D-03 -0.936D-03
Maxdispl :   0.1602   ||displ|| :   0.3968   Lambda : -0.198D-02
Largest |displ|/coords:  0.1602 (   6)  0.1339 (   4)  0.1081 (  16)
................................................................................
.............................. CYCLE   24 ......................................
................................................................................
   1    -50.7242917 -0.507243E+02  0.267E-01    9.27       0.0  T
   2    -50.7243817 -0.899323E-04  0.200E-01    9.26       1.0  T
   3    -50.7244153 -0.336754E-04  0.516E-02    9.25       1.0  T
   4    -50.7244295 -0.142054E-04  0.117E-02    9.25       1.7  T
   5    -50.7244298 -0.271961E-06  0.401E-03    9.26       4.9  T
   6    -50.7244298 -0.108331E-07  0.192E-03    9.26      10.2  T
speedup  1.13
cpu  time for SCC    0.01 s
wall time for SCC    0.01 s
speedup  0.99
cpu  time for grad    0.01 s
wall time for grad    0.01 s
 E :    -50.44980315  G :  0.033623    pred/act E change: -0.110D-02 -0.135D-02
Maxdispl :   0.1774   ||displ|| :   0.5252   Lambda : -0.305D-02
Largest |displ|/coords:  0.1774 (  16)  0.1517 (  19)  0.1481 (   1)
................................................................................
.............................. CYCLE   25 ......................................
................................................................................
   1    -50.7345270 -0.507345E+02  0.323E-01    9.33       0.0  T
   2    -50.7347403 -0.213341E-03  0.239E-01    9.32       1.0  T
   3    -50.7348213 -0.809424E-04  0.765E-02    9.29       1.0  T
   4    -50.7348435 -0.222376E-04  0.155E-02    9.29       1.3  T
   5    -50.7348442 -0.705462E-06  0.538E-03    9.29       3.6  T
   6    -50.7348442 -0.268372E-07  0.265E-03    9.29       7.4  T
speedup  0.94
cpu  time for SCC    0.00 s
wall time for SCC    0.01 s
speedup  0.99
cpu  time for grad    0.01 s
wall time for grad    0.01 s
 E :    -50.45185965  G :  0.034385    pred/act E change: -0.114D-02 -0.206D-02
Maxdispl :   0.2029   ||displ|| :   0.6130   Lambda : -0.413D-02
Largest |displ|/coords:  0.2029 (   8)  0.1973 (   4)  0.1741 (  16)

generating ANC from model Hessian ...
 Shifting diagonal of input Hessian by   4.874292486906038E-003
 Lowest  eigenvalues of input Hessian
   -0.000000   -0.000000   -0.000000   -0.000000   -0.000000    0.000000
    0.005000    0.005205    0.005523    0.005681    0.006338    0.007197
    0.007445    0.008486    0.008705    0.009036    0.010231    0.011009
 Highest eigenvalues
    1.395827    1.410099    1.448792    2.807458    3.462545    3.515687
 
cpu  time for ANC gen    0.01 s
wall time for ANC gen    0.02 s
................................................................................
.............................. CYCLE   26 ......................................
................................................................................
   1    -50.7372898 -0.507373E+02  0.461E-01    9.23       0.0  T
   2    -50.7374757 -0.185838E-03  0.347E-01    9.21       1.0  T
   3    -50.7375577 -0.820394E-04  0.751E-02    9.15       1.0  T
   4    -50.7375894 -0.317011E-04  0.217E-02    9.15       1.0  T
   5    -50.7375902 -0.813172E-06  0.692E-03    9.16       2.8  T
   6    -50.7375903 -0.898498E-07  0.360E-03    9.16       5.4  T
   7    -50.7375903 -0.245304E-07  0.116E-03    9.16      16.9  T
   8    -50.7375904 -0.537255E-08  0.466E-04    9.16      42.1  T
   9    -50.7375904 -0.120702E-08  0.194E-04    9.16     101.0  T
speedup  0.99
cpu  time for SCC    0.01 s
wall time for SCC    0.01 s
speedup  1.03
cpu  time for grad    0.02 s
wall time for grad    0.02 s
 E :    -50.45349205  G :  0.057917    pred/act E change:  0.000D+00 -0.163D-02
Maxdispl :   0.1402   ||displ|| :   0.2829   Lambda : -0.488D-02
Largest |displ|/coords:  0.1402 (  19)  0.0922 (   7)  0.0849 (  15)
................................................................................
.............................. CYCLE   27 ......................................
................................................................................
   1    -50.7387416 -0.507387E+02  0.222E-01    9.10       0.0  T
   2    -50.7387659 -0.243385E-04  0.166E-01    9.09       1.0  T
   3    -50.7387785 -0.125354E-04  0.349E-02    9.09       1.0  T
   4    -50.7387819 -0.346364E-05  0.822E-03    9.09       2.4  T
   5    -50.7387821 -0.149560E-06  0.288E-03    9.09       6.8  T
   6    -50.7387821 -0.107380E-07  0.158E-03    9.09      12.4  T
speedup  0.94
cpu  time for SCC    0.00 s
wall time for SCC    0.01 s
speedup  1.00
cpu  time for grad    0.01 s
wall time for grad    0.01 s
 E :    -50.45659119  G :  0.024550    pred/act E change:  0.000D+00 -0.310D-02
Maxdispl :   0.0936   ||displ|| :   0.2753   Lambda : -0.203D-02
Largest |displ|/coords:  0.0936 (  10)  0.0841 (   5)  0.0787 (  21)
................................................................................
.............................. CYCLE   28 ......................................
................................................................................
   1    -50.7408604 -0.507409E+02  0.130E-01    9.07       0.0  T
   2    -50.7408873 -0.268813E-04  0.951E-02    9.07       1.0  T
   3    -50.7409006 -0.133335E-04  0.290E-02    9.05       1.0  T
   4    -50.7409028 -0.212319E-05  0.649E-03    9.05       3.0  T
   5    -50.7409029 -0.125380E-06  0.253E-03    9.05       7.7  T
   6    -50.7409029 -0.757524E-08  0.133E-03    9.05      14.7  T
speedup  0.94
cpu  time for SCC    0.00 s
wall time for SCC    0.01 s
speedup  0.98
cpu  time for grad    0.01 s
wall time for grad    0.01 s
 E :    -50.45771261  G :  0.019226    pred/act E change: -0.264D-02 -0.112D-02
Maxdispl :   0.1156   ||displ|| :   0.2531   Lambda : -0.883D-03
Largest |displ|/coords:  0.1156 (  12)  0.0929 (  10)  0.0815 (   2)
................................................................................
.............................. CYCLE   29 ......................................
................................................................................
   1    -50.7398232 -0.507398E+02  0.150E-01    9.03       0.0  T
   2    -50.7398331 -0.987555E-05  0.113E-01    9.03       1.0  T
   3    -50.7398394 -0.633028E-05  0.177E-02    9.01       1.1  T
   4    -50.7398411 -0.162998E-05  0.492E-03    9.01       4.0  T
   5    -50.7398411 -0.555252E-07  0.203E-03    9.01       9.7  T
   6    -50.7398411 -0.650535E-08  0.102E-03    9.01      19.3  T
speedup  1.09
cpu  time for SCC    0.01 s
wall time for SCC    0.01 s
speedup  1.04
cpu  time for grad    0.01 s
wall time for grad    0.01 s
 E :    -50.45840356  G :  0.016060    pred/act E change: -0.109D-02 -0.691D-03
Maxdispl :   0.1487   ||displ|| :   0.3868   Lambda : -0.108D-02
Largest |displ|/coords:  0.1487 (  12)  0.1315 (   5)  0.1275 (   3)
................................................................................
.............................. CYCLE   30 ......................................
................................................................................
   1    -50.7396735 -0.507397E+02  0.221E-01    9.00       0.0  T
   2    -50.7397043 -0.308498E-04  0.166E-01    8.99       1.0  T
   3    -50.7397196 -0.153134E-04  0.322E-02    8.96       1.0  T
   4    -50.7397248 -0.518446E-05  0.786E-03    8.96       2.5  T
   5    -50.7397250 -0.148387E-06  0.302E-03    8.96       6.5  T
   6    -50.7397250 -0.107476E-07  0.156E-03    8.96      12.6  T
   7    -50.7397250 -0.512166E-08  0.449E-04    8.96      43.7  T
speedup  1.09
cpu  time for SCC    0.01 s
wall time for SCC    0.01 s
speedup  0.99
cpu  time for grad    0.01 s
wall time for grad    0.01 s
 E :    -50.45911619  G :  0.015150    pred/act E change: -0.470D-03 -0.713D-03
Maxdispl :   0.1539   ||displ|| :   0.3519   Lambda : -0.877D-03
Largest |displ|/coords:  0.1539 (   5)  0.1468 (  13)  0.0975 (  17)
................................................................................
.............................. CYCLE   31 ......................................
................................................................................
   1    -50.7428302 -0.507428E+02  0.186E-01    8.94       0.0  T
   2    -50.7428523 -0.220615E-04  0.140E-01    8.94       1.0  T
   3    -50.7428631 -0.108645E-04  0.264E-02    8.92       1.0  T
   4    -50.7428669 -0.373657E-05  0.736E-03    8.92       2.7  T
   5    -50.7428670 -0.104499E-06  0.239E-03    8.92       8.2  T
   6    -50.7428670 -0.592560E-08  0.129E-03    8.92      15.2  T
speedup  0.94
cpu  time for SCC    0.00 s
wall time for SCC    0.01 s
speedup  0.98
cpu  time for grad    0.01 s
wall time for grad    0.01 s
 E :    -50.45967744  G :  0.011431    pred/act E change: -0.624D-03 -0.561D-03
Maxdispl :   0.1399   ||displ|| :   0.3494   Lambda : -0.749D-03
Largest |displ|/coords:  0.1399 (   3)  0.1176 (  13)  0.1150 (   5)
................................................................................
.............................. CYCLE   32 ......................................
................................................................................
   1    -50.7458485 -0.507458E+02  0.170E-01    8.93       0.0  T
   2    -50.7458628 -0.143177E-04  0.128E-01    8.93       1.0  T
   3    -50.7458722 -0.938843E-05  0.224E-02    8.92       1.0  T
   4    -50.7458744 -0.226330E-05  0.820E-03    8.92       2.4  T
   5    -50.7458745 -0.882425E-07  0.229E-03    8.92       8.6  T
   6    -50.7458745 -0.751238E-08  0.133E-03    8.92      14.7  T
speedup  0.94
cpu  time for SCC    0.01 s
wall time for SCC    0.01 s
speedup  0.98
cpu  time for grad    0.01 s
wall time for grad    0.01 s
 E :    -50.46015663  G :  0.010609    pred/act E change: -0.493D-03 -0.479D-03
Maxdispl :   0.1391   ||displ|| :   0.2831   Lambda : -0.499D-03
Largest |displ|/coords:  0.1391 (   3)  0.1092 (  11)  0.0806 (   5)
................................................................................
.............................. CYCLE   33 ......................................
................................................................................
   1    -50.7464917 -0.507465E+02  0.125E-01    8.97       0.0  T
   2    -50.7464964 -0.470832E-05  0.949E-02    8.97       1.0  T
   3    -50.7465006 -0.416849E-05  0.132E-02    8.96       1.5  T
   4    -50.7465012 -0.588599E-06  0.623E-03    8.96       3.2  T
   5    -50.7465012 -0.441648E-07  0.144E-03    8.96      13.7  T
   6    -50.7465012 -0.351942E-08  0.943E-04    8.96      20.8  T
speedup  1.13
cpu  time for SCC    0.01 s
wall time for SCC    0.01 s
speedup  1.05
cpu  time for grad    0.01 s
wall time for grad    0.01 s
 E :    -50.46050108  G :  0.011309    pred/act E change: -0.420D-03 -0.344D-03
Maxdispl :   0.1409   ||displ|| :   0.2983   Lambda : -0.419D-03
Largest |displ|/coords:  0.1409 (   3)  0.1292 (  11)  0.0991 (  14)
................................................................................
.............................. CYCLE   34 ......................................
................................................................................
   1    -50.7479676 -0.507480E+02  0.135E-01    9.01       0.0  T
   2    -50.7479725 -0.491477E-05  0.102E-01    9.01       1.0  T
   3    -50.7479773 -0.477042E-05  0.120E-02    8.99       1.6  T
   4    -50.7479779 -0.580636E-06  0.608E-03    8.99       3.2  T
   5    -50.7479779 -0.447374E-07  0.134E-03    9.00      14.6  T
   6    -50.7479779 -0.253891E-08  0.876E-04    9.00      22.4  T
speedup  1.09
cpu  time for SCC    0.01 s
wall time for SCC    0.01 s
speedup  1.04
cpu  time for grad    0.01 s
wall time for grad    0.01 s
 E :    -50.46078758  G :  0.008293    pred/act E change: -0.269D-03 -0.286D-03
Maxdispl :   0.2086   ||displ|| :   0.3572   Lambda : -0.338D-03
Largest |displ|/coords:  0.2086 (   3)  0.1174 (  11)  0.1023 (   5)
................................................................................
.............................. CYCLE   35 ......................................
................................................................................
   1    -50.7467238 -0.507467E+02  0.156E-01    9.01       0.0  T
   2    -50.7467307 -0.683051E-05  0.117E-01    9.01       1.0  T
   3    -50.7467354 -0.477379E-05  0.149E-02    8.99       1.3  T
   4    -50.7467366 -0.112770E-05  0.583E-03    8.99       3.4  T
   5    -50.7467366 -0.430621E-07  0.158E-03    8.99      12.4  T
   6    -50.7467366 -0.387455E-08  0.887E-04    8.99      22.1  T
speedup  1.11
cpu  time for SCC    0.01 s
wall time for SCC    0.01 s
speedup  1.05
cpu  time for grad    0.01 s
wall time for grad    0.01 s
 E :    -50.46099890  G :  0.009380    pred/act E change: -0.228D-03 -0.211D-03
Maxdispl :   0.1266   ||displ|| :   0.2479   Lambda : -0.299D-03
Largest |displ|/coords:  0.1266 (   3)  0.0965 (  11)  0.0843 (   8)
................................................................................
.............................. CYCLE   36 ......................................
................................................................................
   1    -50.7488135 -0.507488E+02  0.109E-01    9.06       0.0  T
   2    -50.7488174 -0.381792E-05  0.825E-02    9.05       1.0  T
   3    -50.7488197 -0.236340E-05  0.122E-02    9.05       1.6  T
   4    -50.7488204 -0.646290E-06  0.485E-03    9.05       4.0  T
   5    -50.7488204 -0.296365E-07  0.101E-03    9.05      19.5  T
   6    -50.7488204 -0.114481E-08  0.668E-04    9.05      29.3  T
speedup  1.11
cpu  time for SCC    0.01 s
wall time for SCC    0.01 s
speedup  0.98
cpu  time for grad    0.01 s
wall time for grad    0.01 s
 E :    -50.46117261  G :  0.007061    pred/act E change: -0.191D-03 -0.174D-03
Maxdispl :   0.1466   ||displ|| :   0.2710   Lambda : -0.235D-03
Largest |displ|/coords:  0.1466 (   3)  0.0978 (   5)  0.0893 (  10)
................................................................................
.............................. CYCLE   37 ......................................
................................................................................
   1    -50.7468595 -0.507469E+02  0.128E-01    9.00       0.0  T
   2    -50.7468642 -0.474642E-05  0.967E-02    9.00       1.0  T
   3    -50.7468673 -0.309130E-05  0.142E-02    8.99       1.4  T
   4    -50.7468681 -0.774304E-06  0.467E-03    8.99       4.2  T
   5    -50.7468681 -0.322080E-07  0.127E-03    8.99      15.5  T
   6    -50.7468681 -0.227550E-08  0.742E-04    8.99      26.4  T
speedup  0.93
cpu  time for SCC    0.01 s
wall time for SCC    0.01 s
speedup  0.97
cpu  time for grad    0.01 s
wall time for grad    0.01 s
 E :    -50.46132677  G :  0.011153    pred/act E change: -0.159D-03 -0.154D-03
Maxdispl :   0.1365   ||displ|| :   0.2469   Lambda : -0.351D-03
Largest |displ|/coords:  0.1365 (   3)  0.0975 (   8)  0.0850 (  10)
................................................................................
.............................. CYCLE   38 ......................................
................................................................................
   1    -50.7494221 -0.507494E+02  0.116E-01    9.05       0.0  T
   2    -50.7494261 -0.392540E-05  0.863E-02    9.05       1.0  T
   3    -50.7494285 -0.244471E-05  0.135E-02    9.05       1.5  T
   4    -50.7494290 -0.484413E-06  0.460E-03    9.06       4.3  T
   5    -50.7494290 -0.230028E-07  0.108E-03    9.06      18.2  T
   6    -50.7494290 -0.144399E-08  0.625E-04    9.06      31.4  T
speedup  1.07
cpu  time for SCC    0.01 s
wall time for SCC    0.01 s
speedup  1.04
cpu  time for grad    0.01 s
wall time for grad    0.01 s
 E :    -50.46142111  G :  0.015057    pred/act E change: -0.126D-03 -0.943D-04
Maxdispl :   0.1213   ||displ|| :   0.1789   Lambda : -0.305D-03
Largest |displ|/coords:  0.1213 (   3)  0.0726 (  10)  0.0477 (  17)
................................................................................
.............................. CYCLE   39 ......................................
................................................................................
   1    -50.7466345 -0.507466E+02  0.120E-01    9.02       0.0  T
   2    -50.7466389 -0.437642E-05  0.910E-02    9.03       1.0  T
   3    -50.7466431 -0.425077E-05  0.111E-02    9.05       1.8  T
   4    -50.7466436 -0.494895E-06  0.342E-03    9.04       5.7  T
   5    -50.7466436 -0.150670E-07  0.147E-03    9.04      13.3  T
   6    -50.7466436 -0.252932E-08  0.704E-04    9.04      27.9  T
speedup  1.07
cpu  time for SCC    0.01 s
wall time for SCC    0.01 s
speedup  1.03
cpu  time for grad    0.01 s
wall time for grad    0.01 s
 E :    -50.46158678  G :  0.010683    pred/act E change: -0.186D-03 -0.166D-03
Maxdispl :   0.0563   ||displ|| :   0.1117   Lambda : -0.154D-03
Largest |displ|/coords:  0.0563 (   3)  0.0391 (  14)  0.0318 (   4)
................................................................................
.............................. CYCLE   40 ......................................
................................................................................
   1    -50.7471853 -0.507472E+02  0.625E-02    9.04       0.0  T
   2    -50.7471865 -0.116294E-05  0.470E-02    9.04       1.0  T
   3    -50.7471873 -0.829668E-06  0.714E-03    9.05       2.7  T
   4    -50.7471875 -0.158785E-06  0.314E-03    9.05       6.3  T
   5    -50.7471875 -0.102922E-07  0.609E-04    9.05      32.2  T
   6    -50.7471875 -0.558430E-09  0.399E-04    9.05      49.1  T
speedup  1.13
cpu  time for SCC    0.01 s
wall time for SCC    0.01 s
speedup  1.04
cpu  time for grad    0.01 s
wall time for grad    0.01 s
 E :    -50.46167171  G :  0.007888    pred/act E change: -0.157D-03 -0.849D-04
Maxdispl :   0.1369   ||displ|| :   0.1823   Lambda : -0.160D-03
Largest |displ|/coords:  0.1369 (   3)  0.0549 (   6)  0.0447 (  10)
................................................................................
.............................. CYCLE   41 ......................................
................................................................................
   1    -50.7478873 -0.507479E+02  0.778E-02    9.09       0.0  T
   2    -50.7478894 -0.216397E-05  0.585E-02    9.09       1.0  T
   3    -50.7478905 -0.100630E-05  0.847E-03    9.10       2.3  T
   4    -50.7478908 -0.374803E-06  0.330E-03    9.10       5.9  T
   5    -50.7478908 -0.214920E-07  0.802E-04    9.10      24.4  T
   6    -50.7478908 -0.845027E-09  0.459E-04    9.10      42.7  T
speedup  0.93
cpu  time for SCC    0.00 s
wall time for SCC    0.01 s
speedup  0.97
cpu  time for grad    0.01 s
wall time for grad    0.01 s
 E :    -50.46177163  G :  0.004983    pred/act E change: -0.779D-04 -0.999D-04
Maxdispl :   0.1213   ||displ|| :   0.1674   Lambda : -0.103D-03
Largest |displ|/coords:  0.1213 (   3)  0.0584 (  10)  0.0318 (   6)
................................................................................
.............................. CYCLE   42 ......................................
................................................................................
   1    -50.7490009 -0.507490E+02  0.868E-02    9.14       0.0  T
   2    -50.7490024 -0.149346E-05  0.653E-02    9.15       1.0  T
   3    -50.7490035 -0.108711E-05  0.678E-03    9.16       2.9  T
   4    -50.7490037 -0.213067E-06  0.274E-03    9.16       7.2  T
   5    -50.7490037 -0.967571E-08  0.754E-04    9.16      26.0  T
speedup  0.89
cpu  time for SCC    0.00 s
wall time for SCC    0.00 s
speedup  0.97
cpu  time for grad    0.01 s
wall time for grad    0.01 s
 E :    -50.46183053  G :  0.005441    pred/act E change: -0.824D-04 -0.589D-04
Maxdispl :   0.1308   ||displ|| :   0.2031   Lambda : -0.744D-04
Largest |displ|/coords:  0.1308 (   3)  0.0758 (  10)  0.0551 (   5)
................................................................................
.............................. CYCLE   43 ......................................
................................................................................
   1    -50.7491228 -0.507491E+02  0.929E-02    9.15       0.0  T
   2    -50.7491244 -0.160177E-05  0.701E-02    9.15       1.0  T
   3    -50.7491261 -0.167049E-05  0.675E-03    9.16       2.9  T
   4    -50.7491263 -0.150763E-06  0.263E-03    9.16       7.5  T
   5    -50.7491263 -0.101435E-07  0.855E-04    9.16      22.9  T
speedup  0.91
cpu  time for SCC    0.00 s
wall time for SCC    0.00 s
speedup  0.97
cpu  time for grad    0.01 s
wall time for grad    0.01 s
 E :    -50.46185947  G :  0.005494    pred/act E change: -0.528D-04 -0.289D-04
Maxdispl :   0.0299   ||displ|| :   0.0612   Lambda : -0.483D-04
Largest |displ|/coords:  0.0299 (   2)  0.0261 (   3)  0.0254 (   8)
................................................................................
.............................. CYCLE   44 ......................................
................................................................................
   1    -50.7514393 -0.507514E+02  0.271E-02    9.19       0.0  T
   2    -50.7514396 -0.304911E-06  0.198E-02    9.19       1.0  T
   3    -50.7514398 -0.183560E-06  0.373E-03    9.19       5.3  T
   4    -50.7514398 -0.335686E-07  0.126E-03    9.19      15.6  T
   5    -50.7514398 -0.198076E-08  0.289E-04    9.19      67.7  T
speedup  0.91
cpu  time for SCC    0.00 s
wall time for SCC    0.00 s
speedup  0.97
cpu  time for grad    0.01 s
wall time for grad    0.01 s
 E :    -50.46187470  G :  0.004249    pred/act E change: -0.387D-04 -0.152D-04
Maxdispl :   0.0548   ||displ|| :   0.1045   Lambda : -0.556D-04
Largest |displ|/coords:  0.0548 (   3)  0.0391 (  11)  0.0388 (   5)
................................................................................
.............................. CYCLE   45 ......................................
................................................................................
   1    -50.7494725 -0.507495E+02  0.622E-02    9.16       0.0  T
   2    -50.7494738 -0.126205E-05  0.471E-02    9.16       1.0  T
   3    -50.7494746 -0.775100E-06  0.661E-03    9.16       3.0  T
   4    -50.7494748 -0.217185E-06  0.253E-03    9.16       7.7  T
   5    -50.7494748 -0.880753E-08  0.641E-04    9.16      30.6  T
speedup  1.14
cpu  time for SCC    0.00 s
wall time for SCC    0.00 s
speedup  1.05
cpu  time for grad    0.01 s
wall time for grad    0.01 s
 E :    -50.46189158  G :  0.004074    pred/act E change: -0.243D-04 -0.169D-04
Maxdispl :   0.0209   ||displ|| :   0.0467   Lambda : -0.352D-04
Largest |displ|/coords:  0.0209 (   2)  0.0200 (   6)  0.0160 (   1)
................................................................................
.............................. CYCLE   46 ......................................
................................................................................
   1    -50.7499354 -0.507499E+02  0.326E-02    9.18       0.0  T
   2    -50.7499356 -0.198345E-06  0.241E-02    9.18       1.0  T
   3    -50.7499357 -0.150735E-06  0.366E-03    9.18       5.4  T
   4    -50.7499357 -0.209858E-07  0.955E-04    9.18      20.5  T
   5    -50.7499357 -0.123008E-08  0.289E-04    9.18      67.8  T
speedup  1.09
cpu  time for SCC    0.01 s
wall time for SCC    0.00 s
speedup  1.03
cpu  time for grad    0.01 s
wall time for grad    0.01 s
 E :    -50.46191251  G :  0.002545    pred/act E change: -0.281D-04 -0.209D-04
Maxdispl :   0.0267   ||displ|| :   0.0625   Lambda : -0.242D-04
Largest |displ|/coords:  0.0267 (   2)  0.0253 (   5)  0.0246 (   3)
................................................................................
.............................. CYCLE   47 ......................................
................................................................................
   1    -50.7501930 -0.507502E+02  0.330E-02    9.17       0.0  T
   2    -50.7501933 -0.294818E-06  0.245E-02    9.17       1.0  T
   3    -50.7501935 -0.212574E-06  0.370E-03    9.17       5.3  T
   4    -50.7501935 -0.339854E-07  0.824E-04    9.17      23.8  T
   5    -50.7501936 -0.130202E-08  0.293E-04    9.17      67.0  T
speedup  0.91
cpu  time for SCC    0.00 s
wall time for SCC    0.00 s
speedup  1.01
cpu  time for grad    0.01 s
wall time for grad    0.01 s
 E :    -50.46192766  G :  0.002721    pred/act E change: -0.177D-04 -0.151D-04
Maxdispl :   0.0582   ||displ|| :   0.0969   Lambda : -0.236D-04
Largest |displ|/coords:  0.0582 (   2)  0.0416 (   5)  0.0309 (   3)
................................................................................
.............................. CYCLE   48 ......................................
................................................................................
   1    -50.7503712 -0.507504E+02  0.431E-02    9.17       0.0  T
   2    -50.7503716 -0.352023E-06  0.317E-02    9.17       1.0  T
   3    -50.7503719 -0.297252E-06  0.489E-03    9.18       4.0  T
   4    -50.7503719 -0.275853E-07  0.143E-03    9.18      13.7  T
   5    -50.7503719 -0.305712E-08  0.333E-04    9.18      58.8  T
   6    -50.7503719 -0.135429E-09  0.212E-04    9.18      92.6  T
speedup  0.94
cpu  time for SCC    0.00 s
wall time for SCC    0.01 s
speedup  1.01
cpu  time for grad    0.01 s
wall time for grad    0.01 s
 E :    -50.46194360  G :  0.003209    pred/act E change: -0.121D-04 -0.159D-04
Maxdispl :   0.0812   ||displ|| :   0.1296   Lambda : -0.277D-04
Largest |displ|/coords:  0.0812 (   2)  0.0556 (   5)  0.0347 (   3)
................................................................................
.............................. CYCLE   49 ......................................
................................................................................
   1    -50.7504693 -0.507505E+02  0.562E-02    9.16       0.0  T
   2    -50.7504699 -0.556154E-06  0.418E-02    9.17       1.0  T
   3    -50.7504704 -0.518675E-06  0.533E-03    9.17       3.7  T
   4    -50.7504705 -0.465569E-07  0.144E-03    9.17      13.6  T
   5    -50.7504705 -0.369971E-08  0.416E-04    9.17      47.2  T
   6    -50.7504705 -0.245628E-09  0.243E-04    9.17      80.7  T
speedup  0.93
cpu  time for SCC    0.00 s
wall time for SCC    0.01 s
speedup  0.93
cpu  time for grad    0.01 s
wall time for grad    0.01 s
 E :    -50.46196239  G :  0.003056    pred/act E change: -0.119D-04 -0.188D-04
Maxdispl :   0.0960   ||displ|| :   0.1566   Lambda : -0.318D-04
Largest |displ|/coords:  0.0960 (   2)  0.0630 (   5)  0.0570 (   3)
................................................................................
.............................. CYCLE   50 ......................................
................................................................................
   1    -50.7501014 -0.507501E+02  0.669E-02    9.16       0.0  T
   2    -50.7501021 -0.685133E-06  0.502E-02    9.16       1.0  T
   3    -50.7501029 -0.815620E-06  0.499E-03    9.17       3.9  T
   4    -50.7501030 -0.348348E-07  0.147E-03    9.17      13.3  T
   5    -50.7501030 -0.326074E-08  0.511E-04    9.17      38.4  T
   6    -50.7501030 -0.325002E-09  0.305E-04    9.17      64.2  T
speedup  1.11
cpu  time for SCC    0.01 s
wall time for SCC    0.01 s
speedup  1.01
cpu  time for grad    0.01 s
wall time for grad    0.01 s
 E :    -50.46198681  G :  0.002676    pred/act E change: -0.141D-04 -0.244D-04
Maxdispl :   0.1471   ||displ|| :   0.2234   Lambda : -0.511D-04
Largest |displ|/coords:  0.1471 (   2)  0.0817 (   5)  0.0593 (   3)
................................................................................
.............................. CYCLE   51 ......................................
................................................................................
   1    -50.7500830 -0.507501E+02  0.102E-01    9.16       0.0  T
   2    -50.7500845 -0.154174E-05  0.771E-02    9.17       1.0  T
   3    -50.7500865 -0.200947E-05  0.707E-03    9.17       2.8  T
   4    -50.7500866 -0.527971E-07  0.184E-03    9.17      10.7  T
   5    -50.7500866 -0.548588E-08  0.771E-04    9.17      25.4  T
   6    -50.7500866 -0.791466E-09  0.393E-04    9.17      49.9  T
speedup  0.93
cpu  time for SCC    0.00 s
wall time for SCC    0.01 s
speedup  1.01
cpu  time for grad    0.01 s
wall time for grad    0.01 s
 E :    -50.46202384  G :  0.003043    pred/act E change: -0.163D-04 -0.370D-04
Maxdispl :   0.1414   ||displ|| :   0.2299   Lambda : -0.475D-04
Largest |displ|/coords:  0.1414 (   2)  0.0749 (   3)  0.0718 (   5)
................................................................................
.............................. CYCLE   52 ......................................
................................................................................
   1    -50.7492591 -0.507493E+02  0.114E-01    9.16       0.0  T
   2    -50.7492610 -0.197082E-05  0.857E-02    9.16       1.0  T
   3    -50.7492636 -0.255629E-05  0.835E-03    9.17       2.3  T
   4    -50.7492637 -0.760446E-07  0.194E-03    9.17      10.1  T
   5    -50.7492637 -0.610529E-08  0.953E-04    9.17      20.6  T
   6    -50.7492637 -0.128872E-08  0.457E-04    9.17      42.9  T
speedup  0.94
cpu  time for SCC    0.00 s
wall time for SCC    0.01 s
speedup  1.00
cpu  time for grad    0.01 s
wall time for grad    0.01 s
 E :    -50.46205655  G :  0.004237    pred/act E change: -0.268D-04 -0.327D-04
Maxdispl :   0.1040   ||displ|| :   0.1931   Lambda : -0.719D-04
Largest |displ|/coords:  0.1040 (   2)  0.0798 (  12)  0.0657 (   4)

generating ANC from model Hessian ...
 Shifting diagonal of input Hessian by   4.805637340003977E-003
 Lowest  eigenvalues of input Hessian
   -0.000000   -0.000000   -0.000000    0.000000    0.000000    0.000000
    0.005000    0.005133    0.005194    0.005506    0.006412    0.006749
    0.006873    0.007268    0.008018    0.008530    0.008738    0.009127
 Highest eigenvalues
    1.403212    1.403561    1.464456    2.774783    3.399253    3.568432
 
cpu  time for ANC gen    0.02 s
wall time for ANC gen    0.02 s
................................................................................
.............................. CYCLE   53 ......................................
................................................................................
   1    -50.7508403 -0.507508E+02  0.119E-01    9.20       0.0  T
   2    -50.7508431 -0.284065E-05  0.883E-02    9.20       1.0  T
   3    -50.7508460 -0.286622E-05  0.148E-02    9.20       1.3  T
   4    -50.7508462 -0.260828E-06  0.300E-03    9.20       6.5  T
   5    -50.7508463 -0.196741E-07  0.111E-03    9.20      17.7  T
   6    -50.7508463 -0.197503E-08  0.692E-04    9.20      28.4  T
   7    -50.7508463 -0.593531E-09  0.155E-04    9.20     126.5  T
speedup  0.97
cpu  time for SCC    0.01 s
wall time for SCC    0.01 s
speedup  1.02
cpu  time for grad    0.01 s
wall time for grad    0.01 s
 E :    -50.46206677  G :  0.006863    pred/act E change:  0.000D+00 -0.102D-04
Maxdispl :   0.0144   ||displ|| :   0.0409   Lambda : -0.750D-04
Largest |displ|/coords:  0.0144 (   8)  0.0132 (   9)  0.0132 (  12)
................................................................................
.............................. CYCLE   54 ......................................
................................................................................
   1    -50.7505263 -0.507505E+02  0.342E-02    9.21       0.0  T
   2    -50.7505267 -0.374960E-06  0.256E-02    9.21       1.0  T
   3    -50.7505269 -0.193704E-06  0.401E-03    9.20       4.9  T
   4    -50.7505269 -0.643531E-07  0.111E-03    9.21      17.7  T
   5    -50.7505269 -0.172530E-08  0.332E-04    9.21      59.1  T
speedup  0.87
cpu  time for SCC    0.00 s
wall time for SCC    0.00 s
speedup  0.95
cpu  time for grad    0.01 s
wall time for grad    0.01 s
 E :    -50.46211477  G :  0.002880    pred/act E change:  0.000D+00 -0.480D-04
Maxdispl :   0.0210   ||displ|| :   0.0472   Lambda : -0.302D-04
Largest |displ|/coords:  0.0210 (   5)  0.0186 (   9)  0.0164 (  17)
................................................................................
.............................. CYCLE   55 ......................................
................................................................................
   1    -50.7505023 -0.507505E+02  0.384E-02    9.21       0.0  T
   2    -50.7505026 -0.328156E-06  0.289E-02    9.21       1.0  T
   3    -50.7505028 -0.240292E-06  0.360E-03    9.21       5.4  T
   4    -50.7505029 -0.506152E-07  0.119E-03    9.21      16.4  T
   5    -50.7505029 -0.173449E-08  0.364E-04    9.21      53.9  T
   6    -50.7505029 -0.155623E-09  0.198E-04    9.21      99.3  T
speedup  1.09
cpu  time for SCC    0.01 s
wall time for SCC    0.01 s
speedup  1.00
cpu  time for grad    0.01 s
wall time for grad    0.01 s
 E :    -50.46213373  G :  0.001696    pred/act E change: -0.375D-04 -0.190D-04
Maxdispl :   0.0276   ||displ|| :   0.0630   Lambda : -0.189D-04
Largest |displ|/coords:  0.0276 (   5)  0.0273 (   3)  0.0204 (   9)
................................................................................
.............................. CYCLE   56 ......................................
................................................................................
   1    -50.7506409 -0.507506E+02  0.466E-02    9.21       0.0  T
   2    -50.7506412 -0.278649E-06  0.350E-02    9.21       1.0  T
   3    -50.7506415 -0.280370E-06  0.330E-03    9.21       5.9  T
   4    -50.7506415 -0.266919E-07  0.122E-03    9.21      16.0  T
   5    -50.7506415 -0.165884E-08  0.367E-04    9.21      53.5  T
   6    -50.7506415 -0.129837E-09  0.214E-04    9.21      91.7  T
speedup  0.93
cpu  time for SCC    0.00 s
wall time for SCC    0.01 s
speedup  1.01
cpu  time for grad    0.01 s
wall time for grad    0.01 s
 E :    -50.46214797  G :  0.002022    pred/act E change: -0.151D-04 -0.142D-04
Maxdispl :   0.0578   ||displ|| :   0.1394   Lambda : -0.323D-04
Largest |displ|/coords:  0.0578 (   3)  0.0564 (   5)  0.0506 (   7)
................................................................................
.............................. CYCLE   57 ......................................
................................................................................
   1    -50.7507556 -0.507508E+02  0.101E-01    9.21       0.0  T
   2    -50.7507568 -0.123701E-05  0.760E-02    9.21       1.0  T
   3    -50.7507583 -0.145199E-05  0.628E-03    9.21       3.1  T
   4    -50.7507584 -0.796231E-07  0.232E-03    9.21       8.5  T
   5    -50.7507584 -0.606354E-08  0.779E-04    9.21      25.2  T
   6    -50.7507584 -0.579220E-09  0.438E-04    9.21      44.8  T
speedup  0.93
cpu  time for SCC    0.00 s
wall time for SCC    0.01 s
speedup  1.01
cpu  time for grad    0.01 s
wall time for grad    0.01 s
 E :    -50.46216874  G :  0.003055    pred/act E change: -0.948D-05 -0.208D-04
Maxdispl :   0.0672   ||displ|| :   0.1580   Lambda : -0.291D-04
Largest |displ|/coords:  0.0672 (   7)  0.0670 (   3)  0.0661 (   5)
................................................................................
.............................. CYCLE   58 ......................................
................................................................................
   1    -50.7506356 -0.507506E+02  0.105E-01    9.20       0.0  T
   2    -50.7506367 -0.112916E-05  0.793E-02    9.21       1.0  T
   3    -50.7506381 -0.139090E-05  0.599E-03    9.21       3.3  T
   4    -50.7506382 -0.590593E-07  0.213E-03    9.21       9.2  T
   5    -50.7506382 -0.572038E-08  0.773E-04    9.21      25.4  T
   6    -50.7506382 -0.662922E-09  0.424E-04    9.21      46.2  T
speedup  0.93
cpu  time for SCC    0.00 s
wall time for SCC    0.01 s
speedup  1.01
cpu  time for grad    0.01 s
wall time for grad    0.01 s
 E :    -50.46218798  G :  0.003863    pred/act E change: -0.165D-04 -0.192D-04
Maxdispl :   0.0805   ||displ|| :   0.1719   Lambda : -0.368D-04
Largest |displ|/coords:  0.0805 (   7)  0.0648 (   5)  0.0641 (   3)
................................................................................
.............................. CYCLE   59 ......................................
................................................................................
   1    -50.7507647 -0.507508E+02  0.105E-01    9.19       0.0  T
   2    -50.7507663 -0.160024E-05  0.792E-02    9.19       1.0  T
   3    -50.7507679 -0.159574E-05  0.760E-03    9.20       2.6  T
   4    -50.7507681 -0.163865E-06  0.269E-03    9.20       7.3  T
   5    -50.7507681 -0.768100E-08  0.758E-04    9.20      25.9  T
   6    -50.7507681 -0.577160E-09  0.438E-04    9.20      44.8  T
speedup  1.13
cpu  time for SCC    0.01 s
wall time for SCC    0.01 s
speedup  1.01
cpu  time for grad    0.01 s
wall time for grad    0.01 s
 E :    -50.46221693  G :  0.003738    pred/act E change: -0.149D-04 -0.289D-04
Maxdispl :   0.1095   ||displ|| :   0.2214   Lambda : -0.590D-04
Largest |displ|/coords:  0.1095 (   7)  0.0801 (   9)  0.0708 (   3)
................................................................................
.............................. CYCLE   60 ......................................
................................................................................
   1    -50.7511934 -0.507512E+02  0.129E-01    9.17       0.0  T
   2    -50.7511966 -0.315161E-05  0.972E-02    9.17       1.0  T
   3    -50.7511991 -0.248849E-05  0.113E-02    9.18       1.7  T
   4    -50.7511995 -0.438791E-06  0.365E-03    9.18       5.4  T
   5    -50.7511995 -0.148001E-07  0.101E-03    9.18      19.5  T
   6    -50.7511995 -0.971752E-09  0.579E-04    9.18      33.9  T
   7    -50.7511995 -0.629818E-09  0.146E-04    9.18     134.6  T
speedup  1.13
cpu  time for SCC    0.01 s
wall time for SCC    0.01 s
speedup  1.02
cpu  time for grad    0.01 s
wall time for grad    0.01 s
 E :    -50.46225474  G :  0.003834    pred/act E change: -0.189D-04 -0.378D-04
Maxdispl :   0.0651   ||displ|| :   0.1484   Lambda : -0.340D-04
Largest |displ|/coords:  0.0651 (   7)  0.0585 (   9)  0.0550 (   3)
................................................................................
.............................. CYCLE   61 ......................................
................................................................................
   1    -50.7509365 -0.507509E+02  0.994E-02    9.17       0.0  T
   2    -50.7509380 -0.147226E-05  0.751E-02    9.18       1.0  T
   3    -50.7509395 -0.143594E-05  0.692E-03    9.18       2.8  T
   4    -50.7509396 -0.157861E-06  0.269E-03    9.18       7.3  T
   5    -50.7509396 -0.721706E-08  0.726E-04    9.18      27.0  T
   6    -50.7509396 -0.474920E-09  0.423E-04    9.18      46.3  T
speedup  0.94
cpu  time for SCC    0.00 s
wall time for SCC    0.01 s
speedup  1.00
cpu  time for grad    0.01 s
wall time for grad    0.01 s
 E :    -50.46227974  G :  0.005252    pred/act E change: -0.310D-04 -0.250D-04
Maxdispl :   0.0850   ||displ|| :   0.2053   Lambda : -0.934D-04
Largest |displ|/coords:  0.0850 (   9)  0.0834 (   1)  0.0601 (   7)
................................................................................
.............................. CYCLE   62 ......................................
................................................................................
   1    -50.7532739 -0.507533E+02  0.119E-01    9.25       0.0  T
   2    -50.7532769 -0.295734E-05  0.892E-02    9.26       1.0  T
   3    -50.7532791 -0.229201E-05  0.106E-02    9.27       1.9  T
   4    -50.7532795 -0.394624E-06  0.415E-03    9.27       4.7  T
   5    -50.7532796 -0.190896E-07  0.101E-03    9.27      19.4  T
   6    -50.7532796 -0.952035E-09  0.616E-04    9.27      31.8  T
speedup  0.94
cpu  time for SCC    0.00 s
wall time for SCC    0.01 s
speedup  0.97
cpu  time for grad    0.01 s
wall time for grad    0.01 s
 E :    -50.46230667  G :  0.006187    pred/act E change: -0.174D-04 -0.269D-04
Maxdispl :   0.1632   ||displ|| :   0.3517   Lambda : -0.118D-03
Largest |displ|/coords:  0.1632 (   9)  0.1416 (   1)  0.1317 (   3)
................................................................................
.............................. CYCLE   63 ......................................
................................................................................
   1    -50.7495732 -0.507496E+02  0.240E-01    9.17       0.0  T
   2    -50.7495809 -0.765913E-05  0.181E-01    9.18       1.0  T
   3    -50.7495895 -0.868852E-05  0.145E-02    9.20       1.4  T
   4    -50.7495901 -0.533699E-06  0.579E-03    9.19       3.4  T
   5    -50.7495901 -0.437292E-07  0.183E-03    9.19      10.7  T
   6    -50.7495901 -0.368527E-08  0.106E-03    9.19      18.5  T
speedup  0.93
cpu  time for SCC    0.01 s
wall time for SCC    0.01 s
speedup  0.97
cpu  time for grad    0.01 s
wall time for grad    0.01 s
 E :    -50.46234798  G :  0.010067    pred/act E change: -0.487D-04 -0.413D-04
Maxdispl :   0.0910   ||displ|| :   0.1503   Lambda : -0.140D-03
Largest |displ|/coords:  0.0910 (   7)  0.0506 (   3)  0.0481 (   9)
................................................................................
.............................. CYCLE   64 ......................................
................................................................................
   1    -50.7513233 -0.507513E+02  0.891E-02    9.26       0.0  T
   2    -50.7513265 -0.310907E-05  0.661E-02    9.26       1.0  T
   3    -50.7513278 -0.135902E-05  0.139E-02    9.25       1.4  T
   4    -50.7513283 -0.471329E-06  0.332E-03    9.25       5.9  T
   5    -50.7513283 -0.183515E-07  0.962E-04    9.25      20.4  T
   6    -50.7513283 -0.945093E-09  0.570E-04    9.25      34.4  T
speedup  1.05
cpu  time for SCC    0.01 s
wall time for SCC    0.01 s
speedup  1.01
cpu  time for grad    0.01 s
wall time for grad    0.01 s
 E :    -50.46242448  G :  0.004072    pred/act E change: -0.664D-04 -0.765D-04
Maxdispl :   0.1056   ||displ|| :   0.2229   Lambda : -0.113D-03
Largest |displ|/coords:  0.1056 (   1)  0.0943 (   9)  0.0770 (   6)
................................................................................
.............................. CYCLE   65 ......................................
................................................................................
   1    -50.7513951 -0.507514E+02  0.143E-01    9.25       0.0  T
   2    -50.7513979 -0.283365E-05  0.108E-01    9.26       1.0  T
[...]
Maxdispl :   0.0205   ||displ|| :   0.0391   Lambda : -0.361D-05
Largest |displ|/coords:  0.0205 (   4)  0.0187 (   1)  0.0174 (  11)
................................................................................
.............................. CYCLE   90 ......................................
................................................................................
   1    -50.7540823 -0.507541E+02  0.208E-02    9.15       0.0  T
   2    -50.7540824 -0.688808E-07  0.157E-02    9.15       1.2  T
   3    -50.7540825 -0.600453E-07  0.152E-03    9.15      12.9  T
   4    -50.7540825 -0.853230E-08  0.749E-04    9.15      26.2  T
   5    -50.7540825 -0.630678E-09  0.184E-04    9.15     106.8  T
speedup  1.04
cpu  time for SCC    0.00 s
wall time for SCC    0.00 s
speedup  0.97
cpu  time for grad    0.01 s
wall time for grad    0.01 s
 E :    -50.46678624  G :  0.001048    pred/act E change: -0.319D-05 -0.250D-05
Maxdispl :   0.0192   ||displ|| :   0.0351   Lambda : -0.249D-05
Largest |displ|/coords:  0.0192 (   1)  0.0183 (   4)  0.0146 (  11)
................................................................................
.............................. CYCLE   91 ......................................
................................................................................
   1    -50.7541581 -0.507542E+02  0.176E-02    9.15       0.0  T
   2    -50.7541582 -0.844628E-07  0.133E-02    9.15       1.5  T
   3    -50.7541583 -0.474132E-07  0.192E-03    9.15      10.2  T
   4    -50.7541583 -0.148485E-07  0.680E-04    9.15      28.8  T
   5    -50.7541583 -0.608985E-09  0.165E-04    9.15     118.8  T
speedup  1.11
cpu  time for SCC    0.00 s
wall time for SCC    0.00 s
speedup  0.99
cpu  time for grad    0.01 s
wall time for grad    0.01 s
 E :    -50.46678788  G :  0.000749    pred/act E change: -0.181D-05 -0.164D-05
Maxdispl :   0.0134   ||displ|| :   0.0194   Lambda : -0.118D-05
Largest |displ|/coords:  0.0134 (   1)  0.0078 (   4)  0.0066 (  11)
................................................................................
.............................. CYCLE   92 ......................................
................................................................................
   1    -50.7542839 -0.507543E+02  0.911E-03    9.16       0.0  T
   2    -50.7542839 -0.260724E-07  0.686E-03    9.16       2.9  T
   3    -50.7542839 -0.116747E-07  0.120E-03    9.16      16.3  T
   4    -50.7542839 -0.483078E-08  0.329E-04    9.16      59.6  T
   5    -50.7542839 -0.147260E-09  0.816E-05    9.16     240.2  T
speedup  1.11
cpu  time for SCC    0.00 s
wall time for SCC    0.00 s
speedup  0.99
cpu  time for grad    0.01 s
wall time for grad    0.01 s
 E :    -50.46678864  G :  0.000483    pred/act E change: -0.125D-05 -0.768D-06
Maxdispl :   0.0092   ||displ|| :   0.0121   Lambda : -0.552D-06
Largest |displ|/coords:  0.0092 (   1)  0.0044 (   4)  0.0038 (   2)
................................................................................
.............................. CYCLE   93 ......................................
................................................................................
   1    -50.7543707 -0.507544E+02  0.519E-03    9.16       0.0  T
   2    -50.7543707 -0.893713E-08  0.387E-03    9.16       5.1  T
   3    -50.7543707 -0.522826E-08  0.794E-04    9.16      24.7  T
   4    -50.7543707 -0.138728E-08  0.203E-04    9.16      96.6  T
speedup  1.08
cpu  time for SCC    0.00 s
wall time for SCC    0.00 s
speedup  0.98
cpu  time for grad    0.01 s
wall time for grad    0.01 s
 E :    -50.46678904  G :  0.000404    pred/act E change: -0.592D-06 -0.392D-06
Maxdispl :   0.0101   ||displ|| :   0.0125   Lambda : -0.402D-06
Largest |displ|/coords:  0.0101 (   1)  0.0036 (   4)  0.0034 (   2)
................................................................................
.............................. CYCLE   94 ......................................
................................................................................
   1    -50.7544090 -0.507544E+02  0.538E-03    9.16       0.0  T
   2    -50.7544090 -0.552699E-08  0.403E-03    9.16       4.9  T
   3    -50.7544090 -0.511976E-08  0.549E-04    9.16      35.7  T
   4    -50.7544090 -0.660918E-09  0.193E-04    9.16     101.6  T
speedup  1.11
cpu  time for SCC    0.00 s
wall time for SCC    0.00 s
speedup  0.99
cpu  time for grad    0.01 s
wall time for grad    0.01 s
 E :    -50.46678935  G :  0.000400    pred/act E change: -0.276D-06 -0.309D-06
Maxdispl :   0.0140   ||displ|| :   0.0176   Lambda : -0.507D-06
Largest |displ|/coords:  0.0140 (   1)  0.0051 (   2)  0.0042 (   9)
................................................................................
.............................. CYCLE   95 ......................................
................................................................................
   1    -50.7544326 -0.507544E+02  0.747E-03    9.16       0.0  T
   2    -50.7544326 -0.117062E-07  0.561E-03    9.16       3.5  T
   3    -50.7544326 -0.106995E-07  0.788E-04    9.16      24.9  T
   4    -50.7544326 -0.144401E-08  0.311E-04    9.16      63.0  T
speedup  1.08
cpu  time for SCC    0.00 s
wall time for SCC    0.00 s
speedup  1.04
cpu  time for grad    0.01 s
wall time for grad    0.01 s
 E :    -50.46678971  G :  0.000378    pred/act E change: -0.201D-06 -0.365D-06
Maxdispl :   0.0115   ||displ|| :   0.0147   Lambda : -0.353D-06
Largest |displ|/coords:  0.0115 (   1)  0.0039 (   9)  0.0033 (   5)
................................................................................
.............................. CYCLE   96 ......................................
................................................................................
   1    -50.7544181 -0.507544E+02  0.613E-03    9.16       0.0  T
   2    -50.7544181 -0.766635E-08  0.460E-03    9.16       4.3  T
   3    -50.7544181 -0.692842E-08  0.629E-04    9.16      31.2  T
   4    -50.7544181 -0.921290E-09  0.255E-04    9.16      77.0  T
speedup  0.83
cpu  time for SCC    0.00 s
wall time for SCC    0.00 s
speedup  0.98
cpu  time for grad    0.01 s
wall time for grad    0.01 s
 E :    -50.46678996  G :  0.000295    pred/act E change: -0.254D-06 -0.250D-06
Maxdispl :   0.0081   ||displ|| :   0.0106   Lambda : -0.215D-06
Largest |displ|/coords:  0.0081 (   1)  0.0036 (   9)  0.0030 (   6)
................................................................................
.............................. CYCLE   97 ......................................
................................................................................
   1    -50.7544041 -0.507544E+02  0.409E-03    9.16       0.0  T
   2    -50.7544041 -0.300091E-08  0.307E-03    9.16       6.4  T
   3    -50.7544041 -0.312779E-08  0.405E-04    9.16      48.4  T
   4    -50.7544041 -0.280998E-09  0.133E-04    9.16     147.1  T
speedup  0.81
cpu  time for SCC    0.00 s
wall time for SCC    0.00 s
speedup  0.98
cpu  time for grad    0.01 s
wall time for grad    0.01 s
 E :    -50.46679011  G :  0.000240    pred/act E change: -0.176D-06 -0.149D-06
Maxdispl :   0.0053   ||displ|| :   0.0072   Lambda : -0.129D-06
Largest |displ|/coords:  0.0053 (   1)  0.0030 (   6)  0.0018 (   9)
................................................................................
.............................. CYCLE   98 ......................................
................................................................................
   1    -50.7543965 -0.507544E+02  0.274E-03    9.16       0.0  T
   2    -50.7543965 -0.128281E-08  0.206E-03    9.16       9.5  T
   3    -50.7543965 -0.111552E-08  0.231E-04    9.16      85.0  T
   4    -50.7543965 -0.155474E-09  0.900E-05    9.16     217.8  T
speedup  1.08
cpu  time for SCC    0.00 s
wall time for SCC    0.00 s
speedup  0.98
cpu  time for grad    0.01 s
wall time for grad    0.01 s
 E :    -50.46679020  G :  0.000218    pred/act E change: -0.107D-06 -0.908D-07
Maxdispl :   0.0049   ||displ|| :   0.0070   Lambda : -0.110D-06
Largest |displ|/coords:  0.0049 (   1)  0.0028 (   6)  0.0019 (   2)
................................................................................
.............................. CYCLE   99 ......................................
................................................................................
   1    -50.7544015 -0.507544E+02  0.261E-03    9.16       0.0  T
   2    -50.7544015 -0.156647E-08  0.196E-03    9.16      10.0  T
   3    -50.7544015 -0.714309E-09  0.232E-04    9.16      84.6  T
   4    -50.7544015 -0.292296E-09  0.118E-04    9.16     166.7  T
speedup  1.08
cpu  time for SCC    0.00 s
wall time for SCC    0.00 s
speedup  0.98
cpu  time for grad    0.01 s
wall time for grad    0.01 s
 E :    -50.46679028  G :  0.000173    pred/act E change: -0.643D-07 -0.790D-07
Maxdispl :   0.0043   ||displ|| :   0.0066   Lambda : -0.839D-07
Largest |displ|/coords:  0.0043 (   1)  0.0025 (   2)  0.0022 (   6)

   *** GEOMETRY OPTIMIZATION CONVERGED AFTER 99 ITERATIONS ***

------------------------------------------------------------------------
 total energy gain (kcal):     -0.1214
------------------------------------------------------------------------
================
 final structure:
================
$coord
        1.08265201560446        1.70949732511525       -1.80157810655946      S 
        3.30166027092225        0.24707263650622       -1.04610217027310      O 
        0.21745990238559        3.31692346045827        0.22779873132356      O 
       -0.90163667264417        0.01968637375809       -2.75584005716926      O 
        1.86830787468353        3.46858002740127       -4.03063601978006      O 
        2.04358400083408        2.33764792747834       -5.48367190422669      H 
       -0.29605708010097       -2.53517857447424       -0.87111820469258      H 
        0.11873237971099       -3.92065428608889        0.27400736794399      O 
        1.85929166031470       -4.29425364807166       -0.07231287841855      H 
       -3.44195547612147        1.54162330164780        3.39279756651036      O 
       -2.31491493689829        2.48069021179336        2.28436605653717      H 
       -4.56924750220762        0.63630116807405        2.24655342821334      H 
       -5.33098820727269       -1.32103874785669       -0.44059289845764      O 
       -3.97587313051582       -0.68041141672490       -1.50136869140088      H 
       -4.90490386808639       -3.05042738035238       -0.09131314471810      H 
        1.19161853959294       -0.27929016948796       -7.26997264408970      O 
        0.00660633106538        0.01556735116876       -8.61169655079270      H 
        0.19929479830174       -0.66495252507503       -5.76280750806330      H 
       -0.20311552687574       -1.85132088811769        4.93584797534708      O 
       -0.20243299093681       -2.92690213528023        3.42743424571587      H 
        1.89203327452281       -0.11076262663631        4.46639183138930      H 
       -1.63591660205624       -0.65816318169411        4.66291236629079      H 
        3.24904450864964        1.30396047634430        3.71658575149565      N 
        3.63808952786345        0.74424695492678        1.82116237755629      H 
        4.82602695184014        1.50695673088513        4.78623597648777      H 
        2.28263995731864        2.96460165329234        3.49691710394637      H 
$end
 
 Bond Distances (Angstroems)
 ---------------------------
S1-O2=1.4620         S1-O3=1.4444         S1-O4=1.4687         S1-O5=1.5591         O2-S1=1.4620         O3-S1=1.4444         
O4-S1=1.4687         O5-S1=1.5591         O5-H6=0.9788         H6-O5=0.9788         H7-O8=0.9762         O8-H7=0.9762         
O8-H9=0.9597         H9-O8=0.9597         O10-H11=0.9730       O10-H12=0.9764       H11-O10=0.9730       H12-O10=0.9764       
O13-H14=0.9717       O13-H15=0.9605       H14-O13=0.9717       H15-O13=0.9605       O16-H17=0.9600       O16-H18=0.9765       
H17-O16=0.9600       H18-O16=0.9765       O19-H20=0.9804       O19-H22=0.9972       H20-O19=0.9804       H21-N23=1.1107       
H22-O19=0.9972       N23-H21=1.1107       N23-H24=1.0659       N23-H25=1.0141       N23-H26=1.0234       H24-N23=1.0659       
H25-N23=1.0141       H26-N23=1.0234       
 N  H  Rav=1.0535 sigma=0.0384  Rmin=1.0141  Rmax=1.1107     4
 O  H  Rav=0.9737 sigma=0.0105  Rmin=0.9597  Rmax=0.9972    11
 S  O  Rav=1.4836 sigma=0.0445  Rmin=1.4444  Rmax=1.5591     4
 
 selected bond angles (degree)
 --------------------
O3-S1-O2=111.28                O4-S1-O2=110.24                O4-S1-O3=112.80                O5-S1-O2=107.98                
O5-S1-O3=107.18                O5-S1-O4=107.10                H6-O5-S1=104.75                H9-O8-H7=104.59                
H12-O10-H11=104.51             
 
 selected dihedral angles (degree)
 ---------------------------------
H6-O5-S1-O2= 73.35            H6-O5-S1-O3=193.34            H6-O5-S1-O4=314.64            
 
 CMA Distance (Angstroems)
 ---------------------------
R(CMA):  2.1344

========================================================================
 FINAL SINGLEPOINT CALCULATION ON OPTIMIZED GEOMETRY
========================================================================

 Ncao       : 65
 Nao        : 64
 Nshell     : 38
 Nel        : 80
 T(el)      :   300.0
 intcut     :    25.0
 scfconv/Eh :  0.100E-05
   qconv/e  :  0.100E-03
 intneglect :  0.100E-07
 broydamp   :      0.250
 iter      E             dE          RMSdq      gap      omega  full diag
   1    -50.7544015 -0.507544E+02  0.417E-05    9.16       0.0  T
   2    -50.7544015 -0.881073E-12  0.260E-05    9.16     755.5  T
   3    -50.7544015 -0.490274E-12  0.452E-06    9.16    4336.9  T
speedup  0.74
cpu  time for SCC    0.00 s
wall time for SCC    0.00 s

   *** convergence criteria satisfied after 3 iterations ***

          eigenvalues
 #    :          28         29         30         31         32         33         34         35
 occ. :        2.000      2.000      2.000      2.000      2.000      2.000      2.000      2.000
 eps  :       -13.542    -13.380    -12.686    -12.537    -12.531    -12.394    -12.326    -12.291
 #    :          36         37         38         39         40         41         42         43
 occ. :        2.000      2.000      2.000      2.000      2.000      0.000      0.000      0.000
 eps  :       -12.196    -12.154    -12.031    -11.805    -11.584     -2.428     -0.920     -0.304
 #    :          44         45         46         47         48         49         50         51
 occ. :        0.000      0.000      0.000      0.000      0.000      0.000      0.000      0.000
 eps  :         0.661      1.000      1.189      1.817      2.925      3.271      4.285      5.047


   #   Z            q   n(s)   n(p)   n(d)      C6AA      α(0)
   1  16 S      1.710  1.585  1.768  0.937    88.543    15.837
   2   8 O     -0.754  1.772  4.982  0.000    30.214     7.370
   3   8 O     -0.737  1.759  4.978  0.000    29.737     7.311
   4   8 O     -0.784  1.781  5.003  0.000    31.094     7.476
   5   8 O     -0.611  1.758  4.853  0.000    25.426     6.807
   6   1 H      0.374  0.626  0.000  0.000     0.529     1.139
   7   1 H      0.315  0.685  0.000  0.000     0.679     1.294
   8   8 O     -0.617  1.741  4.876  0.000    25.593     6.828
   9   1 H      0.296  0.704  0.000  0.000     0.734     1.346
  10   8 O     -0.628  1.754  4.874  0.000    25.872     6.865
  11   1 H      0.310  0.690  0.000  0.000     0.692     1.307
  12   1 H      0.321  0.679  0.000  0.000     0.662     1.278
  13   8 O     -0.602  1.746  4.856  0.000    25.234     6.780
  14   1 H      0.315  0.685  0.000  0.000     0.677     1.293
  15   1 H      0.295  0.705  0.000  0.000     0.736     1.347
  16   8 O     -0.607  1.747  4.859  0.000    25.347     6.795
  17   1 H      0.296  0.704  0.000  0.000     0.732     1.344
  18   1 H      0.319  0.681  0.000  0.000     0.667     1.283
  19   8 O     -0.616  1.764  4.852  0.000    25.549     6.823
  20   1 H      0.327  0.673  0.000  0.000     0.645     1.262
  21   1 H      0.313  0.687  0.000  0.000     0.675     1.286
  22   1 H      0.341  0.659  0.000  0.000     0.611     1.229
  23   7 N     -0.352  1.278  4.074  0.000    29.035     8.003
  24   1 H      0.289  0.711  0.000  0.000     0.747     1.354
  25   1 H      0.230  0.770  0.000  0.000     0.966     1.539
  26   1 H      0.257  0.743  0.000  0.000     0.855     1.449

 Mol. C6AA /au·bohr⁶  :       5456.690739
 Mol. C8AA /au·bohr⁸  :     118018.066181
 Mol. α(0) /au        :        106.644706

 
 Wiberg/Mayer (AO) data. WBOs > 0.1 written file <wbo>
 largest (>0.05) Wiberg bond orders for each atom
           total WBO             WBO to atom ...
     1  S   4.814    O    3 1.352    O    2 1.263    O    4 1.218    O    5 0.943
     2  O   1.727    S    1 1.263    H   24 0.116    O    3 0.112    O    4 0.101    O    5 0.077
     3  O   1.721    S    1 1.352    O    2 0.112    O    4 0.103    O    5 0.066
     4  O   1.700    S    1 1.218    O    3 0.103    O    2 0.101    O    5 0.077    H    7 0.053    H   18 0.050
     5  O   1.971    S    1 0.943    H    6 0.774    O    2 0.077    O    4 0.077    O    3 0.066
     6  H   0.860    O    5 0.774    O   16 0.068
     7  H   0.901    O    8 0.840    O    4 0.053
     8  O   1.860    H    9 0.908    H    7 0.840    H   20 0.054
     9  H   0.913    O    8 0.908
    10  O   1.886    H   11 0.862    H   12 0.848    H   22 0.088
    11  H   0.904    O   10 0.862
    12  H   0.897    O   10 0.848
    13  O   1.866    H   15 0.910    H   14 0.861
    14  H   0.901    O   13 0.861
    15  H   0.913    O   13 0.910
    16  O   1.877    H   17 0.910    H   18 0.844    H    6 0.068
    17  H   0.912    O   16 0.910
    18  H   0.898    O   16 0.844    O    4 0.050
    19  O   1.991    H   20 0.837    H   22 0.794    H   21 0.202    N   23 0.086
    20  H   0.893    O   19 0.837    O    8 0.054
    21  H   0.902    N   23 0.696    O   19 0.202
    22  H   0.884    O   19 0.794    O   10 0.088
    23  N   3.502    H   25 0.943    H   26 0.913    H   24 0.793    H   21 0.696    O   19 0.086
    24  H   0.917    N   23 0.793    O    2 0.116
    25  H   0.947    N   23 0.943
    26  H   0.934    N   23 0.913
 MOs/occ written to file <molden.input>
 
molecular dipole:
                 x           y           z       tot (Debye)
 q only:        1.443      -0.180       1.016
   full:        1.570      -0.026      -0.016       3.990
molecular quadrupole (traceless):
                xx          xy          yy          xz          yz          zz
 q only:       -2.319       4.201      -5.701      16.589       4.061       8.020
  q+dip:       -3.214       4.956      -3.874      19.521       4.573       7.088
   full:       -3.369       4.978      -4.119      19.387       4.288       7.488

SCC energy    :     -50.7544015
rep           :       0.2873403
ES            :       0.2635447
AES           :      -0.0758913
AXC           :      -0.0090478
disp          :      -0.0200708
XB            :       0.0000000
fix           :       0.0000000
total E       :     -50.4667903
atomizationE  :       4.9970944     3135.72
(atE without considering molecular charge,
 total energy contains solvation terms)
H-L gap (eV)  :          9.1557
optimized geometry written to: xtbopt.xyz


------------------------------------------------------------------------
 * finished run on 2019/09/16 at 12:33:18.207     
------------------------------------------------------------------------
 total:
 * wall-time:     0 d,  0 h,  0 min,  2.267 sec
 *  cpu-time:     0 d,  0 h,  0 min,  2.246 sec
 * ratio c/w:     0.991 speedup
 SCF:
 * wall-time:     0 d,  0 h,  0 min,  0.140 sec
 *  cpu-time:     0 d,  0 h,  0 min,  0.136 sec
 * ratio c/w:     0.971 speedup
 ANC optimizer:
 * wall-time:     0 d,  0 h,  0 min,  2.102 sec
 *  cpu-time:     0 d,  0 h,  0 min,  2.087 sec
 * ratio c/w:     0.993 speedup

