      -----------------------------------------------------------      
     |                   =====================                   |     
     |                           x T B                           |     
     |                   =====================                   |     
     |                         S. Grimme                         |     
     |          Mulliken Center for Theoretical Chemistry        |     
     |                    University of Bonn                     |     
     |                 Version 6.0.1 (SAW181210)                 |     
      -----------------------------------------------------------      

   This program is distributed in the hope that it will be useful,
   but WITHOUT ANY WARRANTY; without even the implied warranty of
   MERCHANTABILITY or FITNESS FOR A PARTICULAR PURPOSE.
   
   FOR NON-COMMERCIAL, ACADEMIA USE ONLY.
   
   Cite this work as:
   S. Grimme, C. Bannwarth, P. Shushkov, J. Comput. Theory Chem., 2017,
   13, 1989-2009.
   C. Bannwarth, S. Ehlert and S. Grimme., ChemRxiv, 2018, preprint.
   http://doi.org/10.26434/chemrxiv.7246238.v1
   
   for sTDA-xTB:
   S. Grimme and C. Bannwarth, J. Chem. Phys., 2016, 145, 054103.
   
   in the mass-spec context:
   V. Asgeirsson, C. Bauer and S. Grimme, Chem. Sci., 2017, 8, 4879.
   
   if GBSA is used:
   P. Shushkov, F. März and S. Grimme, unpublished.
   
   for ANC optimizer:
   S. Grimme, unpublished.
   Rational Function algorithm used in ANCopt:
   F. Eckert, P. Pulay, H.-J. Werner, J. Comput. Chem., 1997, 18, 1473.
   
   with help from (in alphabetical order)
   C. Bannwarth, F. Bohle, G. Brandenburg, E. Caldeweyher, M. Checinski,
   S. Dohm, S. Ehlert, S. Ehrlich, F. März, H. Neugebauer, J. Pisarek,
   P. Pracht, P. Shushkov, and S. Spicher.
   
 * started run on 2019/09/16 at 11:30:44.263     
========================================================================
 # omp threads = 1
========================================================================
number of atoms            : 26
number of electrons        : 80
charge                     : 0
spin                       : .0
first test random number   : .5368

########################################################################
# WARNING! Please study the warnings concerning your input carefully
#  - XTBPATH is not set, using XTBHOME instead
#  - the use of '-opt' is discouraged, please use '--opt' next time
#  - the use of '-chrg' is discouraged, please use '--chrg' next time
#  - the use of '-uhf' is discouraged, please use '--uhf' next time
########################################################################

           ------------------------------------------------- 
          |                 G F N 2 - x T B                 |
          | Geometry, Frequencies, Noncovalent interactions |
          |            JCTC 2018 parametrisation            |
           ------------------------------------------------- 
      method parameters     
 k(s)        :  1.8500
 k(p)        :  2.2300
 k(d)        :  2.2300
 k(f)        :  2.0000
 kEN (H0ij)  : -2.0000
 D4 a1       :  0.5200
 D4 a2       :  5.0000
 D4 s6       :  1.0000
 D4 s8       :  2.7000
 D4 s9       :  5.0000
 alphaj      :  2.0000


            Z     q(EN)     CN     RAES       Cart. coordinates
     1  S   6.0    0.61    4.53    4.60    -0.31226    -2.57089     2.79585
     2  O   6.0   -0.32    1.21    1.80    -0.61716    -3.59336     0.19014
     3  O   6.0   -0.33    1.25    1.80    -1.34427     0.04663     2.90370
     4  O   6.0   -0.27    2.13    1.84     2.38266    -2.53176     3.46548
     5  O   6.0   -0.25    2.08    1.84    -1.68858    -4.18325     4.58989
     6  H   1.0    0.14    1.22    1.47    -0.52822    -4.86030     5.80901
     7  H   1.0    0.19    1.40    1.54     3.28250    -1.47868     2.29398
     8  O   6.0   -0.40    1.61    1.81     4.28490     0.11776     0.21686
     9  H   1.0    0.18    0.94    1.42     6.04411     0.71839     0.38465
    10  O   6.0   -0.27    1.96    1.82     3.47597    -3.12562    -3.08590
    11  H   1.0    0.18    1.11    1.45     4.09859    -1.92310    -1.86898
    12  H   1.0    0.17    1.01    1.43     1.94681    -3.79670    -2.36068
    13  O   6.0   -0.28    1.99    1.83    -5.41791     1.56745     0.11645
    14  H   1.0    0.17    1.03    1.43    -4.16599     0.97414     1.29768
    15  H   1.0    0.15    0.97    1.43    -5.26301     3.38145     0.12139
    16  O   6.0   -0.30    2.00    1.83    -1.01758     4.83268     1.15835
    17  H   1.0    0.15    0.97    1.43    -0.51246     5.99774     2.46299
    18  H   1.0    0.17    1.03    1.43    -1.03744     3.19607     1.95569
    19  O   6.0   -0.28    2.03    1.83    -2.90170    -0.91762    -3.56605
    20  H   1.0    0.17    1.02    1.43    -2.27027    -2.29914    -2.56240
    21  H   1.0    0.16    1.02    1.43    -4.27410    -0.20978    -2.60165
    22  N   5.0   -0.14    3.96    2.76     1.16708     2.13158    -2.74329
    23  H   1.0    0.08    0.99    1.43     2.03845     2.91949    -4.29389
    24  H   1.0    0.11    1.05    1.44    -0.15349     0.83049    -3.33297
    25  H   1.0    0.13    1.18    1.46     2.49663     1.24785    -1.63164
    26  H   1.0    0.10    1.03    1.43     0.28672     3.52848    -1.71466

  Z AO/shell   Hii/eV     exponent
  1     Wed Apr 25 08:07:45 CEST 2018   EN: 2.200 GM2: 0.406  GM3: 0.0800  RAES: 1.40
     1s    -10.707211    1.230000
  7     Wed Apr 25 08:07:45 CEST 2018   EN: 3.040 GM2: 0.461  GM3:-0.0640  RAES: 1.90
     2s    -16.686243    2.339881
     2p    -12.523956    2.014332
  8     Wed Apr 25 08:07:45 CEST 2018   EN: 3.440 GM2: 0.452  GM3:-0.0517  RAES: 1.80
     2s    -20.229985    2.439742
     2p    -15.503117    2.137023
 16     Tue Apr 24 11:44:34 CEST 2018   EN: 2.580 GM2: 0.340  GM3:-0.0502  RAES: 3.10
     3s    -20.029654    1.981333
     3p    -11.377694    2.025643
     3d     -0.420282    1.702555
 no old-style atom pair restraining (fixing) potential

molecular fragmentation (1/2 indicates fragments):
11111112222222222222222222
# atoms in fragment 1/2:     7    19
 fragment masses (1/2) :       98.07      107.11
CMA distance (Bohr)    :   5.291
constraining FC (au)   :  0.0500
           ------------------------------------------------- 
          |        Self-Consistent Charge Iterations        |
           ------------------------------------------------- 

 Ncao       : 65
 Nao        : 64
 Nshell     : 38
 Nel        : 80
 T(el)      :   300.0
 intcut     :    25.0
 scfconv/Eh :  0.100E-05
   qconv/e  :  0.100E-03
 intneglect :  0.100E-07
 broydamp   :      0.250
 iter      E             dE          RMSdq      gap      omega  full diag
   1    -50.5886088 -0.505886E+02  0.708E+00   10.25       0.0  T
   2    -50.6493467 -0.607378E-01  0.510E+00    9.12       1.0  T
   3    -50.6941948 -0.448481E-01  0.141E+00    5.86       1.0  T
   4    -50.7006740 -0.647925E-02  0.642E-01    6.19       1.0  T
   5    -50.7014935 -0.819481E-03  0.372E-01    6.08       1.0  T
   6    -50.7022168 -0.723287E-03  0.172E-01    6.19       1.0  T
   7    -50.7024210 -0.204168E-03  0.589E-02    6.22       1.0  T
   8    -50.7024375 -0.165224E-04  0.371E-02    6.20       1.0  T
   9    -50.7024453 -0.782199E-05  0.156E-02    6.22       1.3  T
  10    -50.7024469 -0.162452E-05  0.278E-03    6.23       7.1  T
  11    -50.7024469 -0.247947E-07  0.140E-03    6.22      14.1  T
  12    -50.7024470 -0.892882E-08  0.441E-04    6.23      44.5  T
  13    -50.7024470 -0.578112E-09  0.190E-04    6.23     103.2  T
speedup  1.01
cpu  time for SCC    0.02 s
wall time for SCC    0.02 s

   *** convergence criteria satisfied after 13 iterations ***

          eigenvalues
 #    :          28         29         30         31         32         33         34         35
 occ. :        2.000      2.000      2.000      2.000      2.000      2.000      2.000      2.000
 eps  :       -13.171    -12.964    -12.679    -12.638    -12.409    -12.312    -12.190    -11.688
 #    :          36         37         38         39         40         41         42         43
 occ. :        2.000      2.000      2.000      2.000      2.000      0.000      0.000      0.000
 eps  :       -11.621    -11.333    -10.070     -9.911     -9.437     -3.212     -1.822     -0.525
 #    :          44         45         46         47         48         49         50         51
 occ. :        0.000      0.000      0.000      0.000      0.000      0.000      0.000      0.000
 eps  :        -0.324      0.101      1.987      2.888      2.969      3.517      4.430      5.484


   #   Z            q   n(s)   n(p)   n(d)      C6AA      α(0)
   1  16 S      1.760  1.571  1.745  0.925    87.423    15.737
   2   8 O     -0.717  1.775  4.943  0.000    29.186     7.243
   3   8 O     -0.745  1.769  4.976  0.000    29.958     7.338
   4   8 O     -0.606  1.726  4.880  0.000    25.299     6.790
   5   8 O     -0.546  1.721  4.825  0.000    23.898     6.599
   6   1 H      0.383  0.617  0.000  0.000     0.510     1.118
   7   1 H      0.420  0.580  0.000  0.000     0.442     1.040
   8   8 O     -0.878  1.842  5.036  0.000    34.036     7.822
   9   1 H      0.209  0.791  0.000  0.000     1.076     1.629
  10   8 O     -0.669  1.757  4.912  0.000    26.900     7.000
  11   1 H      0.309  0.691  0.000  0.000     0.693     1.307
  12   1 H      0.275  0.725  0.000  0.000     0.802     1.406
  13   8 O     -0.609  1.745  4.865  0.000    25.410     6.803
  14   1 H      0.313  0.687  0.000  0.000     0.682     1.297
  15   1 H      0.295  0.705  0.000  0.000     0.735     1.347
  16   8 O     -0.607  1.734  4.872  0.000    25.346     6.795
  17   1 H      0.284  0.716  0.000  0.000     0.771     1.379
  18   1 H      0.333  0.667  0.000  0.000     0.631     1.247
  19   8 O     -0.620  1.739  4.880  0.000    25.658     6.836
  20   1 H      0.313  0.687  0.000  0.000     0.682     1.297
  21   1 H      0.317  0.683  0.000  0.000     0.673     1.289
  22   7 N     -0.324  1.266  4.057  0.000    28.305     7.902
  23   1 H      0.229  0.771  0.000  0.000     0.972     1.544
  24   1 H      0.294  0.706  0.000  0.000     0.732     1.341
  25   1 H      0.317  0.683  0.000  0.000     0.663     1.275
  26   1 H      0.271  0.729  0.000  0.000     0.807     1.408

 Mol. C6AA /au·bohr⁶  :       5473.862855
 Mol. C8AA /au·bohr⁸  :     118185.296569
 Mol. α(0) /au        :        106.790405

 
 Wiberg/Mayer (AO) data. WBOs > 0.1 written file <wbo>
 largest (>0.05) Wiberg bond orders for each atom
           total WBO             WBO to atom ...
     1  S   4.767    O    2 1.329    O    3 1.288    O    4 1.085    O    5 1.011
     2  O   1.705    S    1 1.329    O    3 0.131    O    4 0.094    O    5 0.074
     3  O   1.686    S    1 1.288    O    2 0.131    O    4 0.090    O    5 0.070
     4  O   2.000    S    1 1.085    H    7 0.619    O    2 0.094    O    3 0.090    O    5 0.052
     5  O   2.048    S    1 1.011    H    6 0.830    O    2 0.074    O    3 0.070    O    4 0.052
     6  H   0.853    O    5 0.830
     7  H   0.824    O    4 0.619    O    8 0.184
     8  O   1.560    H    9 0.945    H    7 0.184    H   25 0.152    H   11 0.101    N   22 0.064
     9  H   0.956    O    8 0.945
    10  O   1.776    H   12 0.903    H   11 0.800
    11  H   0.905    O   10 0.800    O    8 0.101
    12  H   0.924    O   10 0.903
    13  O   1.853    H   15 0.906    H   14 0.861
    14  H   0.902    O   13 0.861
    15  H   0.913    O   13 0.906
    16  O   1.856    H   17 0.912    H   18 0.846
    17  H   0.919    O   16 0.912
    18  H   0.889    O   16 0.846
    19  O   1.884    H   20 0.870    H   21 0.858    H   24 0.076
    20  H   0.902    O   19 0.870
    21  H   0.900    O   19 0.858
    22  N   3.533    H   23 0.943    H   26 0.878    H   24 0.832    H   25 0.736    O    8 0.064
    23  H   0.948    N   22 0.943
    24  H   0.914    N   22 0.832    O   19 0.076
    25  H   0.900    N   22 0.736    O    8 0.152
    26  H   0.927    N   22 0.878
 MOs/occ written to file <molden.input>
 
molecular dipole:
                 x           y           z       tot (Debye)
 q only:       -0.263       1.394       1.477
   full:        0.170       1.298       2.690       7.605
molecular quadrupole (traceless):
                xx          xy          yy          xz          yz          zz
 q only:      -17.224       5.369       7.966       1.144     -18.484       9.258
  q+dip:      -19.177       6.447       9.891       1.726     -21.005       9.286
   full:      -18.997       6.820       9.868       1.779     -21.500       9.129

SCC energy    :     -50.7024470
rep           :       0.3082573
ES            :       0.2926840
AES           :      -0.0668458
AXC           :      -0.0083025
disp          :      -0.0200194
XB            :       0.0000000
fix           :       0.0000000
total E       :     -50.3938165
atomizationE  :       4.9241207     3089.93
(atE without considering molecular charge,
 total energy contains solvation terms)
H-L gap (eV)  :          6.2250
           ------------------------------------------------- 
          |                 ===============                 |
          |                   A N C O P T                   |
          |                 ===============                 |
          |          Approximate Normal Coordinate          |
          |           Rational Function Optimizer           |
           ------------------------------------------------- 
dumping coords to <xtbopt.coord> and <xtbopt.log>
 optlevel               2
 Maxcycle             520
 Maxmicro              25
 Econv         1.000000000000000E-007
 Gconv         2.000000000000000E-004
 Maxdispl       1.00000000000000     
 Hlow          5.000000000000000E-003
 S6             20.0000000000000     
 Nvar               72

generating ANC from model Hessian ...
 Shifting diagonal of input Hessian by   5.779265883672845E-003
 Lowest  eigenvalues of input Hessian
    0.005000   -0.000000   -0.000000    0.000000    0.000000    0.000000
    0.000000    0.005932    0.006387    0.007180    0.007608    0.007889
    0.008119    0.008408    0.008997    0.009332    0.009950    0.010414
 Highest eigenvalues
    1.444284    1.448159    1.575169    3.217348    3.415742    3.468898
 
cpu  time for ANC gen    0.02 s
wall time for ANC gen    0.02 s
................................................................................
.............................. CYCLE    1 ......................................
................................................................................
   1    -50.7024470 -0.507024E+02  0.692E-05    6.23       0.0  T
   2    -50.7024470 -0.157598E-10  0.514E-05    6.23     381.4  T
   3    -50.7024470 -0.101892E-10  0.268E-05    6.23     732.5  T
speedup  0.69
cpu  time for SCC    0.00 s
wall time for SCC    0.00 s
speedup  0.96
cpu  time for grad    0.01 s
wall time for grad    0.01 s
 E :    -50.39381645  G :  0.228846    pred/act E change:  0.000D+00  0.424D-07
Maxdispl :   0.0706   ||displ|| :   0.2538   Lambda : -0.290D-01
Largest |displ|/coords:  0.0706 (  43)  0.0661 (  31)  0.0633 (  35)
................................................................................
.............................. CYCLE    2 ......................................
................................................................................
   1    -50.7099400 -0.507099E+02  0.278E-01    6.57       0.0  T
   2    -50.7102166 -0.276613E-03  0.216E-01    6.68       1.0  T
   3    -50.7103228 -0.106171E-03  0.110E-01    6.85       1.0  T
   4    -50.7103322 -0.947102E-05  0.308E-02    6.90       1.0  T
   5    -50.7103333 -0.111205E-05  0.548E-03    6.89       3.6  T
   6    -50.7103334 -0.456894E-07  0.315E-03    6.89       6.2  T
speedup  1.11
cpu  time for SCC    0.01 s
wall time for SCC    0.01 s
speedup  1.04
cpu  time for grad    0.01 s
wall time for grad    0.01 s
 E :    -50.41625929  G :  0.142930    pred/act E change:  0.000D+00 -0.224D-01
Maxdispl :   0.0879   ||displ|| :   0.2497   Lambda : -0.141D-01
Largest |displ|/coords:  0.0879 (   1)  0.0859 (  30)  0.0703 (  20)
................................................................................
.............................. CYCLE    3 ......................................
................................................................................
   1    -50.7185623 -0.507186E+02  0.213E-01    7.11       0.0  T
   2    -50.7188747 -0.312408E-03  0.166E-01    7.24       1.0  T
   3    -50.7189782 -0.103494E-03  0.110E-01    7.37       1.0  T
   4    -50.7189882 -0.100562E-04  0.276E-02    7.44       1.0  T
   5    -50.7189890 -0.815260E-06  0.561E-03    7.44       3.5  T
   6    -50.7189891 -0.455273E-07  0.307E-03    7.44       6.4  T
speedup  1.11
cpu  time for SCC    0.01 s
wall time for SCC    0.01 s
speedup  1.04
cpu  time for grad    0.01 s
wall time for grad    0.01 s
 E :    -50.42781082  G :  0.090158    pred/act E change: -0.155D-01 -0.116D-01
Maxdispl :   0.1092   ||displ|| :   0.2457   Lambda : -0.847D-02
Largest |displ|/coords:  0.1092 (  30)  0.0720 (  20)  0.0599 (  21)
................................................................................
.............................. CYCLE    4 ......................................
................................................................................
   1    -50.7251775 -0.507252E+02  0.210E-01    7.47       0.0  T
   2    -50.7254572 -0.279711E-03  0.163E-01    7.54       1.0  T
   3    -50.7255566 -0.993584E-04  0.997E-02    7.63       1.0  T
   4    -50.7255653 -0.876534E-05  0.274E-02    7.69       1.0  T
   5    -50.7255663 -0.992301E-06  0.599E-03    7.69       3.3  T
   6    -50.7255664 -0.529059E-07  0.327E-03    7.69       6.0  T
speedup  1.09
cpu  time for SCC    0.01 s
wall time for SCC    0.01 s
speedup  1.03
cpu  time for grad    0.01 s
wall time for grad    0.01 s
 E :    -50.43478616  G :  0.060585    pred/act E change: -0.750D-02 -0.698D-02
Maxdispl :   0.1101   ||displ|| :   0.2565   Lambda : -0.541D-02
Largest |displ|/coords:  0.1101 (   1)  0.1081 (  30)  0.0886 (  20)
................................................................................
.............................. CYCLE    5 ......................................
................................................................................
   1    -50.7286880 -0.507287E+02  0.220E-01    7.63       0.0  T
   2    -50.7288858 -0.197789E-03  0.167E-01    7.70       1.0  T
   3    -50.7289655 -0.796419E-04  0.817E-02    7.81       1.0  T
   4    -50.7289729 -0.740546E-05  0.271E-02    7.84       1.0  T
   5    -50.7289740 -0.116860E-05  0.546E-03    7.84       3.6  T
   6    -50.7289741 -0.400104E-07  0.316E-03    7.84       6.2  T
speedup  1.11
cpu  time for SCC    0.01 s
wall time for SCC    0.01 s
speedup  1.03
cpu  time for grad    0.01 s
wall time for grad    0.01 s
 E :    -50.43950037  G :  0.053606    pred/act E change: -0.449D-02 -0.471D-02
Maxdispl :   0.1134   ||displ|| :   0.2347   Lambda : -0.500D-02
Largest |displ|/coords:  0.1134 (  30)  0.0710 (  11)  0.0645 (  69)
................................................................................
.............................. CYCLE    6 ......................................
................................................................................
   1    -50.7335713 -0.507336E+02  0.237E-01    7.80       0.0  T
   2    -50.7337573 -0.185919E-03  0.179E-01    7.87       1.0  T
   3    -50.7338423 -0.850206E-04  0.728E-02    7.99       1.0  T
   4    -50.7338524 -0.100871E-04  0.294E-02    8.00       1.0  T
   5    -50.7338538 -0.138359E-05  0.602E-03    8.01       3.3  T
   6    -50.7338538 -0.526297E-07  0.353E-03    8.00       5.6  T
   7    -50.7338538 -0.164279E-07  0.990E-04    8.00      19.8  T
speedup  0.95
cpu  time for SCC    0.01 s
wall time for SCC    0.01 s
speedup  0.98
cpu  time for grad    0.01 s
wall time for grad    0.01 s
 E :    -50.44390502  G :  0.053027    pred/act E change: -0.288D-02 -0.440D-02
Maxdispl :   0.1098   ||displ|| :   0.2607   Lambda : -0.516D-02
Largest |displ|/coords:  0.1098 (  30)  0.1067 (   1)  0.0779 (  69)
................................................................................
.............................. CYCLE    7 ......................................
................................................................................
   1    -50.7380724 -0.507381E+02  0.282E-01    7.93       0.0  T
   2    -50.7382495 -0.177094E-03  0.212E-01    8.00       1.0  T
   3    -50.7383360 -0.865049E-04  0.735E-02    8.15       1.0  T
   4    -50.7383492 -0.132028E-04  0.323E-02    8.16       1.0  T
   5    -50.7383507 -0.148383E-05  0.601E-03    8.15       3.3  T
   6    -50.7383507 -0.506554E-07  0.368E-03    8.15       5.3  T
   7    -50.7383507 -0.209744E-07  0.991E-04    8.15      19.8  T
speedup  1.13
cpu  time for SCC    0.01 s
wall time for SCC    0.01 s
speedup  1.05
cpu  time for grad    0.01 s
wall time for grad    0.01 s
 E :    -50.44832762  G :  0.052776    pred/act E change: -0.264D-02 -0.442D-02
Maxdispl :   0.0804   ||displ|| :   0.2009   Lambda : -0.404D-02
Largest |displ|/coords:  0.0804 (  30)  0.0641 (  69)  0.0573 (  11)
................................................................................
.............................. CYCLE    8 ......................................
................................................................................
   1    -50.7436307 -0.507436E+02  0.184E-01    8.12       0.0  T
   2    -50.7436886 -0.578856E-04  0.136E-01    8.16       1.0  T
   3    -50.7437243 -0.357571E-04  0.417E-02    8.24       1.0  T
   4    -50.7437289 -0.461549E-05  0.200E-02    8.24       1.0  T
   5    -50.7437296 -0.640624E-06  0.405E-03    8.25       4.8  T
   6    -50.7437296 -0.268626E-07  0.235E-03    8.25       8.4  T
speedup  1.11
cpu  time for SCC    0.01 s
wall time for SCC    0.01 s
speedup  1.03
cpu  time for grad    0.01 s
wall time for grad    0.01 s
 E :    -50.45172278  G :  0.047167    pred/act E change: -0.276D-02 -0.340D-02
Maxdispl :   0.1686   ||displ|| :   0.4378   Lambda : -0.845D-02
Largest |displ|/coords:  0.1686 (  32)  0.1293 (  69)  0.1166 (  34)
................................................................................
.............................. CYCLE    9 ......................................
................................................................................
   1    -50.7500129 -0.507500E+02  0.372E-01    8.17       0.0  T
   2    -50.7501029 -0.900396E-04  0.267E-01    8.24       1.0  T
   3    -50.7501735 -0.706047E-04  0.657E-02    8.39       1.0  T
   4    -50.7501799 -0.641629E-05  0.164E-02    8.39       1.2  T
   5    -50.7501804 -0.463999E-06  0.564E-03    8.39       3.5  T
   6    -50.7501805 -0.547513E-07  0.315E-03    8.39       6.2  T
speedup  1.13
cpu  time for SCC    0.01 s
wall time for SCC    0.01 s
speedup  1.04
cpu  time for grad    0.01 s
wall time for grad    0.01 s
 E :    -50.45680205  G :  0.023946    pred/act E change: -0.210D-02 -0.508D-02
Maxdispl :   0.1047   ||displ|| :   0.2966   Lambda : -0.222D-02
Largest |displ|/coords:  0.1047 (  32)  0.0852 (  20)  0.0838 (  28)
................................................................................
.............................. CYCLE   10 ......................................
................................................................................
   1    -50.7528593 -0.507529E+02  0.225E-01    8.44       0.0  T
   2    -50.7528785 -0.192106E-04  0.167E-01    8.44       1.0  T
   3    -50.7528897 -0.112339E-04  0.328E-02    8.44       1.0  T
   4    -50.7528923 -0.251684E-05  0.994E-03    8.45       2.0  T
   5    -50.7528924 -0.159402E-06  0.263E-03    8.45       7.5  T
   6    -50.7528924 -0.717419E-08  0.158E-03    8.45      12.4  T
speedup  1.13
cpu  time for SCC    0.01 s
wall time for SCC    0.01 s
speedup  1.04
cpu  time for grad    0.01 s
wall time for grad    0.01 s
 E :    -50.45823209  G :  0.020718    pred/act E change: -0.503D-02 -0.143D-02
Maxdispl :   0.1286   ||displ|| :   0.3457   Lambda : -0.204D-02
Largest |displ|/coords:  0.1286 (  28)  0.1248 (  23)  0.1043 (  32)
................................................................................
.............................. CYCLE   11 ......................................
................................................................................
   1    -50.7546274 -0.507546E+02  0.227E-01    8.47       0.0  T
   2    -50.7546501 -0.226510E-04  0.168E-01    8.48       1.0  T
   3    -50.7546633 -0.132255E-04  0.353E-02    8.50       1.0  T
   4    -50.7546663 -0.302526E-05  0.117E-02    8.50       1.7  T
   5    -50.7546665 -0.174493E-06  0.267E-03    8.50       7.4  T
   6    -50.7546665 -0.916346E-08  0.166E-03    8.50      11.8  T
speedup  1.09
cpu  time for SCC    0.01 s
wall time for SCC    0.01 s
speedup  1.04
cpu  time for grad    0.01 s
wall time for grad    0.01 s
 E :    -50.45928927  G :  0.014904    pred/act E change: -0.121D-02 -0.106D-02
Maxdispl :   0.0740   ||displ|| :   0.2185   Lambda : -0.781D-03
Largest |displ|/coords:  0.0740 (  23)  0.0654 (   1)  0.0635 (  21)
................................................................................
.............................. CYCLE   12 ......................................
................................................................................
   1    -50.7506601 -0.507507E+02  0.135E-01    8.54       0.0  T
   2    -50.7506663 -0.615340E-05  0.101E-01    8.54       1.0  T
   3    -50.7506705 -0.420873E-05  0.155E-02    8.54       1.3  T
   4    -50.7506713 -0.788757E-06  0.646E-03    8.53       3.0  T
   5    -50.7506713 -0.486153E-07  0.134E-03    8.53      14.6  T
   6    -50.7506713 -0.225015E-08  0.853E-04    8.53      23.0  T
speedup  0.93
cpu  time for SCC    0.00 s
wall time for SCC    0.01 s
speedup  0.96
cpu  time for grad    0.01 s
wall time for grad    0.01 s
 E :    -50.45959035  G :  0.014172    pred/act E change: -0.114D-02 -0.301D-03
Maxdispl :   0.0906   ||displ|| :   0.1608   Lambda : -0.493D-03
Largest |displ|/coords:  0.0906 (   3)  0.0757 (   7)  0.0530 (   1)
................................................................................
.............................. CYCLE   13 ......................................
................................................................................
   1    -50.7547021 -0.507547E+02  0.109E-01    8.64       0.0  T
   2    -50.7547064 -0.427110E-05  0.816E-02    8.62       1.0  T
   3    -50.7547093 -0.288558E-05  0.132E-02    8.60       1.5  T
   4    -50.7547098 -0.548238E-06  0.407E-03    8.61       4.8  T
   5    -50.7547099 -0.270774E-07  0.130E-03    8.61      15.1  T
   6    -50.7547099 -0.150136E-08  0.780E-04    8.61      25.2  T
speedup  0.93
cpu  time for SCC    0.00 s
wall time for SCC    0.01 s
speedup  0.96
cpu  time for grad    0.01 s
wall time for grad    0.01 s
 E :    -50.45982484  G :  0.009917    pred/act E change: -0.409D-03 -0.234D-03
Maxdispl :   0.0679   ||displ|| :   0.1557   Lambda : -0.330D-03
Largest |displ|/coords:  0.0679 (   1)  0.0563 (   3)  0.0559 (   5)
................................................................................
.............................. CYCLE   14 ......................................
................................................................................
   1    -50.7564033 -0.507564E+02  0.896E-02    8.66       0.0  T
   2    -50.7564080 -0.466275E-05  0.662E-02    8.66       1.0  T
   3    -50.7564106 -0.262926E-05  0.141E-02    8.65       1.4  T
   4    -50.7564112 -0.559016E-06  0.414E-03    8.65       4.7  T
   5    -50.7564112 -0.328945E-07  0.124E-03    8.65      15.8  T
   6    -50.7564112 -0.147277E-08  0.707E-04    8.66      27.7  T
speedup  0.93
cpu  time for SCC    0.01 s
wall time for SCC    0.01 s
speedup  0.97
cpu  time for grad    0.01 s
wall time for grad    0.01 s
 E :    -50.46000660  G :  0.009130    pred/act E change: -0.253D-03 -0.182D-03
Maxdispl :   0.1036   ||displ|| :   0.2426   Lambda : -0.368D-03
Largest |displ|/coords:  0.1036 (   1)  0.0850 (   3)  0.0847 (   5)
................................................................................
.............................. CYCLE   15 ......................................
................................................................................
   1    -50.7556853 -0.507557E+02  0.166E-01    8.67       0.0  T
   2    -50.7556917 -0.643325E-05  0.126E-01    8.68       1.0  T
   3    -50.7556964 -0.461793E-05  0.160E-02    8.70       1.2  T
   4    -50.7556973 -0.913665E-06  0.505E-03    8.70       3.9  T
   5    -50.7556973 -0.313981E-07  0.139E-03    8.69      14.1  T
   6    -50.7556973 -0.159176E-08  0.808E-04    8.69      24.3  T
speedup  0.93
cpu  time for SCC    0.00 s
wall time for SCC    0.01 s
speedup  0.96
cpu  time for grad    0.01 s
wall time for grad    0.01 s
 E :    -50.46013078  G :  0.014491    pred/act E change: -0.169D-03 -0.124D-03
Maxdispl :   0.1280   ||displ|| :   0.2099   Lambda : -0.359D-03
Largest |displ|/coords:  0.1280 (   3)  0.0919 (   1)  0.0659 (   5)
................................................................................
.............................. CYCLE   16 ......................................
................................................................................
   1    -50.7565272 -0.507565E+02  0.897E-02    8.74       0.0  T
   2    -50.7565307 -0.348403E-05  0.664E-02    8.73       1.0  T
   3    -50.7565328 -0.207107E-05  0.127E-02    8.70       1.5  T
   4    -50.7565332 -0.431974E-06  0.322E-03    8.71       6.1  T
   5    -50.7565332 -0.284299E-07  0.111E-03    8.71      17.6  T
   6    -50.7565332 -0.769390E-09  0.629E-04    8.71      31.2  T
speedup  0.93
cpu  time for SCC    0.00 s
wall time for SCC    0.01 s
speedup  1.04
cpu  time for grad    0.01 s
wall time for grad    0.01 s
 E :    -50.46033003  G :  0.007075    pred/act E change: -0.195D-03 -0.199D-03
Maxdispl :   0.1557   ||displ|| :   0.2662   Lambda : -0.298D-03
Largest |displ|/coords:  0.1557 (   3)  0.1042 (   7)  0.0739 (   1)
................................................................................
.............................. CYCLE   17 ......................................
................................................................................
   1    -50.7560453 -0.507560E+02  0.145E-01    8.75       0.0  T
   2    -50.7560488 -0.355917E-05  0.108E-01    8.74       1.0  T
   3    -50.7560521 -0.328233E-05  0.148E-02    8.74       1.3  T
   4    -50.7560525 -0.392528E-06  0.426E-03    8.75       4.6  T
   5    -50.7560525 -0.233383E-07  0.140E-03    8.75      14.1  T
   6    -50.7560525 -0.165524E-08  0.763E-04    8.75      25.7  T
speedup  0.94
cpu  time for SCC    0.01 s
wall time for SCC    0.01 s
speedup  0.97
cpu  time for grad    0.01 s
wall time for grad    0.01 s
 E :    -50.46047018  G :  0.009383    pred/act E change: -0.188D-03 -0.140D-03
Maxdispl :   0.1619   ||displ|| :   0.2659   Lambda : -0.293D-03
Largest |displ|/coords:  0.1619 (   3)  0.0925 (   1)  0.0760 (  28)
................................................................................
.............................. CYCLE   18 ......................................
................................................................................
   1    -50.7554897 -0.507555E+02  0.125E-01    8.76       0.0  T
   2    -50.7554936 -0.395219E-05  0.930E-02    8.76       1.0  T
   3    -50.7554959 -0.224385E-05  0.140E-02    8.77       1.4  T
   4    -50.7554965 -0.603201E-06  0.360E-03    8.77       5.4  T
   5    -50.7554965 -0.177001E-07  0.121E-03    8.77      16.2  T
   6    -50.7554965 -0.222792E-08  0.586E-04    8.77      33.5  T
speedup  0.93
cpu  time for SCC    0.00 s
wall time for SCC    0.01 s
speedup  1.03
cpu  time for grad    0.01 s
wall time for grad    0.01 s
 E :    -50.46066407  G :  0.007898    pred/act E change: -0.160D-03 -0.194D-03
Maxdispl :   0.2755   ||displ|| :   0.4516   Lambda : -0.467D-03
Largest |displ|/coords:  0.2755 (   3)  0.1535 (   1)  0.1375 (   4)
................................................................................
.............................. CYCLE   19 ......................................
................................................................................
   1    -50.7550897 -0.507551E+02  0.220E-01    8.80       0.0  T
   2    -50.7551024 -0.127060E-04  0.164E-01    8.81       1.0  T
   3    -50.7551101 -0.766436E-05  0.239E-02    8.83       1.0  T
   4    -50.7551121 -0.203008E-05  0.755E-03    8.84       2.6  T
   5    -50.7551122 -0.561182E-07  0.232E-03    8.83       8.5  T
   6    -50.7551122 -0.654720E-08  0.124E-03    8.83      15.9  T
speedup  1.09
cpu  time for SCC    0.01 s
wall time for SCC    0.01 s
speedup  1.03
cpu  time for grad    0.01 s
wall time for grad    0.01 s
 E :    -50.46088127  G :  0.011237    pred/act E change: -0.157D-03 -0.217D-03
Maxdispl :   0.2486   ||displ|| :   0.3679   Lambda : -0.426D-03
Largest |displ|/coords:  0.2486 (   3)  0.0953 (   1)  0.0911 (  28)
................................................................................
.............................. CYCLE   20 ......................................
................................................................................
   1    -50.7568828 -0.507569E+02  0.175E-01    8.87       0.0  T
   2    -50.7568914 -0.857956E-05  0.131E-01    8.89       1.0  T
   3    -50.7568982 -0.680629E-05  0.198E-02    8.93       1.0  T
   4    -50.7568992 -0.102789E-05  0.590E-03    8.92       3.3  T
   5    -50.7568993 -0.537308E-07  0.217E-03    8.92       9.1  T
   6    -50.7568993 -0.476543E-08  0.118E-03    8.92      16.6  T
speedup  1.11
cpu  time for SCC    0.01 s
wall time for SCC    0.01 s
speedup  1.04
cpu  time for grad    0.01 s
wall time for grad    0.01 s
 E :    -50.46099902  G :  0.017032    pred/act E change: -0.281D-03 -0.118D-03
Maxdispl :   0.1505   ||displ|| :   0.2154   Lambda : -0.461D-03
Largest |displ|/coords:  0.1505 (   3)  0.0715 (   1)  0.0612 (  23)
................................................................................
.............................. CYCLE   21 ......................................
................................................................................
   1    -50.7575577 -0.507576E+02  0.101E-01    8.98       0.0  T
   2    -50.7575612 -0.352240E-05  0.748E-02    8.98       1.0  T
   3    -50.7575633 -0.213415E-05  0.120E-02    8.98       1.6  T
   4    -50.7575638 -0.502153E-06  0.418E-03    8.98       4.7  T
   5    -50.7575639 -0.342962E-07  0.128E-03    8.98      15.3  T
   6    -50.7575639 -0.167073E-08  0.728E-04    8.98      26.9  T
speedup  1.09
cpu  time for SCC    0.01 s
wall time for SCC    0.01 s
speedup  1.00
cpu  time for grad    0.01 s
wall time for grad    0.01 s
 E :    -50.46128482  G :  0.008753    pred/act E change: -0.242D-03 -0.286D-03
Maxdispl :   0.3564   ||displ|| :   0.5134   Lambda : -0.563D-03
Largest |displ|/coords:  0.3564 (   3)  0.1504 (  23)  0.1394 (   4)
................................................................................
.............................. CYCLE   22 ......................................
................................................................................
   1    -50.7518535 -0.507519E+02  0.270E-01    9.03       0.0  T
   2    -50.7518686 -0.151355E-04  0.202E-01    9.04       1.0  T
   3    -50.7518779 -0.923419E-05  0.241E-02    9.06       1.0  T
   4    -50.7518802 -0.230062E-05  0.798E-03    9.06       2.5  T
   5    -50.7518803 -0.147897E-06  0.281E-03    9.06       7.0  T
   6    -50.7518803 -0.457719E-08  0.160E-03    9.06      12.3  T
speedup  1.11
cpu  time for SCC    0.01 s
wall time for SCC    0.01 s
speedup  1.03
cpu  time for grad    0.01 s
wall time for grad    0.01 s
 E :    -50.46143594  G :  0.023089    pred/act E change: -0.241D-03 -0.151D-03
Maxdispl :   0.1941   ||displ|| :   0.3425   Lambda : -0.106D-02
Largest |displ|/coords:  0.1941 (   3)  0.1113 (  23)  0.1008 (   5)
................................................................................
.............................. CYCLE   23 ......................................
................................................................................
   1    -50.7574640 -0.507575E+02  0.158E-01    9.18       0.0  T
   2    -50.7574719 -0.786709E-05  0.117E-01    9.18       1.0  T
   3    -50.7574767 -0.476936E-05  0.181E-02    9.19       1.1  T
   4    -50.7574777 -0.103357E-05  0.704E-03    9.20       2.8  T
   5    -50.7574778 -0.606851E-07  0.187E-03    9.20      10.5  T
   6    -50.7574778 -0.302018E-08  0.109E-03    9.20      17.9  T
speedup  1.13
cpu  time for SCC    0.01 s
wall time for SCC    0.01 s
speedup  1.04
cpu  time for grad    0.01 s
wall time for grad    0.01 s
 E :    -50.46189926  G :  0.024727    pred/act E change: -0.356D-03 -0.463D-03
Maxdispl :   0.2105   ||displ|| :   0.4365   Lambda : -0.174D-02
Largest |displ|/coords:  0.2105 (   3)  0.1545 (   1)  0.1357 (  21)
................................................................................
.............................. CYCLE   24 ......................................
................................................................................
   1    -50.7602752 -0.507603E+02  0.253E-01    9.22       0.0  T
   2    -50.7603207 -0.454916E-04  0.188E-01    9.26       1.0  T
   3    -50.7603408 -0.200586E-04  0.405E-02    9.26       1.0  T
   4    -50.7603468 -0.603855E-05  0.911E-03    9.26       2.2  T
   5    -50.7603471 -0.286453E-06  0.294E-03    9.27       6.7  T
   6    -50.7603471 -0.648631E-08  0.177E-03    9.27      11.1  T
speedup  0.93
cpu  time for SCC    0.00 s
wall time for SCC    0.01 s
speedup  0.96
cpu  time for grad    0.01 s
wall time for grad    0.01 s
 E :    -50.46295736  G :  0.019894    pred/act E change: -0.594D-03 -0.106D-02
Maxdispl :   0.3614   ||displ|| :   0.6114   Lambda : -0.179D-02
Largest |displ|/coords:  0.3614 (   3)  0.2053 (  23)  0.1804 (  21)
................................................................................
.............................. CYCLE   25 ......................................
................................................................................
   1    -50.7594429 -0.507594E+02  0.290E-01    9.27       0.0  T
   2    -50.7594733 -0.303864E-04  0.216E-01    9.26       1.0  T
   3    -50.7594851 -0.118024E-04  0.307E-02    9.24       1.0  T
   4    -50.7594903 -0.525748E-05  0.797E-03    9.24       2.5  T
   5    -50.7594905 -0.151391E-06  0.285E-03    9.24       6.9  T
   6    -50.7594905 -0.724331E-08  0.153E-03    9.24      12.8  T
speedup  0.89
cpu  time for SCC    0.00 s
wall time for SCC    0.01 s
speedup  1.01
cpu  time for grad    0.01 s
wall time for grad    0.01 s
 E :    -50.46429322  G :  0.022804    pred/act E change: -0.103D-02 -0.134D-02
Maxdispl :   0.1565   ||displ|| :   0.4442   Lambda : -0.233D-02
Largest |displ|/coords:  0.1565 (   6)  0.1344 (  10)  0.1247 (  23)

generating ANC from model Hessian ...
 Shifting diagonal of input Hessian by   4.723768370959788E-003
 Lowest  eigenvalues of input Hessian
   -0.000000   -0.000000    0.000000    0.000000    0.000000    0.000000
    0.005000    0.005379    0.005612    0.005847    0.006537    0.006678
    0.007079    0.007374    0.008488    0.009083    0.009456    0.009753
 Highest eigenvalues
    1.412596    1.430902    1.451009    2.644370    3.554102    3.682608
 
cpu  time for ANC gen    0.02 s
wall time for ANC gen    0.02 s
................................................................................
.............................. CYCLE   26 ......................................
................................................................................
   1    -50.7642333 -0.507642E+02  0.261E-01    9.37       0.0  T
   2    -50.7642595 -0.262303E-04  0.193E-01    9.36       1.0  T
   3    -50.7642721 -0.125813E-04  0.362E-02    9.35       1.0  T
   4    -50.7642755 -0.334893E-05  0.104E-02    9.35       1.9  T
   5    -50.7642757 -0.209983E-06  0.303E-03    9.35       6.5  T
   6    -50.7642757 -0.824918E-08  0.174E-03    9.35      11.3  T
   7    -50.7642757 -0.686443E-08  0.557E-04    9.35      35.2  T
   8    -50.7642757 -0.102131E-08  0.222E-04    9.35      88.3  T
speedup  0.99
cpu  time for SCC    0.01 s
wall time for SCC    0.01 s
speedup  0.99
cpu  time for grad    0.02 s
wall time for grad    0.02 s
 E :    -50.46526028  G :  0.026073    pred/act E change:  0.000D+00 -0.967D-03
Maxdispl :   0.1683   ||displ|| :   0.3522   Lambda : -0.241D-02
Largest |displ|/coords:  0.1683 (   7)  0.1273 (   9)  0.1187 (  14)
................................................................................
.............................. CYCLE   27 ......................................
................................................................................
   1    -50.7632543 -0.507633E+02  0.191E-01    9.32       0.0  T
   2    -50.7632640 -0.974711E-05  0.144E-01    9.32       1.0  T
   3    -50.7632720 -0.799426E-05  0.160E-02    9.34       1.2  T
   4    -50.7632733 -0.132339E-05  0.470E-03    9.33       4.2  T
   5    -50.7632734 -0.293487E-07  0.217E-03    9.33       9.0  T
speedup  0.85
cpu  time for SCC    0.00 s
wall time for SCC    0.00 s
speedup  0.94
cpu  time for grad    0.01 s
wall time for grad    0.01 s
 E :    -50.46687958  G :  0.010016    pred/act E change:  0.000D+00 -0.162D-02
Maxdispl :   0.2794   ||displ|| :   0.4299   Lambda : -0.128D-02
Largest |displ|/coords:  0.2794 (   3)  0.1474 (   2)  0.1336 (   1)
................................................................................
.............................. CYCLE   28 ......................................
................................................................................
   1    -50.7609535 -0.507610E+02  0.207E-01    9.29       0.0  T
   2    -50.7609646 -0.110557E-04  0.156E-01    9.29       1.0  T
   3    -50.7609707 -0.617218E-05  0.174E-02    9.30       1.1  T
   4    -50.7609729 -0.219547E-05  0.498E-03    9.30       3.9  T
   5    -50.7609730 -0.357938E-07  0.221E-03    9.30       8.9  T
   6    -50.7609730 -0.404637E-08  0.915E-04    9.30      21.4  T
speedup  0.94
cpu  time for SCC    0.00 s
wall time for SCC    0.01 s
speedup  0.96
cpu  time for grad    0.01 s
wall time for grad    0.01 s
 E :    -50.46781953  G :  0.009895    pred/act E change: -0.136D-02 -0.940D-03
Maxdispl :   0.3984   ||displ|| :   0.5724   Lambda : -0.124D-02
Largest |displ|/coords:  0.3984 (   3)  0.2307 (   2)  0.2143 (   1)
................................................................................
.............................. CYCLE   29 ......................................
................................................................................
   1    -50.7584302 -0.507584E+02  0.278E-01    9.25       0.0  T
   2    -50.7584510 -0.207718E-04  0.209E-01    9.25       1.0  T
   3    -50.7584607 -0.971755E-05  0.243E-02    9.25       1.0  T
   4    -50.7584653 -0.457979E-05  0.644E-03    9.25       3.0  T
   5    -50.7584653 -0.493602E-07  0.311E-03    9.25       6.3  T
   6    -50.7584653 -0.900733E-08  0.101E-03    9.25      19.4  T
   7    -50.7584653 -0.303564E-08  0.233E-04    9.25      84.1  T
speedup  0.94
cpu  time for SCC    0.01 s
wall time for SCC    0.01 s
speedup  0.96
cpu  time for grad    0.01 s
wall time for grad    0.01 s
 E :    -50.46880535  G :  0.017026    pred/act E change: -0.761D-03 -0.986D-03
Maxdispl :   0.3867   ||displ|| :   0.6087   Lambda : -0.126D-02
Largest |displ|/coords:  0.3867 (   3)  0.2802 (   2)  0.2409 (   1)
................................................................................
.............................. CYCLE   30 ......................................
................................................................................
   1    -50.7585089 -0.507585E+02  0.249E-01    9.22       0.0  T
   2    -50.7585240 -0.151231E-04  0.187E-01    9.22       1.0  T
   3    -50.7585301 -0.607181E-05  0.214E-02    9.22       1.0  T
   4    -50.7585333 -0.324598E-05  0.531E-03    9.22       3.7  T
   5    -50.7585333 -0.430624E-07  0.248E-03    9.22       7.9  T
   6    -50.7585333 -0.421258E-08  0.966E-04    9.22      20.3  T
speedup  0.93
cpu  time for SCC    0.00 s
wall time for SCC    0.01 s
speedup  1.03
cpu  time for grad    0.01 s
wall time for grad    0.01 s
 E :    -50.46972422  G :  0.021903    pred/act E change: -0.824D-03 -0.919D-03
Maxdispl :   0.3101   ||displ|| :   0.6007   Lambda : -0.148D-02
Largest |displ|/coords:  0.3101 (   2)  0.2862 (   3)  0.2456 (   4)
................................................................................
.............................. CYCLE   31 ......................................
................................................................................
   1    -50.7607911 -0.507608E+02  0.223E-01    9.24       0.0  T
   2    -50.7608101 -0.189450E-04  0.168E-01    9.23       1.0  T
   3    -50.7608231 -0.130341E-04  0.241E-02    9.22       1.0  T
   4    -50.7608261 -0.303939E-05  0.675E-03    9.22       2.9  T
   5    -50.7608262 -0.836461E-07  0.317E-03    9.22       6.2  T
   6    -50.7608262 -0.748356E-08  0.128E-03    9.22      15.4  T
speedup  1.11
cpu  time for SCC    0.01 s
wall time for SCC    0.01 s
speedup  1.03
cpu  time for grad    0.01 s
wall time for grad    0.01 s
 E :    -50.47073350  G :  0.019428    pred/act E change: -0.864D-03 -0.101D-02
Maxdispl :   0.3062   ||displ|| :   0.6336   Lambda : -0.184D-02
Largest |displ|/coords:  0.3062 (   3)  0.2871 (   4)  0.2772 (   1)
................................................................................
.............................. CYCLE   32 ......................................
................................................................................
   1    -50.7627154 -0.507627E+02  0.234E-01    9.32       0.0  T
   2    -50.7627274 -0.120515E-04  0.176E-01    9.31       1.0  T
   3    -50.7627356 -0.820484E-05  0.210E-02    9.29       1.0  T
   4    -50.7627375 -0.181900E-05  0.567E-03    9.30       3.5  T
   5    -50.7627375 -0.550124E-07  0.274E-03    9.30       7.1  T
   6    -50.7627375 -0.546363E-08  0.125E-03    9.30      15.7  T
speedup  0.93
cpu  time for SCC    0.01 s
wall time for SCC    0.01 s
speedup  1.03
cpu  time for grad    0.01 s
wall time for grad    0.01 s
 E :    -50.47210711  G :  0.020176    pred/act E change: -0.101D-02 -0.137D-02
Maxdispl :   0.3212   ||displ|| :   0.5692   Lambda : -0.179D-02
Largest |displ|/coords:  0.3212 (   4)  0.2615 (   1)  0.1884 (   3)
................................................................................
.............................. CYCLE   33 ......................................
................................................................................
   1    -50.7704231 -0.507704E+02  0.199E-01    9.44       0.0  T
   2    -50.7704410 -0.179326E-04  0.149E-01    9.43       1.0  T
   3    -50.7704533 -0.122841E-04  0.248E-02    9.41       1.0  T
   4    -50.7704556 -0.232081E-05  0.636E-03    9.42       3.1  T
   5    -50.7704557 -0.674796E-07  0.253E-03    9.42       7.7  T
   6    -50.7704557 -0.547532E-08  0.126E-03    9.42      15.5  T
speedup  1.07
cpu  time for SCC    0.01 s
wall time for SCC    0.01 s
speedup  1.02
cpu  time for grad    0.01 s
wall time for grad    0.01 s
 E :    -50.47252080  G :  0.032760    pred/act E change: -0.129D-02 -0.414D-03
Maxdispl :   0.2874   ||displ|| :   0.5175   Lambda : -0.268D-02
Largest |displ|/coords:  0.2874 (   3)  0.2331 (   1)  0.1817 (   4)
................................................................................
.............................. CYCLE   34 ......................................
................................................................................
   1    -50.7601329 -0.507601E+02  0.277E-01    9.44       0.0  T
   2    -50.7601651 -0.322177E-04  0.210E-01    9.44       1.0  T
   3    -50.7601954 -0.302682E-04  0.291E-02    9.45       1.0  T
   4    -50.7601994 -0.404338E-05  0.117E-02    9.45       1.7  T
   5    -50.7601996 -0.173289E-06  0.399E-03    9.44       4.9  T
   6    -50.7601996 -0.219679E-07  0.198E-03    9.44       9.9  T
speedup  1.11
cpu  time for SCC    0.01 s
wall time for SCC    0.01 s
speedup  1.03
cpu  time for grad    0.01 s
wall time for grad    0.01 s
 E :    -50.47307781  G :  0.029358    pred/act E change: -0.119D-02 -0.557D-03
Maxdispl :   0.1022   ||displ|| :   0.2027   Lambda : -0.178D-02
Largest |displ|/coords:  0.1022 (   4)  0.0745 (   3)  0.0704 (  13)
................................................................................
.............................. CYCLE   35 ......................................
................................................................................
   1    -50.7651894 -0.507652E+02  0.168E-01    9.42       0.0  T
   2    -50.7652056 -0.162086E-04  0.126E-01    9.42       1.0  T
   3    -50.7652137 -0.816510E-05  0.224E-02    9.41       1.0  T
   4    -50.7652162 -0.247220E-05  0.633E-03    9.41       3.1  T
   5    -50.7652163 -0.899142E-07  0.223E-03    9.41       8.8  T
   6    -50.7652163 -0.422197E-08  0.115E-03    9.41      17.1  T
speedup  0.93
cpu  time for SCC    0.00 s
wall time for SCC    0.01 s
speedup  0.96
cpu  time for grad    0.01 s
wall time for grad    0.01 s
 E :    -50.47371738  G :  0.015807    pred/act E change: -0.170D-02 -0.640D-03
Maxdispl :   0.1522   ||displ|| :   0.3682   Lambda : -0.120D-02
Largest |displ|/coords:  0.1522 (   4)  0.1307 (   3)  0.1132 (   6)
................................................................................
.............................. CYCLE   36 ......................................
................................................................................
   1    -50.7581884 -0.507582E+02  0.269E-01    9.35       0.0  T
   2    -50.7582223 -0.339009E-04  0.203E-01    9.34       1.0  T
   3    -50.7582457 -0.233038E-04  0.331E-02    9.34       1.0  T
   4    -50.7582507 -0.509069E-05  0.912E-03    9.34       2.2  T
   5    -50.7582509 -0.152548E-06  0.377E-03    9.34       5.2  T
   6    -50.7582509 -0.148206E-07  0.198E-03    9.34       9.9  T
   7    -50.7582509 -0.802934E-08  0.460E-04    9.34      42.6  T
speedup  0.95
cpu  time for SCC    0.01 s
wall time for SCC    0.01 s
speedup  1.03
cpu  time for grad    0.01 s
wall time for grad    0.01 s
 E :    -50.47284776  G :  0.041572    pred/act E change: -0.927D-03  0.870D-03
Maxdispl :   0.0916   ||displ|| :   0.2166   Lambda : -0.313D-02
Largest |displ|/coords:  0.0916 (  10)  0.0883 (   7)  0.0726 (   6)
................................................................................
.............................. CYCLE   37 ......................................
................................................................................
   1    -50.7680327 -0.507680E+02  0.240E-01    9.38       0.0  T
   2    -50.7680638 -0.311119E-04  0.180E-01    9.38       1.0  T
   3    -50.7680854 -0.216435E-04  0.318E-02    9.38       1.0  T
   4    -50.7680897 -0.425010E-05  0.637E-03    9.38       3.1  T
   5    -50.7680897 -0.408772E-07  0.378E-03    9.38       5.2  T
   6    -50.7680897 -0.108097E-07  0.122E-03    9.38      16.1  T
speedup  1.09
cpu  time for SCC    0.01 s
wall time for SCC    0.01 s
speedup  1.02
cpu  time for grad    0.01 s
wall time for grad    0.01 s
 E :    -50.47384839  G :  0.016851    pred/act E change: -0.681D-03 -0.100D-02
Maxdispl :   0.1751   ||displ|| :   0.2792   Lambda : -0.138D-02
Largest |displ|/coords:  0.1751 (   3)  0.0847 (   5)  0.0824 (   4)
................................................................................
.............................. CYCLE   38 ......................................
................................................................................
   1    -50.7611256 -0.507611E+02  0.191E-01    9.41       0.0  T
   2    -50.7611524 -0.267807E-04  0.143E-01    9.41       1.0  T
   3    -50.7611656 -0.132032E-04  0.276E-02    9.42       1.0  T
   4    -50.7611704 -0.478550E-05  0.770E-03    9.42       2.5  T
   5    -50.7611705 -0.934517E-07  0.271E-03    9.42       7.2  T
   6    -50.7611705 -0.742849E-08  0.116E-03    9.42      16.9  T
speedup  0.94
cpu  time for SCC    0.00 s
wall time for SCC    0.01 s
speedup  1.03
cpu  time for grad    0.01 s
wall time for grad    0.01 s
 E :    -50.47364024  G :  0.024582    pred/act E change: -0.164D-02  0.208D-03
Maxdispl :   0.1280   ||displ|| :   0.1819   Lambda : -0.136D-02
Largest |displ|/coords:  0.1280 (   3)  0.0550 (   1)  0.0468 (   5)
................................................................................
.............................. CYCLE   39 ......................................
................................................................................
   1    -50.7651026 -0.507651E+02  0.110E-01    9.39       0.0  T
   2    -50.7651142 -0.115835E-04  0.820E-02    9.38       1.0  T
   3    -50.7651188 -0.464682E-05  0.189E-02    9.38       1.0  T
   4    -50.7651208 -0.197927E-05  0.470E-03    9.38       4.2  T
   5    -50.7651208 -0.294081E-07  0.175E-03    9.38      11.2  T
speedup  1.09
cpu  time for SCC    0.00 s
wall time for SCC    0.00 s
speedup  1.01
cpu  time for grad    0.01 s
wall time for grad    0.01 s
 E :    -50.47427165  G :  0.005717    pred/act E change: -0.745D-03 -0.631D-03
Maxdispl :   0.1509   ||displ|| :   0.2775   Lambda : -0.255D-03
Largest |displ|/coords:  0.1509 (   3)  0.1260 (   1)  0.0953 (   2)
................................................................................
.............................. CYCLE   40 ......................................
................................................................................
   1    -50.7644697 -0.507645E+02  0.108E-01    9.37       0.0  T
   2    -50.7644735 -0.370522E-05  0.811E-02    9.37       1.0  T
   3    -50.7644769 -0.341800E-05  0.102E-02    9.37       1.9  T
   4    -50.7644773 -0.397021E-06  0.336E-03    9.37       5.8  T
   5    -50.7644773 -0.142362E-07  0.138E-03    9.37      14.2  T
   6    -50.7644773 -0.285771E-08  0.594E-04    9.37      33.0  T
speedup  0.93
cpu  time for SCC    0.01 s
wall time for SCC    0.01 s
speedup  1.02
cpu  time for grad    0.01 s
wall time for grad    0.01 s
 E :    -50.47420770  G :  0.016346    pred/act E change: -0.703D-03  0.640D-04
Maxdispl :   0.0809   ||displ|| :   0.1601   Lambda : -0.326D-03
Largest |displ|/coords:  0.0809 (   2)  0.0628 (   3)  0.0625 (   1)
................................................................................
.............................. CYCLE   41 ......................................
................................................................................
   1    -50.7645434 -0.507645E+02  0.698E-02    9.37       0.0  T
   2    -50.7645449 -0.146838E-05  0.525E-02    9.37       1.0  T
   3    -50.7645463 -0.140629E-05  0.659E-03    9.37       3.0  T
   4    -50.7645465 -0.134744E-06  0.192E-03    9.37      10.2  T
   5    -50.7645465 -0.741021E-08  0.774E-04    9.37      25.3  T
speedup  1.09
cpu  time for SCC    0.00 s
wall time for SCC    0.00 s
speedup  1.02
cpu  time for grad    0.01 s
wall time for grad    0.01 s
 E :    -50.47439905  G :  0.005572    pred/act E change: -0.137D-03 -0.191D-03
Maxdispl :   0.0327   ||displ|| :   0.0790   Lambda : -0.854D-04
Largest |displ|/coords:  0.0327 (   6)  0.0305 (   2)  0.0290 (  10)
................................................................................
.............................. CYCLE   42 ......................................
................................................................................
   1    -50.7647358 -0.507647E+02  0.489E-02    9.36       0.0  T
   2    -50.7647363 -0.417006E-06  0.367E-02    9.36       1.0  T
   3    -50.7647366 -0.390683E-06  0.429E-03    9.36       4.6  T
   4    -50.7647367 -0.441618E-07  0.139E-03    9.36      14.1  T
   5    -50.7647367 -0.230393E-08  0.444E-04    9.36      44.2  T
speedup  0.89
cpu  time for SCC    0.00 s
wall time for SCC    0.00 s
speedup  0.94
cpu  time for grad    0.01 s
wall time for grad    0.01 s
 E :    -50.47446103  G :  0.005960    pred/act E change: -0.167D-03 -0.620D-04
Maxdispl :   0.0995   ||displ|| :   0.2239   Lambda : -0.210D-03
Largest |displ|/coords:  0.0995 (   6)  0.0975 (   2)  0.0817 (   8)
................................................................................
.............................. CYCLE   43 ......................................
................................................................................
   1    -50.7639048 -0.507639E+02  0.133E-01    9.33       0.0  T
   2    -50.7639077 -0.292027E-05  0.996E-02    9.33       1.0  T
   3    -50.7639101 -0.230752E-05  0.117E-02    9.32       1.7  T
   4    -50.7639104 -0.365784E-06  0.411E-03    9.32       4.8  T
   5    -50.7639104 -0.175527E-07  0.106E-03    9.32      18.5  T
   6    -50.7639104 -0.182117E-08  0.637E-04    9.32      30.8  T
speedup  0.93
cpu  time for SCC    0.00 s
wall time for SCC    0.01 s
speedup  1.04
cpu  time for grad    0.01 s
wall time for grad    0.01 s
 E :    -50.47455620  G :  0.006853    pred/act E change: -0.429D-04 -0.952D-04
Maxdispl :   0.0654   ||displ|| :   0.1250   Lambda : -0.138D-03
Largest |displ|/coords:  0.0654 (   2)  0.0435 (   6)  0.0371 (  12)
................................................................................
.............................. CYCLE   44 ......................................
................................................................................
   1    -50.7643854 -0.507644E+02  0.753E-02    9.31       0.0  T
   2    -50.7643870 -0.156314E-05  0.565E-02    9.31       1.0  T
   3    -50.7643884 -0.148027E-05  0.793E-03    9.31       2.5  T
   4    -50.7643886 -0.168979E-06  0.271E-03    9.31       7.2  T
   5    -50.7643886 -0.859983E-08  0.892E-04    9.31      22.0  T
speedup  1.11
cpu  time for SCC    0.00 s
wall time for SCC    0.00 s
speedup  1.02
cpu  time for grad    0.01 s
wall time for grad    0.01 s
 E :    -50.47463229  G :  0.006395    pred/act E change: -0.110D-03 -0.761D-04
Maxdispl :   0.0569   ||displ|| :   0.1118   Lambda : -0.116D-03
Largest |displ|/coords:  0.0569 (   2)  0.0384 (   8)  0.0373 (   4)
................................................................................
.............................. CYCLE   45 ......................................
................................................................................
   1    -50.7658133 -0.507658E+02  0.621E-02    9.33       0.0  T
   2    -50.7658141 -0.802653E-06  0.466E-02    9.33       1.0  T
   3    -50.7658148 -0.717787E-06  0.582E-03    9.33       3.4  T
   4    -50.7658149 -0.960896E-07  0.213E-03    9.33       9.2  T
   5    -50.7658149 -0.554000E-08  0.598E-04    9.33      32.8  T
speedup  1.09
cpu  time for SCC    0.00 s
wall time for SCC    0.00 s
speedup  1.01
cpu  time for grad    0.01 s
wall time for grad    0.01 s
 E :    -50.47469180  G :  0.007124    pred/act E change: -0.698D-04 -0.595D-04
Maxdispl :   0.0867   ||displ|| :   0.1209   Lambda : -0.956D-04
Largest |displ|/coords:  0.0867 (   2)  0.0278 (  14)  0.0276 (  17)
................................................................................
.............................. CYCLE   46 ......................................
................................................................................
   1    -50.7660237 -0.507660E+02  0.548E-02    9.33       0.0  T
   2    -50.7660242 -0.460311E-06  0.411E-02    9.33       1.0  T
   3    -50.7660246 -0.417442E-06  0.464E-03    9.33       4.2  T
   4    -50.7660247 -0.454937E-07  0.156E-03    9.33      12.6  T
   5    -50.7660247 -0.298376E-08  0.428E-04    9.33      45.8  T
speedup  1.04
cpu  time for SCC    0.00 s
wall time for SCC    0.00 s
speedup  1.00
cpu  time for grad    0.01 s
wall time for grad    0.01 s
 E :    -50.47475630  G :  0.006433    pred/act E change: -0.588D-04 -0.645D-04
Maxdispl :   0.1958   ||displ|| :   0.2379   Lambda : -0.111D-03
Largest |displ|/coords:  0.1958 (   2)  0.0491 (   3)  0.0460 (  14)
................................................................................
.............................. CYCLE   47 ......................................
................................................................................
   1    -50.7646806 -0.507647E+02  0.955E-02    9.33       0.0  T
   2    -50.7646824 -0.180715E-05  0.719E-02    9.33       1.0  T
   3    -50.7646840 -0.161548E-05  0.813E-03    9.33       2.4  T
   4    -50.7646842 -0.232012E-06  0.280E-03    9.33       7.0  T
   5    -50.7646842 -0.104564E-07  0.938E-04    9.33      20.9  T
speedup  1.11
cpu  time for SCC    0.00 s
wall time for SCC    0.00 s
speedup  1.02
cpu  time for grad    0.01 s
wall time for grad    0.01 s
 E :    -50.47482387  G :  0.005644    pred/act E change: -0.485D-04 -0.676D-04
Maxdispl :   0.1265   ||displ|| :   0.1688   Lambda : -0.774D-04
Largest |displ|/coords:  0.1265 (   2)  0.0663 (   6)  0.0463 (   3)
................................................................................
.............................. CYCLE   48 ......................................
................................................................................
   1    -50.7650110 -0.507650E+02  0.583E-02    9.35       0.0  T
   2    -50.7650117 -0.725972E-06  0.438E-02    9.35       1.0  T
   3    -50.7650122 -0.527312E-06  0.537E-03    9.35       3.7  T
   4    -50.7650123 -0.103068E-06  0.211E-03    9.35       9.3  T
   5    -50.7650123 -0.705733E-08  0.574E-04    9.35      34.2  T
speedup  1.11
cpu  time for SCC    0.00 s
wall time for SCC    0.00 s
speedup  1.02
cpu  time for grad    0.01 s
wall time for grad    0.01 s
 E :    -50.47487402  G :  0.003964    pred/act E change: -0.585D-04 -0.502D-04
Maxdispl :   0.1182   ||displ|| :   0.1641   Lambda : -0.561D-04
Largest |displ|/coords:  0.1182 (   2)  0.0652 (   3)  0.0484 (   6)
................................................................................
.............................. CYCLE   49 ......................................
................................................................................
   1    -50.7648556 -0.507649E+02  0.652E-02    9.36       0.0  T
   2    -50.7648565 -0.909391E-06  0.492E-02    9.36       1.0  T
   3    -50.7648572 -0.729321E-06  0.549E-03    9.35       3.6  T
   4    -50.7648574 -0.132887E-06  0.224E-03    9.35       8.8  T
   5    -50.7648574 -0.729142E-08  0.690E-04    9.35      28.4  T
   6    -50.7648574 -0.620425E-09  0.402E-04    9.35      48.8  T
speedup  1.11
cpu  time for SCC    0.01 s
wall time for SCC    0.01 s
speedup  0.99
cpu  time for grad    0.01 s
wall time for grad    0.01 s
 E :    -50.47491185  G :  0.003754    pred/act E change: -0.398D-04 -0.378D-04
Maxdispl :   0.0903   ||displ|| :   0.1439   Lambda : -0.530D-04
Largest |displ|/coords:  0.0903 (   2)  0.0577 (   3)  0.0471 (   6)
................................................................................
.............................. CYCLE   50 ......................................
................................................................................
   1    -50.7650048 -0.507650E+02  0.615E-02    9.36       0.0  T
   2    -50.7650055 -0.662889E-06  0.462E-02    9.36       1.0  T
   3    -50.7650062 -0.710673E-06  0.575E-03    9.35       3.4  T
   4    -50.7650063 -0.568854E-07  0.237E-03    9.35       8.3  T
   5    -50.7650063 -0.618117E-08  0.617E-04    9.35      31.8  T
   6    -50.7650063 -0.403269E-09  0.413E-04    9.35      47.5  T
speedup  1.11
cpu  time for SCC    0.01 s
wall time for SCC    0.01 s
speedup  1.00
cpu  time for grad    0.01 s
wall time for grad    0.01 s
 E :    -50.47494692  G :  0.002622    pred/act E change: -0.288D-04 -0.351D-04
Maxdispl :   0.0732   ||displ|| :   0.1437   Lambda : -0.429D-04
Largest |displ|/coords:  0.0732 (   5)  0.0729 (   3)  0.0692 (   2)
................................................................................
.............................. CYCLE   51 ......................................
................................................................................
   1    -50.7651183 -0.507651E+02  0.669E-02    9.35       0.0  T
   2    -50.7651191 -0.723976E-06  0.503E-02    9.35       1.0  T
   3    -50.7651199 -0.824686E-06  0.586E-03    9.35       3.3  T
   4    -50.7651199 -0.572041E-07  0.194E-03    9.35      10.1  T
   5    -50.7651199 -0.471890E-08  0.655E-04    9.35      29.9  T
   6    -50.7651199 -0.472809E-09  0.394E-04    9.35      49.8  T
speedup  1.09
cpu  time for SCC    0.01 s
wall time for SCC    0.01 s
speedup  1.05
cpu  time for grad    0.01 s
wall time for grad    0.01 s
 E :    -50.47497765  G :  0.002673    pred/act E change: -0.270D-04 -0.307D-04
Maxdispl :   0.0874   ||displ|| :   0.1590   Lambda : -0.456D-04
Largest |displ|/coords:  0.0874 (   5)  0.0776 (   3)  0.0605 (   2)
................................................................................
.............................. CYCLE   52 ......................................
................................................................................
   1    -50.7646939 -0.507647E+02  0.819E-02    9.34       0.0  T
   2    -50.7646949 -0.103318E-05  0.616E-02    9.34       1.0  T
   3    -50.7646961 -0.116448E-05  0.633E-03    9.33       3.1  T
   4    -50.7646962 -0.894918E-07  0.222E-03    9.33       8.8  T
   5    -50.7646962 -0.641840E-08  0.788E-04    9.33      24.9  T
   6    -50.7646962 -0.790898E-09  0.439E-04    9.33      44.7  T
speedup  0.93
cpu  time for SCC    0.00 s
wall time for SCC    0.01 s
speedup  0.98
cpu  time for grad    0.01 s
wall time for grad    0.01 s
 E :    -50.47500613  G :  0.002824    pred/act E change: -0.219D-04 -0.285D-04
Maxdispl :   0.0756   ||displ|| :   0.1130   Lambda : -0.314D-04
Largest |displ|/coords:  0.0756 (   5)  0.0487 (   3)  0.0296 (   4)

generating ANC from model Hessian ...
 Shifting diagonal of input Hessian by   4.768661879886464E-003
 Lowest  eigenvalues of input Hessian
   -0.000000   -0.000000   -0.000000    0.000000    0.000000    0.000000
    0.005000    0.005368    0.005695    0.006859    0.007025    0.008410
    0.008809    0.010255    0.010690    0.011325    0.012104    0.012192
 Highest eigenvalues
    1.405028    1.416936    1.461417    2.649811    3.502006    3.602711
 
cpu  time for ANC gen    0.02 s
wall time for ANC gen    0.02 s
................................................................................
.............................. CYCLE   53 ......................................
................................................................................
   1    -50.7651897 -0.507652E+02  0.636E-02    9.34       0.0  T
   2    -50.7651903 -0.548858E-06  0.477E-02    9.34       1.0  T
   3    -50.7651909 -0.568255E-06  0.510E-03    9.34       3.8  T
   4    -50.7651909 -0.526589E-07  0.166E-03    9.34      11.8  T
   5    -50.7651909 -0.360574E-08  0.577E-04    9.34      34.0  T
   6    -50.7651909 -0.330409E-09  0.316E-04    9.34      62.1  T
speedup  0.94
cpu  time for SCC    0.00 s
wall time for SCC    0.01 s
speedup  1.00
cpu  time for grad    0.01 s
wall time for grad    0.01 s
 E :    -50.47502344  G :  0.002384    pred/act E change:  0.000D+00 -0.173D-04
Maxdispl :   0.0157   ||displ|| :   0.0321   Lambda : -0.219D-04
Largest |displ|/coords:  0.0157 (   1)  0.0106 (  10)  0.0092 (  27)
................................................................................
.............................. CYCLE   54 ......................................
................................................................................
   1    -50.7651772 -0.507652E+02  0.262E-02    9.34       0.0  T
   2    -50.7651773 -0.113678E-06  0.198E-02    9.34       1.0  T
   3    -50.7651774 -0.114198E-06  0.196E-03    9.34      10.0  T
   4    -50.7651774 -0.120205E-07  0.838E-04    9.34      23.4  T
   5    -50.7651774 -0.788631E-09  0.247E-04    9.34      79.3  T
speedup  0.87
cpu  time for SCC    0.00 s
wall time for SCC    0.00 s
speedup  0.98
cpu  time for grad    0.01 s
wall time for grad    0.01 s
 E :    -50.47504005  G :  0.001455    pred/act E change:  0.000D+00 -0.166D-04
Maxdispl :   0.0318   ||displ|| :   0.0663   Lambda : -0.273D-04
Largest |displ|/coords:  0.0318 (   1)  0.0246 (  15)  0.0219 (   6)
................................................................................
.............................. CYCLE   55 ......................................
................................................................................
   1    -50.7650590 -0.507651E+02  0.550E-02    9.34       0.0  T
   2    -50.7650595 -0.492798E-06  0.415E-02    9.34       1.0  T
   3    -50.7650600 -0.491882E-06  0.438E-03    9.34       4.5  T
   4    -50.7650601 -0.510963E-07  0.187E-03    9.34      10.5  T
   5    -50.7650601 -0.358492E-08  0.504E-04    9.34      38.9  T
   6    -50.7650601 -0.327873E-09  0.308E-04    9.34      63.8  T
speedup  0.93
cpu  time for SCC    0.00 s
wall time for SCC    0.01 s
speedup  0.99
cpu  time for grad    0.01 s
wall time for grad    0.01 s
 E :    -50.47505569  G :  0.001426    pred/act E change: -0.110D-04 -0.156D-04
Maxdispl :   0.0216   ||displ|| :   0.0422   Lambda : -0.940D-05
Largest |displ|/coords:  0.0216 (   6)  0.0188 (   1)  0.0142 (  15)
................................................................................
.............................. CYCLE   56 ......................................
................................................................................
   1    -50.7650891 -0.507651E+02  0.318E-02    9.34       0.0  T
   2    -50.7650892 -0.886836E-07  0.238E-02    9.34       1.0  T
   3    -50.7650893 -0.971209E-07  0.200E-03    9.34       9.8  T
   4    -50.7650893 -0.680935E-08  0.562E-04    9.34      34.9  T
   5    -50.7650893 -0.450910E-09  0.266E-04    9.34      73.8  T
speedup  1.11
cpu  time for SCC    0.00 s
wall time for SCC    0.00 s
speedup  0.98
cpu  time for grad    0.01 s
wall time for grad    0.01 s
 E :    -50.47506173  G :  0.001307    pred/act E change: -0.137D-04 -0.604D-05
Maxdispl :   0.0308   ||displ|| :   0.0593   Lambda : -0.105D-04
Largest |displ|/coords:  0.0308 (   1)  0.0292 (   6)  0.0213 (  15)
................................................................................
.............................. CYCLE   57 ......................................
................................................................................
   1    -50.7651791 -0.507652E+02  0.440E-02    9.34       0.0  T
   2    -50.7651793 -0.244452E-06  0.331E-02    9.34       1.0  T
   3    -50.7651796 -0.287298E-06  0.316E-03    9.34       6.2  T
   4    -50.7651796 -0.168170E-07  0.974E-04    9.34      20.1  T
   5    -50.7651796 -0.109913E-08  0.406E-04    9.34      48.3  T
speedup  1.09
cpu  time for SCC    0.00 s
wall time for SCC    0.00 s
speedup  0.98
cpu  time for grad    0.01 s
wall time for grad    0.01 s
 E :    -50.47506863  G :  0.001125    pred/act E change: -0.471D-05 -0.690D-05
Maxdispl :   0.0244   ||displ|| :   0.0468   Lambda : -0.699D-05
Largest |displ|/coords:  0.0244 (   1)  0.0236 (   6)  0.0154 (   3)
................................................................................
.............................. CYCLE   58 ......................................
................................................................................
   1    -50.7653371 -0.507653E+02  0.321E-02    9.34       0.0  T
   2    -50.7653373 -0.125442E-06  0.241E-02    9.34       1.0  T
   3    -50.7653374 -0.132589E-06  0.221E-03    9.34       8.9  T
   4    -50.7653374 -0.110883E-07  0.541E-04    9.34      36.3  T
   5    -50.7653374 -0.425253E-09  0.306E-04    9.34      64.1  T
speedup  0.87
cpu  time for SCC    0.00 s
wall time for SCC    0.00 s
speedup  0.98
cpu  time for grad    0.01 s
wall time for grad    0.01 s
 E :    -50.47507288  G :  0.000838    pred/act E change: -0.527D-05 -0.425D-05
Maxdispl :   0.0167   ||displ|| :   0.0319   Lambda : -0.337D-05
Largest |displ|/coords:  0.0167 (   1)  0.0151 (   6)  0.0131 (   3)
................................................................................
.............................. CYCLE   59 ......................................
................................................................................
   1    -50.7654074 -0.507654E+02  0.226E-02    9.34       0.0  T
   2    -50.7654074 -0.637861E-07  0.170E-02    9.34       1.2  T
   3    -50.7654075 -0.729650E-07  0.159E-03    9.34      12.3  T
   4    -50.7654075 -0.441013E-08  0.496E-04    9.34      39.5  T
   5    -50.7654075 -0.307047E-09  0.189E-04    9.34     103.7  T
speedup  0.89
cpu  time for SCC    0.00 s
wall time for SCC    0.00 s
speedup  0.98
cpu  time for grad    0.01 s
wall time for grad    0.01 s
 E :    -50.47507521  G :  0.000655    pred/act E change: -0.350D-05 -0.233D-05
Maxdispl :   0.0255   ||displ|| :   0.0434   Lambda : -0.335D-05
Largest |displ|/coords:  0.0255 (   1)  0.0211 (   3)  0.0167 (   6)
................................................................................
.............................. CYCLE   60 ......................................
................................................................................
   1    -50.7653973 -0.507654E+02  0.305E-02    9.34       0.0  T
   2    -50.7653974 -0.893719E-07  0.230E-02    9.34       1.0  T
   3    -50.7653975 -0.110625E-06  0.185E-03    9.34      10.6  T
   4    -50.7653975 -0.487029E-08  0.619E-04    9.34      31.7  T
   5    -50.7653975 -0.511065E-09  0.239E-04    9.34      81.9  T
speedup  0.87
cpu  time for SCC    0.00 s
wall time for SCC    0.00 s
speedup  0.98
cpu  time for grad    0.01 s
wall time for grad    0.01 s
 E :    -50.47507750  G :  0.000533    pred/act E change: -0.169D-05 -0.229D-05
Maxdispl :   0.0208   ||displ|| :   0.0364   Lambda : -0.277D-05
Largest |displ|/coords:  0.0208 (   3)  0.0181 (   1)  0.0105 (   2)
................................................................................
.............................. CYCLE   61 ......................................
................................................................................
   1    -50.7654441 -0.507654E+02  0.230E-02    9.34       0.0  T
   2    -50.7654441 -0.645053E-07  0.173E-02    9.34       1.1  T
   3    -50.7654442 -0.690198E-07  0.161E-03    9.34      12.2  T
   4    -50.7654442 -0.584146E-08  0.692E-04    9.34      28.3  T
   5    -50.7654442 -0.442192E-09  0.185E-04    9.34     106.2  T
speedup  0.89
cpu  time for SCC    0.00 s
wall time for SCC    0.00 s
speedup  0.98
cpu  time for grad    0.01 s
wall time for grad    0.01 s
 E :    -50.47507952  G :  0.000633    pred/act E change: -0.168D-05 -0.202D-05
Maxdispl :   0.0309   ||displ|| :   0.0524   Lambda : -0.318D-05
Largest |displ|/coords:  0.0309 (   3)  0.0263 (   1)  0.0161 (   2)
................................................................................
.............................. CYCLE   62 ......................................
................................................................................
   1    -50.7654320 -0.507654E+02  0.321E-02    9.34       0.0  T
   2    -50.7654322 -0.116214E-06  0.242E-02    9.34       1.0  T
   3    -50.7654323 -0.124763E-06  0.201E-03    9.34       9.8  T
   4    -50.7654323 -0.110043E-07  0.960E-04    9.34      20.4  T
   5    -50.7654323 -0.871431E-09  0.253E-04    9.34      77.4  T
speedup  0.89
cpu  time for SCC    0.00 s
wall time for SCC    0.00 s
speedup  0.98
cpu  time for grad    0.01 s
wall time for grad    0.01 s
 E :    -50.47508190  G :  0.000777    pred/act E change: -0.139D-05 -0.238D-05
Maxdispl :   0.0365   ||displ|| :   0.0620   Lambda : -0.410D-05
Largest |displ|/coords:  0.0365 (   3)  0.0280 (   1)  0.0262 (   2)
................................................................................
.............................. CYCLE   63 ......................................
................................................................................
   1    -50.7655210 -0.507655E+02  0.337E-02    9.34       0.0  T
   2    -50.7655211 -0.163620E-06  0.253E-02    9.34       1.0  T
   3    -50.7655213 -0.141438E-06  0.257E-03    9.34       7.6  T
   4    -50.7655213 -0.221954E-07  0.112E-03    9.34      17.5  T
   5    -50.7655213 -0.130669E-08  0.271E-04    9.34      72.4  T
   6    -50.7655213 -0.789484E-10  0.178E-04    9.34     110.2  T
speedup  0.94
cpu  time for SCC    0.00 s
wall time for SCC    0.01 s
speedup  1.00
cpu  time for grad    0.01 s
wall time for grad    0.01 s
 E :    -50.47508491  G :  0.000957    pred/act E change: -0.160D-05 -0.301D-05
Maxdispl :   0.0458   ||displ|| :   0.0828   Lambda : -0.483D-05
Largest |displ|/coords:  0.0458 (   3)  0.0408 (   1)  0.0345 (   2)
................................................................................
.............................. CYCLE   64 ......................................
................................................................................
   1    -50.7654263 -0.507654E+02  0.476E-02    9.35       0.0  T
   2    -50.7654266 -0.297777E-06  0.358E-02    9.34       1.0  T
   3    -50.7654268 -0.270545E-06  0.319E-03    9.34       6.2  T
   4    -50.7654269 -0.390426E-07  0.140E-03    9.34      14.0  T
   5    -50.7654269 -0.207714E-08  0.358E-04    9.34      54.8  T
   6    -50.7654269 -0.132950E-09  0.225E-04    9.34      87.3  T
speedup  1.05
cpu  time for SCC    0.01 s
wall time for SCC    0.01 s
speedup  0.98
cpu  time for grad    0.01 s
wall time for grad    0.01 s
 E :    -50.47508827  G :  0.001093    pred/act E change: -0.206D-05 -0.336D-05
Maxdispl :   0.0455   ||displ|| :   0.0776   Lambda : -0.691D-05
Largest |displ|/coords:  0.0455 (   2)  0.0369 (   3)  0.0265 (   1)
................................................................................
.............................. CYCLE   65 ......................................
................................................................................
   1    -50.7657149 -0.507657E+02  0.428E-02    9.35       0.0  T
   2    -50.7657152 -0.383764E-06  0.321E-02    9.35       1.0  T
   3    -50.7657154 -0.188293E-06  0.459E-03    9.35       4.3  T
   4    -50.7657155 -0.723544E-07  0.133E-03    9.35      14.8  T
   5    -50.7657155 -0.186952E-08  0.315E-04    9.35      62.4  T
   6    -50.7657155 -0.930243E-10  0.199E-04    9.35      98.7  T
speedup  1.11
cpu  time for SCC    0.01 s
wall time for SCC    0.01 s
speedup  1.00
cpu  time for grad    0.01 s
wall time for grad    0.01 s
 E :    -50.47509225  G :  0.001410    pred/act E change: -0.243D-05 -0.398D-05
Maxdispl :   0.0376   ||displ|| :   0.0696   Lambda : -0.633D-05
Largest |displ|/coords:  0.0376 (   2)  0.0341 (   1)  0.0295 (   3)
................................................................................
.............................. CYCLE   66 ......................................
................................................................................
   1    -50.7655797 -0.507656E+02  0.436E-02    9.35       0.0  T
   2    -50.7655800 -0.307225E-06  0.328E-02    9.35       1.0  T
   3    -50.7655802 -0.207701E-06  0.361E-03    9.35       5.4  T
   4    -50.7655802 -0.512778E-07  0.139E-03    9.35      14.1  T
   5    -50.7655802 -0.182020E-08  0.302E-04    9.35      65.0  T
   6    -50.7655802 -0.804761E-10  0.198E-04    9.35      99.1  T
speedup  1.13
cpu  time for SCC    0.01 s
wall time for SCC    0.01 s
speedup  1.00
cpu  time for grad    0.01 s
wall time for grad    0.01 s
 E :    -50.47509704  G :  0.001409    pred/act E change: -0.348D-05 -0.478D-05
[...]
................................................................................
   1    -50.7658842 -0.507659E+02  0.160E-02    9.37       0.0  T
   2    -50.7658843 -0.601438E-07  0.120E-02    9.37       1.6  T
   3    -50.7658843 -0.217683E-07  0.202E-03    9.37       9.7  T
   4    -50.7658843 -0.109751E-07  0.723E-04    9.37      27.1  T
   5    -50.7658843 -0.256534E-09  0.724E-05    9.37     270.7  T
speedup  0.87
cpu  time for SCC    0.00 s
wall time for SCC    0.00 s
speedup  0.98
cpu  time for grad    0.01 s
wall time for grad    0.01 s
 E :    -50.47522805  G :  0.000515    pred/act E change: -0.335D-06 -0.600D-06
Maxdispl :   0.0104   ||displ|| :   0.0172   Lambda : -0.782D-06
Largest |displ|/coords:  0.0104 (  38)  0.0065 (   2)  0.0046 (   1)
................................................................................
.............................. CYCLE   95 ......................................
................................................................................
   1    -50.7658834 -0.507659E+02  0.158E-02    9.37       0.0  T
   2    -50.7658834 -0.519911E-07  0.118E-02    9.37       1.7  T
   3    -50.7658835 -0.244598E-07  0.197E-03    9.37      10.0  T
   4    -50.7658835 -0.836873E-08  0.781E-04    9.37      25.1  T
   5    -50.7658835 -0.264500E-09  0.723E-05    9.37     271.2  T
speedup  1.06
cpu  time for SCC    0.00 s
wall time for SCC    0.00 s
speedup  1.04
cpu  time for grad    0.01 s
wall time for grad    0.01 s
 E :    -50.47522863  G :  0.000507    pred/act E change: -0.422D-06 -0.581D-06
Maxdispl :   0.0114   ||displ|| :   0.0202   Lambda : -0.965D-06
Largest |displ|/coords:  0.0114 (  38)  0.0093 (   2)  0.0048 (  26)
................................................................................
.............................. CYCLE   96 ......................................
................................................................................
   1    -50.7658492 -0.507658E+02  0.182E-02    9.37       0.0  T
   2    -50.7658493 -0.685029E-07  0.134E-02    9.37       1.5  T
   3    -50.7658493 -0.378350E-07  0.236E-03    9.37       8.3  T
   4    -50.7658493 -0.930598E-08  0.954E-04    9.37      20.6  T
   5    -50.7658493 -0.434063E-09  0.863E-05    9.37     227.1  T
speedup  0.87
cpu  time for SCC    0.00 s
wall time for SCC    0.00 s
speedup  0.98
cpu  time for grad    0.01 s
wall time for grad    0.01 s
 E :    -50.47522932  G :  0.000501    pred/act E change: -0.391D-06 -0.691D-06
Maxdispl :   0.0088   ||displ|| :   0.0191   Lambda : -0.952D-06
Largest |displ|/coords:  0.0088 (   2)  0.0086 (  38)  0.0048 (   6)
................................................................................
.............................. CYCLE   97 ......................................
................................................................................
   1    -50.7658042 -0.507658E+02  0.154E-02    9.37       0.0  T
   2    -50.7658043 -0.478286E-07  0.113E-02    9.37       1.7  T
   3    -50.7658043 -0.328213E-07  0.202E-03    9.37       9.7  T
   4    -50.7658043 -0.481507E-08  0.765E-04    9.37      25.6  T
   5    -50.7658043 -0.398735E-09  0.801E-05    9.37     244.9  T
speedup  0.89
cpu  time for SCC    0.00 s
wall time for SCC    0.00 s
speedup  0.98
cpu  time for grad    0.01 s
wall time for grad    0.01 s
 E :    -50.47523001  G :  0.000477    pred/act E change: -0.483D-06 -0.690D-06
Maxdispl :   0.0076   ||displ|| :   0.0176   Lambda : -0.838D-06
Largest |displ|/coords:  0.0076 (  38)  0.0069 (   2)  0.0054 (   1)
................................................................................
.............................. CYCLE   98 ......................................
................................................................................
   1    -50.7657642 -0.507658E+02  0.139E-02    9.37       0.0  T
   2    -50.7657642 -0.401790E-07  0.102E-02    9.37       1.9  T
   3    -50.7657643 -0.272593E-07  0.187E-03    9.37      10.5  T
   4    -50.7657643 -0.384090E-08  0.688E-04    9.37      28.5  T
   5    -50.7657643 -0.334182E-09  0.729E-05    9.37     268.8  T
speedup  0.87
cpu  time for SCC    0.00 s
wall time for SCC    0.00 s
speedup  0.98
cpu  time for grad    0.01 s
wall time for grad    0.01 s
 E :    -50.47523060  G :  0.000442    pred/act E change: -0.476D-06 -0.585D-06
Maxdispl :   0.0072   ||displ|| :   0.0136   Lambda : -0.522D-06
Largest |displ|/coords:  0.0072 (  38)  0.0040 (   5)  0.0037 (   2)
................................................................................
.............................. CYCLE   99 ......................................
................................................................................
   1    -50.7657562 -0.507658E+02  0.118E-02    9.37       0.0  T
   2    -50.7657562 -0.281721E-07  0.872E-03    9.37       2.2  T
   3    -50.7657562 -0.171076E-07  0.155E-03    9.37      12.7  T
   4    -50.7657562 -0.331404E-08  0.622E-04    9.37      31.6  T
   5    -50.7657562 -0.208239E-09  0.569E-05    9.37     344.7  T
speedup  1.11
cpu  time for SCC    0.00 s
wall time for SCC    0.00 s
speedup  0.98
cpu  time for grad    0.01 s
wall time for grad    0.01 s
 E :    -50.47523097  G :  0.000368    pred/act E change: -0.419D-06 -0.370D-06
Maxdispl :   0.0062   ||displ|| :   0.0106   Lambda : -0.338D-06
Largest |displ|/coords:  0.0062 (  38)  0.0034 (   5)  0.0030 (   6)
................................................................................
.............................. CYCLE  100 ......................................
................................................................................
   1    -50.7657909 -0.507658E+02  0.965E-03    9.37       0.0  T
   2    -50.7657909 -0.212676E-07  0.716E-03    9.37       2.7  T
   3    -50.7657909 -0.113941E-07  0.127E-03    9.37      15.5  T
   4    -50.7657909 -0.303418E-08  0.535E-04    9.37      36.7  T
   5    -50.7657909 -0.137703E-09  0.510E-05    9.37     384.2  T
speedup  1.11
cpu  time for SCC    0.00 s
wall time for SCC    0.00 s
speedup  0.98
cpu  time for grad    0.01 s
wall time for grad    0.01 s
 E :    -50.47523120  G :  0.000213    pred/act E change: -0.261D-06 -0.238D-06
Maxdispl :   0.0062   ||displ|| :   0.0099   Lambda : -0.214D-06
Largest |displ|/coords:  0.0062 (  38)  0.0031 (   5)  0.0027 (   6)
................................................................................
.............................. CYCLE  101 ......................................
................................................................................
   1    -50.7658245 -0.507658E+02  0.922E-03    9.37       0.0  T
   2    -50.7658245 -0.191702E-07  0.688E-03    9.37       2.9  T
   3    -50.7658245 -0.100764E-07  0.115E-03    9.37      17.0  T
   4    -50.7658245 -0.300500E-08  0.486E-04    9.37      40.4  T
   5    -50.7658245 -0.114142E-09  0.487E-05    9.37     402.6  T
speedup  1.11
cpu  time for SCC    0.00 s
wall time for SCC    0.00 s
speedup  0.98
cpu  time for grad    0.01 s
wall time for grad    0.01 s
 E :    -50.47523136  G :  0.000115    pred/act E change: -0.169D-06 -0.151D-06
Maxdispl :   0.0033   ||displ|| :   0.0076   Lambda : -0.153D-06
Largest |displ|/coords:  0.0033 (   2)  0.0032 (   1)  0.0028 (  38)
................................................................................
.............................. CYCLE  102 ......................................
................................................................................
   1    -50.7658730 -0.507659E+02  0.532E-03    9.37       0.0  T
   2    -50.7658730 -0.631370E-08  0.399E-03    9.37       4.9  T
   3    -50.7658730 -0.466815E-08  0.563E-04    9.37      34.9  T
   4    -50.7658730 -0.908031E-09  0.260E-04    9.37      75.5  T
speedup  1.08
cpu  time for SCC    0.00 s
wall time for SCC    0.00 s
speedup  1.05
cpu  time for grad    0.01 s
wall time for grad    0.01 s
 E :    -50.47523146  G :  0.000183    pred/act E change: -0.107D-06 -0.102D-06
Maxdispl :   0.0045   ||displ|| :   0.0084   Lambda : -0.113D-06
Largest |displ|/coords:  0.0045 (  38)  0.0028 (   2)  0.0024 (   6)
................................................................................
.............................. CYCLE  103 ......................................
................................................................................
   1    -50.7658569 -0.507659E+02  0.710E-03    9.37       0.0  T
   2    -50.7658569 -0.967326E-08  0.531E-03    9.37       3.7  T
   3    -50.7658569 -0.601791E-08  0.797E-04    9.37      24.6  T
   4    -50.7658569 -0.147119E-08  0.325E-04    9.37      60.3  T
speedup  0.81
cpu  time for SCC    0.00 s
wall time for SCC    0.00 s
speedup  0.98
cpu  time for grad    0.01 s
wall time for grad    0.01 s
 E :    -50.47523153  G :  0.000139    pred/act E change: -0.763D-07 -0.698D-07
Maxdispl :   0.0067   ||displ|| :   0.0095   Lambda : -0.115D-06
Largest |displ|/coords:  0.0067 (   2)  0.0042 (   1)  0.0029 (   3)

   *** GEOMETRY OPTIMIZATION CONVERGED AFTER 103 ITERATIONS ***

------------------------------------------------------------------------
 total energy gain (kcal):     -0.0301
------------------------------------------------------------------------
================
 final structure:
================
$coord
       -0.51781488568513       -2.21891907078390        2.68642741358734      S 
       -0.40666921696678       -3.19426527026480        0.11402401314100      O 
       -1.66164306391337        0.27008121523592        2.79660573267506      O 
        1.91755789043999       -2.35284494040134        3.92964491609846      O 
       -2.34799786753694       -4.02433790358753        4.20041104720649      O 
       -1.35018492307980       -5.51545256472479        4.26705962809254      H 
        3.86825659202043       -0.34988023417492        2.77858794132276      H 
        5.00674570374045        0.85972607459384        1.90706407464667      O 
        6.48654768573813        0.98618749067329        2.94391320077629      H 
        3.68844061794448       -1.67738388387754       -2.44954124126615      O 
        4.61334172400001       -0.84743157068910       -1.09818285795323      H 
        2.32030104528172       -2.58357045247693       -1.59579536638700      H 
       -6.05201131831331        1.13302428979957        0.53629455465706      O 
       -4.56881175637833        0.72788183134280        1.56703654629432      H 
       -6.46601132838525        2.85678394990166        0.90717942859332      H 
        1.01731955610449        3.93947560432865        0.63838552878752      O 
        2.68824903140583        3.33652648390515        1.10466907059759      H 
       -0.12737742821774        2.82404415500556        1.57078003365889      H 
       -3.44953564582004       -0.99755034781164       -3.29441613792088      O 
       -2.50756619562205       -2.11916260348564       -2.16634240861791      H 
       -4.72302247531710       -0.21901958171242       -2.20839532034816      H 
        0.51540449019132        1.88345901858768       -3.88563520702787      N 
        0.72110509034338        2.91898658863643       -5.48205585036944      H 
       -1.23615463661425        0.86492095072990       -3.85489275202050      H 
        1.94982298718919        0.49558807193476       -3.68498768666132      H 
        0.62170830854911        3.00313269930146       -2.22783832047309      H 
$end
 
 Bond Distances (Angstroems)
 ---------------------------
S1-O2=1.4570         S1-O3=1.4507         S1-O4=1.4487         S1-O5=1.5788         O2-S1=1.4570         O3-S1=1.4507         
O4-S1=1.4487         O5-S1=1.5788         O5-H6=0.9501         H6-O5=0.9501         H7-O8=0.9927         O8-H7=0.9927         
O8-H9=0.9585         H9-O8=0.9585         O10-H11=0.9715       O10-H12=0.9789       H11-O10=0.9715       H12-O10=0.9789       
O13-H14=0.9795       O13-H15=0.9584       H14-O13=0.9795       H15-O13=0.9584       O16-H17=0.9719       O16-H18=0.9792       
H17-O16=0.9719       H18-O16=0.9792       O19-H20=0.9783       O19-H21=0.9768       H20-O19=0.9783       H21-O19=0.9768       
N22-H23=1.0128       N22-H24=1.0723       N22-H25=1.0615       N22-H26=1.0601       H23-N22=1.0128       H24-N22=1.0723       
H25-N22=1.0615       H26-N22=1.0601       
 N  H  Rav=1.0517 sigma=0.0229  Rmin=1.0128  Rmax=1.0723     4
 O  H  Rav=0.9723 sigma=0.0116  Rmin=0.9501  Rmax=0.9927    11
 S  O  Rav=1.4838 sigma=0.0549  Rmin=1.4487  Rmax=1.5788     4
 
 selected bond angles (degree)
 --------------------
O3-S1-O2=112.09                O4-S1-O2=111.78                O4-S1-O3=113.41                O5-S1-O2=106.53                
O5-S1-O3=105.85                O5-S1-O4=106.60                H6-O5-S1=100.40                H9-O8-H7=105.96                
H12-O10-H11=104.73             
 
 selected dihedral angles (degree)
 ---------------------------------
H6-O5-S1-O2= 69.30            H6-O5-S1-O3=188.77            H6-O5-S1-O4=309.81            
 
 CMA Distance (Angstroems)
 ---------------------------
R(CMA):  2.6312

========================================================================
 FINAL SINGLEPOINT CALCULATION ON OPTIMIZED GEOMETRY
========================================================================

 Ncao       : 65
 Nao        : 64
 Nshell     : 38
 Nel        : 80
 T(el)      :   300.0
 intcut     :    25.0
 scfconv/Eh :  0.100E-05
   qconv/e  :  0.100E-03
 intneglect :  0.100E-07
 broydamp   :      0.250
 iter      E             dE          RMSdq      gap      omega  full diag
   1    -50.7658569 -0.507659E+02  0.118E-04    9.37       0.0  T
   2    -50.7658569 -0.458300E-11  0.761E-05    9.37     257.6  T
   3    -50.7658569 -0.309797E-11  0.882E-06    9.37    2223.1  T
speedup  1.11
cpu  time for SCC    0.00 s
wall time for SCC    0.00 s

   *** convergence criteria satisfied after 3 iterations ***

          eigenvalues
 #    :          28         29         30         31         32         33         34         35
 occ. :        2.000      2.000      2.000      2.000      2.000      2.000      2.000      2.000
 eps  :       -13.561    -13.379    -12.575    -12.427    -12.325    -12.315    -12.186    -12.158
 #    :          36         37         38         39         40         41         42         43
 occ. :        2.000      2.000      2.000      2.000      2.000      0.000      0.000      0.000
 eps  :       -12.031    -11.989    -11.865    -11.859    -11.761     -2.389     -0.800     -0.444
 #    :          44         45         46         47         48         49         50         51
 occ. :        0.000      0.000      0.000      0.000      0.000      0.000      0.000      0.000
 eps  :         1.026      1.189      1.381      2.078      2.953      3.908      4.198      4.535


   #   Z            q   n(s)   n(p)   n(d)      C6AA      α(0)
   1  16 S      1.695  1.578  1.777  0.950    88.872    15.867
   2   8 O     -0.758  1.772  4.986  0.000    30.352     7.387
   3   8 O     -0.734  1.763  4.971  0.000    29.647     7.300
   4   8 O     -0.744  1.773  4.971  0.000    29.926     7.334
   5   8 O     -0.588  1.752  4.836  0.000    24.859     6.731
   6   1 H      0.345  0.655  0.000  0.000     0.591     1.202
   7   1 H      0.332  0.668  0.000  0.000     0.632     1.249
   8   8 O     -0.634  1.747  4.888  0.000    26.026     6.885
   9   1 H      0.289  0.711  0.000  0.000     0.754     1.364
  10   8 O     -0.615  1.751  4.863  0.000    25.542     6.821
  11   1 H      0.317  0.683  0.000  0.000     0.671     1.287
  12   1 H      0.323  0.677  0.000  0.000     0.656     1.273
  13   8 O     -0.614  1.745  4.869  0.000    25.525     6.819
  14   1 H      0.322  0.678  0.000  0.000     0.660     1.276
  15   1 H      0.285  0.715  0.000  0.000     0.769     1.378
  16   8 O     -0.618  1.751  4.867  0.000    25.628     6.833
  17   1 H      0.318  0.682  0.000  0.000     0.669     1.285
  18   1 H      0.324  0.676  0.000  0.000     0.654     1.271
  19   8 O     -0.615  1.751  4.865  0.000    25.551     6.822
  20   1 H      0.323  0.677  0.000  0.000     0.657     1.273
  21   1 H      0.328  0.672  0.000  0.000     0.643     1.260
  22   7 N     -0.360  1.283  4.077  0.000    29.261     8.034
  23   1 H      0.219  0.781  0.000  0.000     1.016     1.579
  24   1 H      0.293  0.707  0.000  0.000     0.736     1.344
  25   1 H      0.286  0.714  0.000  0.000     0.758     1.364
  26   1 H      0.283  0.717  0.000  0.000     0.766     1.372

 Mol. C6AA /au·bohr⁶  :       5451.290785
 Mol. C8AA /au·bohr⁸  :     117926.885735
 Mol. α(0) /au        :        106.606960

 
 Wiberg/Mayer (AO) data. WBOs > 0.1 written file <wbo>
 largest (>0.05) Wiberg bond orders for each atom
           total WBO             WBO to atom ...
     1  S   4.850    O    4 1.318    O    3 1.310    O    2 1.284    O    5 0.895
     2  O   1.711    S    1 1.284    O    3 0.110    O    4 0.108    O    5 0.073
     3  O   1.744    S    1 1.310    O    2 0.110    O    4 0.106    O    5 0.061    H   14 0.056    H   18 0.052
     4  O   1.727    S    1 1.318    O    2 0.108    O    3 0.106    H    7 0.081    O    5 0.074
     5  O   1.975    S    1 0.895    H    6 0.865    O    4 0.074    O    2 0.073    O    3 0.061
     6  H   0.881    O    5 0.865
     7  H   0.890    O    8 0.803    O    4 0.081
     8  O   1.855    H    9 0.908    H    7 0.803
     9  H   0.916    O    8 0.908
    10  O   1.923    H   11 0.861    H   12 0.844    H   25 0.113    N   22 0.057
    11  H   0.899    O   10 0.861
    12  H   0.896    O   10 0.844
    13  O   1.851    H   15 0.914    H   14 0.838
    14  H   0.897    O   13 0.838    O    3 0.056
    15  H   0.919    O   13 0.914
    16  O   1.919    H   17 0.861    H   18 0.839    H   26 0.113    N   22 0.057
    17  H   0.899    O   16 0.861
    18  H   0.895    O   16 0.839    O    3 0.052
    19  O   1.940    H   20 0.845    H   21 0.841    H   24 0.135    N   22 0.065
    20  H   0.896    O   19 0.845
    21  H   0.892    O   19 0.841
    22  N   3.513    H   23 0.949    H   26 0.804    H   25 0.801    H   24 0.775    O   19 0.065    O   10 0.057    O   16 0.057
    23  H   0.952    N   22 0.949
    24  H   0.914    N   22 0.775    O   19 0.135
    25  H   0.918    N   22 0.801    O   10 0.113
    26  H   0.920    N   22 0.804    O   16 0.113
 MOs/occ written to file <molden.input>
 
molecular dipole:
                 x           y           z       tot (Debye)
 q only:        0.769       1.181      -1.406
   full:        0.865       0.728      -0.266       2.953
molecular quadrupole (traceless):
                xx          xy          yy          xz          yz          zz
 q only:       -4.508      -0.536       2.440       0.852      -8.944       2.068
  q+dip:       -5.467      -1.501       3.575       1.652     -11.590       1.892
   full:       -5.219      -1.356       3.679       1.673     -12.066       1.540

SCC energy    :     -50.7658569
rep           :       0.2902789
ES            :       0.2602521
AES           :      -0.0783313
AXC           :      -0.0087049
disp          :      -0.0199604
XB            :       0.0000000
fix           :       0.0000000
total E       :     -50.4752315
atomizationE  :       5.0055357     3141.02
(atE without considering molecular charge,
 total energy contains solvation terms)
H-L gap (eV)  :          9.3721
optimized geometry written to: xtbopt.xyz


------------------------------------------------------------------------
 * finished run on 2019/09/16 at 11:30:46.673     
------------------------------------------------------------------------
 total:
 * wall-time:     0 d,  0 h,  0 min,  2.408 sec
 *  cpu-time:     0 d,  0 h,  0 min,  2.383 sec
 * ratio c/w:     0.990 speedup
 SCF:
 * wall-time:     0 d,  0 h,  0 min,  0.142 sec
 *  cpu-time:     0 d,  0 h,  0 min,  0.138 sec
 * ratio c/w:     0.972 speedup
 ANC optimizer:
 * wall-time:     0 d,  0 h,  0 min,  2.239 sec
 *  cpu-time:     0 d,  0 h,  0 min,  2.223 sec
 * ratio c/w:     0.993 speedup

