      -----------------------------------------------------------      
     |                   =====================                   |     
     |                           x T B                           |     
     |                   =====================                   |     
     |                         S. Grimme                         |     
     |          Mulliken Center for Theoretical Chemistry        |     
     |                    University of Bonn                     |     
     |                 Version 6.0.1 (SAW181210)                 |     
      -----------------------------------------------------------      

   This program is distributed in the hope that it will be useful,
   but WITHOUT ANY WARRANTY; without even the implied warranty of
   MERCHANTABILITY or FITNESS FOR A PARTICULAR PURPOSE.
   
   FOR NON-COMMERCIAL, ACADEMIA USE ONLY.
   
   Cite this work as:
   S. Grimme, C. Bannwarth, P. Shushkov, J. Comput. Theory Chem., 2017,
   13, 1989-2009.
   C. Bannwarth, S. Ehlert and S. Grimme., ChemRxiv, 2018, preprint.
   http://doi.org/10.26434/chemrxiv.7246238.v1
   
   for sTDA-xTB:
   S. Grimme and C. Bannwarth, J. Chem. Phys., 2016, 145, 054103.
   
   in the mass-spec context:
   V. Asgeirsson, C. Bauer and S. Grimme, Chem. Sci., 2017, 8, 4879.
   
   if GBSA is used:
   P. Shushkov, F. März and S. Grimme, unpublished.
   
   for ANC optimizer:
   S. Grimme, unpublished.
   Rational Function algorithm used in ANCopt:
   F. Eckert, P. Pulay, H.-J. Werner, J. Comput. Chem., 1997, 18, 1473.
   
   with help from (in alphabetical order)
   C. Bannwarth, F. Bohle, G. Brandenburg, E. Caldeweyher, M. Checinski,
   S. Dohm, S. Ehlert, S. Ehrlich, F. März, H. Neugebauer, J. Pisarek,
   P. Pracht, P. Shushkov, and S. Spicher.
   
 * started run on 2019/09/16 at 12:17:26.332     
========================================================================
 # omp threads = 1
========================================================================
number of atoms            : 26
number of electrons        : 80
charge                     : 0
spin                       : .0
first test random number   : .4873

########################################################################
# WARNING! Please study the warnings concerning your input carefully
#  - XTBPATH is not set, using XTBHOME instead
#  - the use of '-opt' is discouraged, please use '--opt' next time
#  - the use of '-chrg' is discouraged, please use '--chrg' next time
#  - the use of '-uhf' is discouraged, please use '--uhf' next time
########################################################################

           ------------------------------------------------- 
          |                 G F N 2 - x T B                 |
          | Geometry, Frequencies, Noncovalent interactions |
          |            JCTC 2018 parametrisation            |
           ------------------------------------------------- 
      method parameters     
 k(s)        :  1.8500
 k(p)        :  2.2300
 k(d)        :  2.2300
 k(f)        :  2.0000
 kEN (H0ij)  : -2.0000
 D4 a1       :  0.5200
 D4 a2       :  5.0000
 D4 s6       :  1.0000
 D4 s8       :  2.7000
 D4 s9       :  5.0000
 alphaj      :  2.0000


            Z     q(EN)     CN     RAES       Cart. coordinates
     1  S   6.0    0.61    4.50    4.56     1.10779     2.86654     4.17233
     2  O   6.0   -0.31    1.22    1.80     1.91895     0.18443     3.89592
     3  O   6.0   -0.31    1.19    1.80    -1.28560     3.27496     2.74650
     4  O   6.0   -0.27    2.11    1.84     3.08245     4.53938     3.16492
     5  O   6.0   -0.25    2.08    1.84     0.69371     3.43628     6.85868
     6  H   1.0    0.14    1.22    1.47     1.80296     4.77712     7.37133
     7  H   1.0    0.17    1.29    1.49     3.35358     4.16785     1.41006
     8  O   6.0   -0.42    1.69    1.81     1.25275    -0.57631    -3.18335
     9  H   1.0    0.17    0.95    1.42     1.92936    -0.70370    -4.91820
    10  O   6.0   -0.39    1.56    1.80    -3.19627    -4.18074     0.17226
    11  H   1.0    0.18    0.94    1.42    -4.47706    -5.44114     0.67697
    12  O   6.0   -0.27    1.98    1.82    -2.04523    -3.90606    -4.46800
    13  H   1.0    0.16    1.08    1.44    -0.69154    -2.71677    -4.20778
    14  H   1.0    0.17    1.08    1.44    -2.65329    -4.31560    -2.80152
    15  O   6.0   -0.29    2.06    1.83     3.52874     3.18271    -1.61370
    16  H   1.0    0.18    1.14    1.45     2.61285     1.71105    -2.17047
    17  H   1.0    0.15    0.97    1.43     4.49013     3.72741    -3.06064
    18  O   6.0   -0.23    2.94    2.64     1.22760    -3.31629     0.46155
    19  H   1.0    0.16    1.20    1.46    -0.51424    -3.98914     0.51752
    20  H   1.0    0.16    1.17    1.46     1.55736    -2.35590    -1.10655
    21  H   1.0    0.16    1.04    1.44     1.64328    -2.32389     1.98924
    22  N   5.0   -0.15    3.99    2.82    -3.06765     0.39156    -1.18142
    23  H   1.0    0.12    1.14    1.45    -3.48493    -1.38328    -0.50299
    24  H   1.0    0.12    1.05    1.44    -2.82425     1.61554     0.31092
    25  H   1.0    0.12    1.11    1.45    -1.43194     0.31626    -2.23175
    26  H   1.0    0.09    0.99    1.43    -4.52950     1.01773    -2.30185

  Z AO/shell   Hii/eV     exponent
  1     Wed Apr 25 08:07:45 CEST 2018   EN: 2.200 GM2: 0.406  GM3: 0.0800  RAES: 1.40
     1s    -10.707211    1.230000
  7     Wed Apr 25 08:07:45 CEST 2018   EN: 3.040 GM2: 0.461  GM3:-0.0640  RAES: 1.90
     2s    -16.686243    2.339881
     2p    -12.523956    2.014332
  8     Wed Apr 25 08:07:45 CEST 2018   EN: 3.440 GM2: 0.452  GM3:-0.0517  RAES: 1.80
     2s    -20.229985    2.439742
     2p    -15.503117    2.137023
 16     Tue Apr 24 11:44:34 CEST 2018   EN: 2.580 GM2: 0.340  GM3:-0.0502  RAES: 3.10
     3s    -20.029654    1.981333
     3p    -11.377694    2.025643
     3d     -0.420282    1.702555
 no old-style atom pair restraining (fixing) potential

molecular fragmentation (1/2 indicates fragments):
11111112222222222222222222
# atoms in fragment 1/2:     7    19
 fragment masses (1/2) :       98.07      107.11
CMA distance (Bohr)    :   7.375
constraining FC (au)   :  0.0500
           ------------------------------------------------- 
          |        Self-Consistent Charge Iterations        |
           ------------------------------------------------- 

 Ncao       : 65
 Nao        : 64
 Nshell     : 38
 Nel        : 80
 T(el)      :   300.0
 intcut     :    25.0
 scfconv/Eh :  0.100E-05
   qconv/e  :  0.100E-03
 intneglect :  0.100E-07
 broydamp   :      0.250
 iter      E             dE          RMSdq      gap      omega  full diag
   1    -50.5193348 -0.505193E+02  0.711E+00   10.39       0.0  T
   2    -50.5788959 -0.595611E-01  0.515E+00    8.88       1.0  T
   3    -50.6235409 -0.446450E-01  0.145E+00    4.76       1.0  T
   4    -50.6296843 -0.614332E-02  0.626E-01    4.97       1.0  T
   5    -50.6304033 -0.719084E-03  0.370E-01    4.81       1.0  T
   6    -50.6310864 -0.683095E-03  0.165E-01    4.92       1.0  T
   7    -50.6312758 -0.189342E-03  0.513E-02    4.97       1.0  T
   8    -50.6312880 -0.121853E-04  0.335E-02    4.97       1.0  T
   9    -50.6312950 -0.703059E-05  0.105E-02    4.98       1.9  T
  10    -50.6312957 -0.705218E-06  0.238E-03    4.98       8.2  T
  11    -50.6312957 -0.212716E-07  0.123E-03    4.98      16.0  T
  12    -50.6312957 -0.523653E-08  0.365E-04    4.98      53.7  T
  13    -50.6312957 -0.415518E-09  0.132E-04    4.98     148.0  T
speedup  1.03
cpu  time for SCC    0.02 s
wall time for SCC    0.02 s

   *** convergence criteria satisfied after 13 iterations ***

          eigenvalues
 #    :          28         29         30         31         32         33         34         35
 occ. :        2.000      2.000      2.000      2.000      2.000      2.000      2.000      2.000
 eps  :       -13.135    -12.853    -12.792    -12.513    -12.474    -11.962    -11.699    -11.241
 #    :          36         37         38         39         40         41         42         43
 occ. :        2.000      2.000      2.000      2.000      2.000      0.000      0.000      0.000
 eps  :       -10.276     -9.698     -9.311     -9.048     -8.581     -3.599     -2.358     -1.137
 #    :          44         45         46         47         48         49         50         51
 occ. :        0.000      0.000      0.000      0.000      0.000      0.000      0.000      0.000
 eps  :        -0.465     -0.107      1.656      2.298      3.178      3.453      4.841      5.024


   #   Z            q   n(s)   n(p)   n(d)      C6AA      α(0)
   1  16 S      1.716  1.572  1.773  0.940    88.415    15.826
   2   8 O     -0.706  1.764  4.942  0.000    28.883     7.206
   3   8 O     -0.704  1.766  4.938  0.000    28.819     7.198
   4   8 O     -0.579  1.716  4.863  0.000    24.660     6.704
   5   8 O     -0.527  1.716  4.810  0.000    23.466     6.540
   6   1 H      0.384  0.616  0.000  0.000     0.507     1.114
   7   1 H      0.430  0.570  0.000  0.000     0.427     1.022
   8   8 O     -0.856  1.833  5.023  0.000    33.326     7.740
   9   1 H      0.219  0.781  0.000  0.000     1.028     1.593
  10   8 O     -0.874  1.820  5.054  0.000    33.902     7.807
  11   1 H      0.185  0.815  0.000  0.000     1.200     1.721
  12   8 O     -0.714  1.780  4.934  0.000    28.088     7.153
  13   1 H      0.292  0.708  0.000  0.000     0.745     1.355
  14   1 H      0.305  0.695  0.000  0.000     0.705     1.318
  15   8 O     -0.677  1.756  4.922  0.000    27.116     7.028
  16   1 H      0.342  0.658  0.000  0.000     0.604     1.219
  17   1 H      0.285  0.715  0.000  0.000     0.768     1.376
  18   8 O     -0.477  1.667  4.810  0.000    22.340     6.383
  19   1 H      0.409  0.591  0.000  0.000     0.463     1.066
  20   1 H      0.403  0.597  0.000  0.000     0.476     1.081
  21   1 H      0.374  0.626  0.000  0.000     0.535     1.149
  22   7 N     -0.330  1.270  4.061  0.000    28.476     7.926
  23   1 H      0.316  0.684  0.000  0.000     0.666     1.278
  24   1 H      0.259  0.741  0.000  0.000     0.850     1.444
  25   1 H      0.306  0.694  0.000  0.000     0.695     1.306
  26   1 H      0.220  0.780  0.000  0.000     1.008     1.573

 Mol. C6AA /au·bohr⁶  :       5518.646123
 Mol. C8AA /au·bohr⁸  :     119344.641814
 Mol. α(0) /au        :        107.127359

 
 Wiberg/Mayer (AO) data. WBOs > 0.1 written file <wbo>
 largest (>0.05) Wiberg bond orders for each atom
           total WBO             WBO to atom ...
     1  S   4.809    O    3 1.344    O    2 1.337    O    4 1.051    O    5 1.033
     2  O   1.717    S    1 1.337    O    3 0.138    O    4 0.090    O    5 0.073    H   21 0.054
     3  O   1.717    S    1 1.344    O    2 0.138    O    4 0.091    O    5 0.074
     4  O   2.027    S    1 1.051    H    7 0.714    O    3 0.091    O    2 0.090
     5  O   2.068    S    1 1.033    H    6 0.828    O    3 0.074    O    2 0.073
     6  H   0.852    O    5 0.828
     7  H   0.815    O    4 0.714    O   15 0.075
     8  O   1.613    H    9 0.933    H   20 0.163    H   16 0.138    H   25 0.110    H   13 0.066    O   15 0.054    O   18 0.052
     9  H   0.952    O    8 0.933
    10  O   1.527    H   11 0.943    H   19 0.184    H   23 0.142    H   14 0.089    N   22 0.060    O   18 0.056
    11  H   0.966    O   10 0.943
    12  O   1.749    H   13 0.837    H   14 0.815
    13  H   0.915    O   12 0.837    O    8 0.066
    14  H   0.907    O   12 0.815    O   10 0.089
    15  O   1.809    H   17 0.910    H   16 0.739    H    7 0.075    O    8 0.054
    16  H   0.883    O   15 0.739    O    8 0.138
    17  H   0.918    O   15 0.910
    18  O   2.262    H   21 0.797    H   20 0.668    H   19 0.642    O   10 0.056    O    8 0.052
    19  H   0.833    O   18 0.642    O   10 0.184
    20  H   0.838    O   18 0.668    O    8 0.163
    21  H   0.860    O   18 0.797    O    2 0.054
    22  N   3.526    H   26 0.946    H   24 0.883    H   25 0.788    H   23 0.750    O   10 0.060
    23  H   0.900    N   22 0.750    O   10 0.142
    24  H   0.933    N   22 0.883
    25  H   0.906    N   22 0.788    O    8 0.110
    26  H   0.951    N   22 0.946
 MOs/occ written to file <molden.input>
 
molecular dipole:
                 x           y           z       tot (Debye)
 q only:        1.171       3.132       2.086
   full:        1.407       3.620       2.224      11.376
molecular quadrupole (traceless):
                xx          xy          yy          xz          yz          zz
 q only:        1.942      -3.364      -4.822       3.794       0.958       2.880
  q+dip:        1.370       0.363      -5.872       2.486       1.854       4.503
   full:        1.118       1.472      -6.185       1.990       1.939       5.067

SCC energy    :     -50.6312957
rep           :       0.2949904
ES            :       0.3265518
AES           :      -0.0657108
AXC           :      -0.0081131
disp          :      -0.0187804
XB            :       0.0000000
fix           :       0.0000000
total E       :     -50.3360414
atomizationE  :       4.8663456     3053.68
(atE without considering molecular charge,
 total energy contains solvation terms)
H-L gap (eV)  :          4.9824
           ------------------------------------------------- 
          |                 ===============                 |
          |                   A N C O P T                   |
          |                 ===============                 |
          |          Approximate Normal Coordinate          |
          |           Rational Function Optimizer           |
           ------------------------------------------------- 
dumping coords to <xtbopt.coord> and <xtbopt.log>
 optlevel               2
 Maxcycle             520
 Maxmicro              25
 Econv         1.000000000000000E-007
 Gconv         2.000000000000000E-004
 Maxdispl       1.00000000000000     
 Hlow          5.000000000000000E-003
 S6             20.0000000000000     
 Nvar               72

generating ANC from model Hessian ...
 Shifting diagonal of input Hessian by   4.874791417928521E-003
 Lowest  eigenvalues of input Hessian
   -0.000000   -0.000000    0.000000    0.000000    0.000000    0.000000
    0.005000    0.005368    0.005570    0.005799    0.005888    0.006276
    0.007415    0.007972    0.008328    0.008992    0.010366    0.011033
 Highest eigenvalues
    1.555495    1.574560    1.598331    3.216480    3.414585    3.464974
 
cpu  time for ANC gen    0.02 s
wall time for ANC gen    0.02 s
................................................................................
.............................. CYCLE    1 ......................................
................................................................................
   1    -50.6312957 -0.506313E+02  0.601E-05    4.98       0.0  T
   2    -50.6312957 -0.927969E-11  0.453E-05    4.98     433.1  T
   3    -50.6312957 -0.801492E-11  0.218E-05    4.98     899.6  T
speedup  1.00
cpu  time for SCC    0.00 s
wall time for SCC    0.00 s
speedup  0.96
cpu  time for grad    0.01 s
wall time for grad    0.01 s
 E :    -50.33604141  G :  0.256349    pred/act E change:  0.000D+00  0.288D-07
Maxdispl :   0.0872   ||displ|| :   0.2912   Lambda : -0.400D-01
Largest |displ|/coords:  0.0872 (  55)  0.0839 (  25)  0.0797 (  28)
................................................................................
.............................. CYCLE    2 ......................................
................................................................................
   1    -50.6429122 -0.506429E+02  0.266E-01    5.28       0.0  T
   2    -50.6432252 -0.313011E-03  0.200E-01    5.37       1.0  T
   3    -50.6433573 -0.132166E-03  0.105E-01    5.51       1.0  T
   4    -50.6433665 -0.914858E-05  0.257E-02    5.56       1.0  T
   5    -50.6433674 -0.935597E-06  0.571E-03    5.56       3.4  T
   6    -50.6433675 -0.596649E-07  0.313E-03    5.56       6.3  T
speedup  1.11
cpu  time for SCC    0.01 s
wall time for SCC    0.01 s
speedup  0.99
cpu  time for grad    0.01 s
wall time for grad    0.01 s
 E :    -50.36708951  G :  0.157596    pred/act E change:  0.000D+00 -0.310D-01
Maxdispl :   0.0949   ||displ|| :   0.2944   Lambda : -0.185D-01
Largest |displ|/coords:  0.0949 (  16)  0.0934 (  23)  0.0881 (  28)
................................................................................
.............................. CYCLE    3 ......................................
................................................................................
   1    -50.6514628 -0.506515E+02  0.231E-01    5.75       0.0  T
   2    -50.6517498 -0.287003E-03  0.175E-01    5.87       1.0  T
   3    -50.6518587 -0.108889E-03  0.102E-01    6.02       1.0  T
   4    -50.6518652 -0.642001E-05  0.227E-02    6.09       1.0  T
   5    -50.6518660 -0.870382E-06  0.479E-03    6.08       4.1  T
   6    -50.6518661 -0.400122E-07  0.253E-03    6.08       7.7  T
speedup  1.07
cpu  time for SCC    0.01 s
wall time for SCC    0.01 s
speedup  0.97
cpu  time for grad    0.01 s
wall time for grad    0.01 s
 E :    -50.38214784  G :  0.097071    pred/act E change: -0.217D-01 -0.151D-01
Maxdispl :   0.1172   ||displ|| :   0.3049   Lambda : -0.103D-01
Largest |displ|/coords:  0.1172 (  16)  0.1050 (  23)  0.0910 (  24)
................................................................................
.............................. CYCLE    4 ......................................
................................................................................
   1    -50.6559458 -0.506559E+02  0.243E-01    6.16       0.0  T
   2    -50.6562124 -0.266507E-03  0.181E-01    6.29       1.0  T
   3    -50.6563178 -0.105485E-03  0.919E-02    6.48       1.0  T
   4    -50.6563244 -0.654489E-05  0.223E-02    6.52       1.0  T
   5    -50.6563255 -0.110629E-05  0.487E-03    6.51       4.0  T
   6    -50.6563255 -0.421091E-07  0.263E-03    6.51       7.4  T
speedup  1.09
cpu  time for SCC    0.01 s
wall time for SCC    0.01 s
speedup  0.98
cpu  time for grad    0.01 s
wall time for grad    0.01 s
 E :    -50.39061990  G :  0.057802    pred/act E change: -0.100D-01 -0.847D-02
Maxdispl :   0.1457   ||displ|| :   0.3282   Lambda : -0.607D-02
Largest |displ|/coords:  0.1457 (  16)  0.1199 (   6)  0.1076 (  18)
................................................................................
.............................. CYCLE    5 ......................................
................................................................................
   1    -50.6554663 -0.506555E+02  0.330E-01    6.50       0.0  T
   2    -50.6556984 -0.232076E-03  0.245E-01    6.62       1.0  T
   3    -50.6557918 -0.933560E-04  0.833E-02    6.83       1.0  T
   4    -50.6558100 -0.182364E-04  0.222E-02    6.83       1.0  T
   5    -50.6558116 -0.160963E-05  0.552E-03    6.82       3.6  T
   6    -50.6558116 -0.397142E-07  0.290E-03    6.82       6.8  T
speedup  0.93
cpu  time for SCC    0.01 s
wall time for SCC    0.01 s
speedup  0.98
cpu  time for grad    0.01 s
wall time for grad    0.01 s
 E :    -50.39563318  G :  0.044406    pred/act E change: -0.562D-02 -0.501D-02
Maxdispl :   0.2419   ||displ|| :   0.6463   Lambda : -0.114D-01
Largest |displ|/coords:  0.2419 (  16)  0.1926 (  18)  0.1898 (   8)
................................................................................
.............................. CYCLE    6 ......................................
................................................................................
   1    -50.6558453 -0.506558E+02  0.639E-01    6.60       0.0  T
   2    -50.6572754 -0.143014E-02  0.463E-01    6.75       1.0  T
   3    -50.6578563 -0.580866E-03  0.184E-01    7.01       1.0  T
   4    -50.6579193 -0.630726E-04  0.472E-02    7.06       1.0  T
   5    -50.6579250 -0.567282E-05  0.134E-02    7.05       1.5  T
   6    -50.6579252 -0.199558E-06  0.697E-03    7.05       2.8  T
   7    -50.6579253 -0.840449E-07  0.221E-03    7.05       8.9  T
   8    -50.6579253 -0.909714E-08  0.529E-04    7.05      37.0  T
speedup  1.00
cpu  time for SCC    0.01 s
wall time for SCC    0.01 s
speedup  0.95
cpu  time for grad    0.01 s
wall time for grad    0.01 s
 E :    -50.39869362  G :  0.064736    pred/act E change: -0.336D-02 -0.306D-02
Maxdispl :   0.2474   ||displ|| :   0.5347   Lambda : -0.115D-01
Largest |displ|/coords:  0.2474 (   7)  0.2471 (   6)  0.2056 (   4)
................................................................................
.............................. CYCLE    7 ......................................
................................................................................
   1    -50.6577367 -0.506577E+02  0.599E-01    7.09       0.0  T
   2    -50.6579559 -0.219261E-03  0.451E-01    7.07       1.0  T
   3    -50.6580538 -0.978848E-04  0.929E-02    7.03       1.0  T
   4    -50.6580880 -0.342375E-04  0.262E-02    7.03       1.0  T
   5    -50.6580902 -0.213674E-05  0.784E-03    7.04       2.5  T
   6    -50.6580902 -0.406971E-07  0.404E-03    7.04       4.9  T
   7    -50.6580903 -0.339113E-07  0.143E-03    7.04      13.7  T
speedup  0.97
cpu  time for SCC    0.01 s
wall time for SCC    0.01 s
speedup  1.00
cpu  time for grad    0.01 s
wall time for grad    0.01 s
 E :    -50.40055092  G :  0.047451    pred/act E change: -0.809D-02 -0.186D-02
Maxdispl :   0.1531   ||displ|| :   0.3394   Lambda : -0.690D-02
Largest |displ|/coords:  0.1531 (  16)  0.1162 (  24)  0.1088 (   8)
................................................................................
.............................. CYCLE    8 ......................................
................................................................................
   1    -50.6596240 -0.506596E+02  0.368E-01    6.93       0.0  T
   2    -50.6598351 -0.211027E-03  0.270E-01    6.97       1.0  T
   3    -50.6599321 -0.970823E-04  0.759E-02    7.07       1.0  T
   4    -50.6599528 -0.206716E-04  0.171E-02    7.07       1.1  T
   5    -50.6599536 -0.801539E-06  0.589E-03    7.07       3.3  T
   6    -50.6599537 -0.514374E-07  0.339E-03    7.07       5.8  T
speedup  0.93
cpu  time for SCC    0.01 s
wall time for SCC    0.01 s
speedup  0.99
cpu  time for grad    0.01 s
wall time for grad    0.01 s
 E :    -50.40446296  G :  0.047591    pred/act E change: -0.740D-02 -0.391D-02
Maxdispl :   0.1582   ||displ|| :   0.3824   Lambda : -0.417D-02
Largest |displ|/coords:  0.1582 (   8)  0.1443 (   6)  0.1421 (   5)
................................................................................
.............................. CYCLE    9 ......................................
................................................................................
   1    -50.6636050 -0.506636E+02  0.290E-01    7.09       0.0  T
   2    -50.6637057 -0.100708E-03  0.215E-01    7.11       1.0  T
   3    -50.6637506 -0.449149E-04  0.518E-02    7.07       1.0  T
   4    -50.6637640 -0.133195E-04  0.121E-02    7.09       1.6  T
   5    -50.6637643 -0.353832E-06  0.546E-03    7.09       3.6  T
   6    -50.6637643 -0.237275E-07  0.263E-03    7.09       7.4  T
speedup  0.93
cpu  time for SCC    0.00 s
wall time for SCC    0.01 s
speedup  0.97
cpu  time for grad    0.01 s
wall time for grad    0.01 s
 E :    -50.40658492  G :  0.050178    pred/act E change: -0.385D-02 -0.212D-02
Maxdispl :   0.1474   ||displ|| :   0.3478   Lambda : -0.526D-02
Largest |displ|/coords:  0.1474 (   2)  0.1244 (  16)  0.1113 (   4)
................................................................................
.............................. CYCLE   10 ......................................
................................................................................
   1    -50.6667215 -0.506667E+02  0.327E-01    7.10       0.0  T
   2    -50.6668299 -0.108374E-03  0.242E-01    7.11       1.0  T
   3    -50.6668895 -0.595412E-04  0.557E-02    7.13       1.0  T
   4    -50.6669033 -0.137889E-04  0.140E-02    7.13       1.4  T
   5    -50.6669036 -0.356669E-06  0.582E-03    7.13       3.4  T
   6    -50.6669037 -0.430905E-07  0.289E-03    7.13       6.8  T
speedup  0.93
cpu  time for SCC    0.00 s
wall time for SCC    0.01 s
speedup  0.99
cpu  time for grad    0.01 s
wall time for grad    0.01 s
 E :    -50.40895210  G :  0.057669    pred/act E change: -0.239D-02 -0.237D-02
Maxdispl :   0.1028   ||displ|| :   0.2372   Lambda : -0.471D-02
Largest |displ|/coords:  0.1028 (   8)  0.0856 (   6)  0.0742 (   7)
................................................................................
.............................. CYCLE   11 ......................................
................................................................................
   1    -50.6748372 -0.506748E+02  0.228E-01    7.21       0.0  T
   2    -50.6748900 -0.528548E-04  0.169E-01    7.20       1.0  T
   3    -50.6749207 -0.306765E-04  0.400E-02    7.17       1.0  T
   4    -50.6749270 -0.626869E-05  0.980E-03    7.19       2.0  T
   5    -50.6749272 -0.210063E-06  0.413E-03    7.19       4.7  T
   6    -50.6749272 -0.155757E-07  0.205E-03    7.19       9.6  T
speedup  1.11
cpu  time for SCC    0.01 s
wall time for SCC    0.01 s
speedup  1.06
cpu  time for grad    0.01 s
wall time for grad    0.01 s
 E :    -50.41179066  G :  0.038242    pred/act E change: -0.295D-02 -0.284D-02
Maxdispl :   0.2119   ||displ|| :   0.4026   Lambda : -0.547D-02
Largest |displ|/coords:  0.2119 (   6)  0.1460 (  24)  0.0984 (   8)
................................................................................
.............................. CYCLE   12 ......................................
................................................................................
   1    -50.6781581 -0.506782E+02  0.392E-01    7.28       0.0  T
   2    -50.6783053 -0.147126E-03  0.292E-01    7.29       1.0  T
   3    -50.6783983 -0.930154E-04  0.689E-02    7.32       1.0  T
   4    -50.6784175 -0.192496E-04  0.206E-02    7.33       1.0  T
   5    -50.6784183 -0.796296E-06  0.788E-03    7.32       2.5  T
   6    -50.6784184 -0.976939E-07  0.405E-03    7.32       4.8  T
   7    -50.6784185 -0.255644E-07  0.116E-03    7.32      16.9  T
speedup  0.97
cpu  time for SCC    0.01 s
wall time for SCC    0.01 s
speedup  1.01
cpu  time for grad    0.01 s
wall time for grad    0.01 s
 E :    -50.41476998  G :  0.063463    pred/act E change: -0.249D-02 -0.298D-02
Maxdispl :   0.1959   ||displ|| :   0.3831   Lambda : -0.909D-02
Largest |displ|/coords:  0.1959 (   2)  0.1541 (   1)  0.1229 (   6)
................................................................................
.............................. CYCLE   13 ......................................
................................................................................
   1    -50.6981769 -0.506982E+02  0.399E-01    7.48       0.0  T
   2    -50.6983324 -0.155537E-03  0.295E-01    7.51       1.0  T
   3    -50.6984335 -0.101024E-03  0.678E-02    7.57       1.0  T
   4    -50.6984497 -0.162722E-04  0.216E-02    7.57       1.0  T
   5    -50.6984506 -0.843332E-06  0.751E-03    7.57       2.6  T
   6    -50.6984506 -0.442496E-07  0.354E-03    7.56       5.5  T
   7    -50.6984507 -0.357358E-07  0.114E-03    7.56      17.2  T
speedup  1.11
cpu  time for SCC    0.01 s
wall time for SCC    0.01 s
speedup  0.99
cpu  time for grad    0.01 s
wall time for grad    0.01 s
 E :    -50.41736689  G :  0.056569    pred/act E change: -0.318D-02 -0.260D-02
Maxdispl :   0.1010   ||displ|| :   0.3023   Lambda : -0.746D-02
Largest |displ|/coords:  0.1010 (  24)  0.0873 (  28)  0.0835 (   9)
................................................................................
.............................. CYCLE   14 ......................................
................................................................................
   1    -50.6864013 -0.506864E+02  0.325E-01    7.62       0.0  T
   2    -50.6865208 -0.119494E-03  0.239E-01    7.66       1.0  T
   3    -50.6865977 -0.768934E-04  0.597E-02    7.77       1.0  T
   4    -50.6866097 -0.119502E-04  0.151E-02    7.75       1.3  T
   5    -50.6866102 -0.503791E-06  0.634E-03    7.75       3.1  T
   6    -50.6866102 -0.720862E-07  0.359E-03    7.75       5.5  T
   7    -50.6866103 -0.189569E-07  0.766E-04    7.75      25.6  T
speedup  0.97
cpu  time for SCC    0.01 s
wall time for SCC    0.01 s
speedup  1.01
cpu  time for grad    0.01 s
wall time for grad    0.01 s
 E :    -50.41994096  G :  0.052295    pred/act E change: -0.521D-02 -0.257D-02
Maxdispl :   0.1186   ||displ|| :   0.2638   Lambda : -0.464D-02
Largest |displ|/coords:  0.1186 (   2)  0.1020 (   1)  0.0953 (   4)
................................................................................
.............................. CYCLE   15 ......................................
................................................................................
   1    -50.7020985 -0.507021E+02  0.192E-01    7.82       0.0  T
   2    -50.7021647 -0.662110E-04  0.143E-01    7.86       1.0  T
   3    -50.7022053 -0.405769E-04  0.462E-02    7.94       1.0  T
   4    -50.7022114 -0.612727E-05  0.165E-02    7.94       1.2  T
   5    -50.7022120 -0.603730E-06  0.456E-03    7.93       4.3  T
   6    -50.7022120 -0.237476E-07  0.240E-03    7.93       8.2  T
speedup  1.11
cpu  time for SCC    0.01 s
wall time for SCC    0.01 s
speedup  1.06
cpu  time for grad    0.01 s
wall time for grad    0.01 s
 E :    -50.42193372  G :  0.042041    pred/act E change: -0.407D-02 -0.199D-02
Maxdispl :   0.1057   ||displ|| :   0.2849   Lambda : -0.383D-02
Largest |displ|/coords:  0.1057 (  30)  0.1008 (  10)  0.0957 (   3)
................................................................................
.............................. CYCLE   16 ......................................
................................................................................
   1    -50.7032143 -0.507032E+02  0.167E-01    8.09       0.0  T
   2    -50.7032756 -0.613407E-04  0.125E-01    8.14       1.0  T
   3    -50.7033153 -0.396444E-04  0.425E-02    8.25       1.0  T
   4    -50.7033203 -0.506715E-05  0.147E-02    8.25       1.3  T
   5    -50.7033208 -0.508322E-06  0.455E-03    8.24       4.3  T
   6    -50.7033209 -0.305132E-07  0.242E-03    8.24       8.1  T
speedup  1.07
cpu  time for SCC    0.01 s
wall time for SCC    0.01 s
speedup  0.98
cpu  time for grad    0.01 s
wall time for grad    0.01 s
 E :    -50.42418143  G :  0.049719    pred/act E change: -0.248D-02 -0.225D-02
Maxdispl :   0.1728   ||displ|| :   0.5181   Lambda : -0.706D-02
Largest |displ|/coords:  0.1728 (  23)  0.1570 (  28)  0.1235 (   8)
................................................................................
.............................. CYCLE   17 ......................................
................................................................................
   1    -50.6993190 -0.506993E+02  0.437E-01    8.44       0.0  T
   2    -50.6996850 -0.366004E-03  0.328E-01    8.57       1.0  T
   3    -50.6998924 -0.207365E-03  0.109E-01    8.79       1.0  T
   4    -50.6999254 -0.330735E-04  0.371E-02    8.81       1.0  T
   5    -50.6999293 -0.386622E-05  0.996E-03    8.79       2.0  T
   6    -50.6999294 -0.108213E-06  0.649E-03    8.79       3.0  T
   7    -50.6999295 -0.521734E-07  0.127E-03    8.79      15.4  T
   8    -50.6999295 -0.516709E-08  0.311E-04    8.79      63.0  T
speedup  0.97
cpu  time for SCC    0.01 s
wall time for SCC    0.01 s
speedup  1.01
cpu  time for grad    0.01 s
wall time for grad    0.01 s
 E :    -50.43017287  G :  0.054704    pred/act E change: -0.207D-02 -0.599D-02
Maxdispl :   0.1497   ||displ|| :   0.4445   Lambda : -0.817D-02
Largest |displ|/coords:  0.1497 (  28)  0.1325 (  13)  0.1169 (  11)
................................................................................
.............................. CYCLE   18 ......................................
................................................................................
   1    -50.7223598 -0.507224E+02  0.438E-01    8.95       0.0  T
   2    -50.7226554 -0.295519E-03  0.328E-01    9.00       1.0  T
   3    -50.7228330 -0.177619E-03  0.952E-02    9.07       1.0  T
   4    -50.7228626 -0.296410E-04  0.314E-02    9.08       1.0  T
   5    -50.7228652 -0.258253E-05  0.947E-03    9.08       2.1  T
   6    -50.7228653 -0.676974E-07  0.555E-03    9.08       3.5  T
   7    -50.7228653 -0.388365E-07  0.108E-03    9.08      18.1  T
speedup  1.09
cpu  time for SCC    0.01 s
wall time for SCC    0.01 s
speedup  0.99
cpu  time for grad    0.01 s
wall time for grad    0.01 s
 E :    -50.43353605  G :  0.076481    pred/act E change: -0.448D-02 -0.336D-02
Maxdispl :   0.1824   ||displ|| :   0.4520   Lambda : -0.114D-01
Largest |displ|/coords:  0.1824 (   4)  0.1714 (  10)  0.1312 (  13)
................................................................................
.............................. CYCLE   19 ......................................
................................................................................
   1    -50.7144387 -0.507144E+02  0.527E-01    9.00       0.0  T
   2    -50.7146775 -0.238746E-03  0.391E-01    9.13       1.0  T
   3    -50.7148184 -0.140892E-03  0.888E-02    9.16       1.0  T
   4    -50.7148466 -0.281847E-04  0.175E-02    9.16       1.1  T
   5    -50.7148468 -0.250326E-06  0.833E-03    9.16       2.4  T
   6    -50.7148470 -0.155324E-06  0.362E-03    9.16       5.4  T
   7    -50.7148470 -0.190863E-07  0.708E-04    9.16      27.7  T
speedup  0.95
cpu  time for SCC    0.01 s
wall time for SCC    0.01 s
speedup  1.00
cpu  time for grad    0.01 s
wall time for grad    0.01 s
 E :    -50.43782862  G :  0.067924    pred/act E change: -0.489D-02 -0.429D-02
Maxdispl :   0.1565   ||displ|| :   0.3481   Lambda : -0.102D-01
Largest |displ|/coords:  0.1565 (   5)  0.1206 (  14)  0.1078 (  13)
................................................................................
.............................. CYCLE   20 ......................................
................................................................................
   1    -50.7329502 -0.507330E+02  0.416E-01    9.18       0.0  T
   2    -50.7331257 -0.175500E-03  0.309E-01    9.18       1.0  T
   3    -50.7332428 -0.117082E-03  0.738E-02    9.17       1.0  T
   4    -50.7332619 -0.191306E-04  0.154E-02    9.17       1.3  T
   5    -50.7332623 -0.391655E-06  0.836E-03    9.17       2.3  T
   6    -50.7332624 -0.430681E-07  0.357E-03    9.17       5.5  T
   7    -50.7332624 -0.235678E-07  0.728E-04    9.17      26.9  T
speedup  1.11
cpu  time for SCC    0.01 s
wall time for SCC    0.01 s
speedup  1.00
cpu  time for grad    0.01 s
wall time for grad    0.01 s
 E :    -50.44086856  G :  0.056254    pred/act E change: -0.689D-02 -0.304D-02
Maxdispl :   0.1148   ||displ|| :   0.2892   Lambda : -0.543D-02
Largest |displ|/coords:  0.1148 (   4)  0.1135 (   3)  0.0922 (  10)
................................................................................
.............................. CYCLE   21 ......................................
................................................................................
   1    -50.7309527 -0.507310E+02  0.284E-01    9.20       0.0  T
   2    -50.7310072 -0.545237E-04  0.211E-01    9.20       1.0  T
   3    -50.7310463 -0.391690E-04  0.426E-02    9.20       1.0  T
   4    -50.7310529 -0.650494E-05  0.100E-02    9.20       2.0  T
   5    -50.7310529 -0.985846E-07  0.457E-03    9.20       4.3  T
   6    -50.7310530 -0.290969E-07  0.193E-03    9.20      10.2  T
speedup  0.93
cpu  time for SCC    0.01 s
wall time for SCC    0.01 s
speedup  0.99
cpu  time for grad    0.01 s
wall time for grad    0.01 s
 E :    -50.44396564  G :  0.033897    pred/act E change: -0.572D-02 -0.310D-02
Maxdispl :   0.0695   ||displ|| :   0.2194   Lambda : -0.228D-02
Largest |displ|/coords:  0.0695 (  14)  0.0652 (  26)  0.0639 (  28)
................................................................................
.............................. CYCLE   22 ......................................
................................................................................
   1    -50.7340185 -0.507340E+02  0.126E-01    9.20       0.0  T
   2    -50.7340235 -0.504102E-05  0.942E-02    9.20       1.0  T
   3    -50.7340284 -0.480376E-05  0.151E-02    9.20       1.3  T
   4    -50.7340288 -0.400740E-06  0.427E-03    9.20       4.6  T
   5    -50.7340288 -0.294070E-07  0.162E-03    9.20      12.1  T
speedup  0.87
cpu  time for SCC    0.00 s
wall time for SCC    0.00 s
speedup  0.96
cpu  time for grad    0.01 s
wall time for grad    0.01 s
 E :    -50.44582799  G :  0.027696    pred/act E change: -0.294D-02 -0.186D-02
Maxdispl :   0.2087   ||displ|| :   0.4873   Lambda : -0.463D-02
Largest |displ|/coords:  0.2087 (  28)  0.1921 (  14)  0.1681 (  26)
................................................................................
.............................. CYCLE   23 ......................................
................................................................................
   1    -50.7454790 -0.507455E+02  0.265E-01    9.21       0.0  T
   2    -50.7455191 -0.401367E-04  0.198E-01    9.21       1.0  T
   3    -50.7455551 -0.359642E-04  0.388E-02    9.21       1.0  T
   4    -50.7455595 -0.439148E-05  0.122E-02    9.21       1.6  T
   5    -50.7455597 -0.243651E-06  0.446E-03    9.21       4.4  T
   6    -50.7455597 -0.204950E-07  0.211E-03    9.21       9.3  T
speedup  1.11
cpu  time for SCC    0.01 s
wall time for SCC    0.01 s
speedup  1.06
cpu  time for grad    0.01 s
wall time for grad    0.01 s
 E :    -50.44768970  G :  0.034209    pred/act E change: -0.119D-02 -0.186D-02
Maxdispl :   0.0930   ||displ|| :   0.2983   Lambda : -0.342D-02
Largest |displ|/coords:  0.0930 (  14)  0.0894 (  26)  0.0868 (  22)
................................................................................
.............................. CYCLE   24 ......................................
................................................................................
   1    -50.7426840 -0.507427E+02  0.176E-01    9.17       0.0  T
   2    -50.7427174 -0.333754E-04  0.131E-01    9.17       1.0  T
   3    -50.7427438 -0.263742E-04  0.340E-02    9.18       1.0  T
   4    -50.7427468 -0.302810E-05  0.120E-02    9.18       1.6  T
   5    -50.7427471 -0.273927E-06  0.365E-03    9.18       5.4  T
   6    -50.7427471 -0.172506E-07  0.187E-03    9.18      10.5  T
speedup  1.13
cpu  time for SCC    0.01 s
wall time for SCC    0.01 s
speedup  1.00
cpu  time for grad    0.01 s
wall time for grad    0.01 s
 E :    -50.44787984  G :  0.042363    pred/act E change: -0.286D-02 -0.190D-03
Maxdispl :   0.1297   ||displ|| :   0.2351   Lambda : -0.347D-02
Largest |displ|/coords:  0.1297 (  23)  0.0837 (  17)  0.0547 (   3)
................................................................................
.............................. CYCLE   25 ......................................
................................................................................
   1    -50.7488789 -0.507489E+02  0.203E-01    9.20       0.0  T
   2    -50.7489312 -0.523540E-04  0.154E-01    9.19       1.0  T
   3    -50.7489859 -0.546503E-04  0.407E-02    9.18       1.0  T
   4    -50.7489903 -0.448124E-05  0.138E-02    9.19       1.4  T
   5    -50.7489906 -0.217288E-06  0.489E-03    9.19       4.0  T
   6    -50.7489906 -0.249146E-07  0.216E-03    9.19       9.1  T
speedup  0.93
cpu  time for SCC    0.00 s
wall time for SCC    0.01 s
speedup  0.99
cpu  time for grad    0.01 s
wall time for grad    0.01 s
 E :    -50.44547708  G :  0.084360    pred/act E change: -0.186D-02  0.240D-02
Maxdispl :   0.1600   ||displ|| :   0.3858   Lambda : -0.219D-01
Largest |displ|/coords:  0.1600 (  23)  0.1112 (  29)  0.1084 (  26)

generating ANC from model Hessian ...
 Shifting diagonal of input Hessian by   4.971988004376649E-003
 Lowest  eigenvalues of input Hessian
   -0.000000   -0.000000   -0.000000    0.000000    0.000000    0.000000
    0.005000    0.005251    0.005585    0.005775    0.006202    0.006393
    0.007078    0.007215    0.007615    0.008220    0.008792    0.009235
 Highest eigenvalues
    1.403392    1.415009    1.438607    2.589232    3.435562    3.595012
 
cpu  time for ANC gen    0.02 s
wall time for ANC gen    0.02 s
................................................................................
.............................. CYCLE   26 ......................................
................................................................................
   1    -50.7272190 -0.507272E+02  0.341E-01    9.13       0.0  T
   2    -50.7273967 -0.177642E-03  0.261E-01    9.14       1.0  T
   3    -50.7275979 -0.201278E-03  0.733E-02    9.16       1.0  T
   4    -50.7276097 -0.118054E-04  0.288E-02    9.16       1.0  T
   5    -50.7276111 -0.139933E-05  0.881E-03    9.16       2.2  T
   6    -50.7276113 -0.119421E-06  0.526E-03    9.15       3.7  T
   7    -50.7276113 -0.186209E-07  0.123E-03    9.15      16.0  T
   8    -50.7276113 -0.505993E-08  0.332E-04    9.16      59.0  T
   9    -50.7276113 -0.138478E-09  0.127E-04    9.16     154.6  T
speedup  1.00
cpu  time for SCC    0.01 s
wall time for SCC    0.01 s
speedup  0.98
cpu  time for grad    0.02 s
wall time for grad    0.02 s
 E :    -50.44309321  G :  0.067445    pred/act E change:  0.000D+00  0.238D-02
Maxdispl :   0.1162   ||displ|| :   0.2643   Lambda : -0.749D-02
Largest |displ|/coords:  0.1162 (  12)  0.1026 (  28)  0.0810 (  34)
................................................................................
.............................. CYCLE   27 ......................................
................................................................................
   1    -50.7359292 -0.507359E+02  0.288E-01    9.20       0.0  T
   2    -50.7359656 -0.363702E-04  0.218E-01    9.20       1.0  T
   3    -50.7359958 -0.302472E-04  0.348E-02    9.20       1.0  T
   4    -50.7360001 -0.421043E-05  0.105E-02    9.20       1.9  T
   5    -50.7360003 -0.223830E-06  0.403E-03    9.20       4.9  T
   6    -50.7360003 -0.134549E-07  0.212E-03    9.20       9.3  T
speedup  0.94
cpu  time for SCC    0.00 s
wall time for SCC    0.01 s
speedup  1.00
cpu  time for grad    0.01 s
wall time for grad    0.01 s
 E :    -50.44853051  G :  0.039176    pred/act E change:  0.000D+00 -0.544D-02
Maxdispl :   0.1243   ||displ|| :   0.3221   Lambda : -0.507D-02
Largest |displ|/coords:  0.1243 (  12)  0.0991 (  26)  0.0962 (  55)
................................................................................
.............................. CYCLE   28 ......................................
................................................................................
   1    -50.7487563 -0.507488E+02  0.305E-01    9.22       0.0  T
   2    -50.7488072 -0.508779E-04  0.232E-01    9.22       1.0  T
   3    -50.7488553 -0.481083E-04  0.398E-02    9.21       1.0  T
   4    -50.7488604 -0.506638E-05  0.136E-02    9.21       1.4  T
   5    -50.7488606 -0.282247E-06  0.520E-03    9.21       3.8  T
   6    -50.7488607 -0.226496E-07  0.266E-03    9.21       7.4  T
speedup  1.11
cpu  time for SCC    0.01 s
wall time for SCC    0.01 s
speedup  1.07
cpu  time for grad    0.01 s
wall time for grad    0.01 s
 E :    -50.44932908  G :  0.032170    pred/act E change: -0.401D-02 -0.799D-03
Maxdispl :   0.1371   ||displ|| :   0.2090   Lambda : -0.234D-02
Largest |displ|/coords:  0.1371 (  12)  0.0665 (  10)  0.0632 (  19)
................................................................................
.............................. CYCLE   29 ......................................
................................................................................
   1    -50.7432667 -0.507433E+02  0.284E-01    9.22       0.0  T
   2    -50.7432873 -0.205783E-04  0.216E-01    9.22       1.0  T
   3    -50.7433070 -0.197774E-04  0.230E-02    9.22       1.0  T
   4    -50.7433092 -0.211772E-05  0.526E-03    9.22       3.7  T
   5    -50.7433092 -0.329599E-07  0.269E-03    9.22       7.3  T
speedup  1.11
cpu  time for SCC    0.01 s
wall time for SCC    0.00 s
speedup  0.98
cpu  time for grad    0.01 s
wall time for grad    0.01 s
 E :    -50.45059834  G :  0.012648    pred/act E change: -0.280D-02 -0.127D-02
Maxdispl :   0.0793   ||displ|| :   0.1677   Lambda : -0.438D-03
Largest |displ|/coords:  0.0793 (  19)  0.0752 (   1)  0.0715 (   2)
................................................................................
.............................. CYCLE   30 ......................................
................................................................................
   1    -50.7442629 -0.507443E+02  0.111E-01    9.22       0.0  T
   2    -50.7442668 -0.395669E-05  0.837E-02    9.22       1.0  T
   3    -50.7442700 -0.322153E-05  0.130E-02    9.22       1.5  T
   4    -50.7442705 -0.470999E-06  0.324E-03    9.22       6.0  T
   5    -50.7442705 -0.170436E-07  0.131E-03    9.22      15.0  T
   6    -50.7442705 -0.210420E-08  0.683E-04    9.22      28.7  T
speedup  0.93
cpu  time for SCC    0.00 s
wall time for SCC    0.01 s
speedup  0.99
cpu  time for grad    0.01 s
wall time for grad    0.01 s
 E :    -50.45083811  G :  0.008408    pred/act E change: -0.122D-02 -0.240D-03
Maxdispl :   0.2144   ||displ|| :   0.3371   Lambda : -0.574D-03
Largest |displ|/coords:  0.2144 (   2)  0.1318 (   1)  0.0856 (  19)
................................................................................
.............................. CYCLE   31 ......................................
................................................................................
   1    -50.7435527 -0.507436E+02  0.223E-01    9.21       0.0  T
   2    -50.7435617 -0.902002E-05  0.168E-01    9.21       1.0  T
   3    -50.7435712 -0.951163E-05  0.185E-02    9.21       1.1  T
   4    -50.7435720 -0.756166E-06  0.604E-03    9.21       3.2  T
   5    -50.7435720 -0.417387E-07  0.217E-03    9.21       9.0  T
   6    -50.7435720 -0.415402E-08  0.108E-03    9.21      18.2  T
speedup  0.93
cpu  time for SCC    0.00 s
wall time for SCC    0.01 s
speedup  0.98
cpu  time for grad    0.01 s
wall time for grad    0.01 s
 E :    -50.45119282  G :  0.010903    pred/act E change: -0.225D-03 -0.355D-03
Maxdispl :   0.2490   ||displ|| :   0.3609   Lambda : -0.474D-03
Largest |displ|/coords:  0.2490 (   2)  0.1694 (   1)  0.1016 (   3)
................................................................................
.............................. CYCLE   32 ......................................
................................................................................
   1    -50.7454843 -0.507455E+02  0.167E-01    9.18       0.0  T
   2    -50.7454913 -0.702942E-05  0.125E-01    9.18       1.0  T
   3    -50.7454959 -0.454706E-05  0.167E-02    9.18       1.2  T
   4    -50.7454970 -0.109911E-05  0.530E-03    9.18       3.7  T
   5    -50.7454970 -0.489525E-07  0.190E-03    9.18      10.3  T
   6    -50.7454970 -0.336617E-08  0.103E-03    9.18      19.1  T
speedup  1.13
cpu  time for SCC    0.01 s
wall time for SCC    0.01 s
speedup  1.00
cpu  time for grad    0.01 s
wall time for grad    0.01 s
 E :    -50.45144408  G :  0.008543    pred/act E change: -0.320D-03 -0.251D-03
Maxdispl :   0.2089   ||displ|| :   0.3248   Lambda : -0.322D-03
Largest |displ|/coords:  0.2089 (   2)  0.1615 (   1)  0.0757 (  10)
................................................................................
.............................. CYCLE   33 ......................................
................................................................................
   1    -50.7448546 -0.507449E+02  0.164E-01    9.16       0.0  T
   2    -50.7448589 -0.437267E-05  0.124E-01    9.16       1.0  T
   3    -50.7448632 -0.428022E-05  0.118E-02    9.16       1.7  T
   4    -50.7448637 -0.456131E-06  0.498E-03    9.16       3.9  T
   5    -50.7448637 -0.280190E-07  0.147E-03    9.16      13.3  T
   6    -50.7448637 -0.189111E-08  0.857E-04    9.16      22.9  T
speedup  0.94
cpu  time for SCC    0.00 s
wall time for SCC    0.01 s
speedup  0.99
cpu  time for grad    0.01 s
wall time for grad    0.01 s
 E :    -50.45166834  G :  0.009115    pred/act E change: -0.268D-03 -0.224D-03
Maxdispl :   0.3155   ||displ|| :   0.4631   Lambda : -0.475D-03
Largest |displ|/coords:  0.3155 (   2)  0.2394 (   1)  0.0999 (   8)
................................................................................
.............................. CYCLE   34 ......................................
................................................................................
   1    -50.7423615 -0.507424E+02  0.239E-01    9.11       0.0  T
   2    -50.7423710 -0.951753E-05  0.180E-01    9.11       1.0  T
   3    -50.7423802 -0.917183E-05  0.168E-02    9.11       1.2  T
   4    -50.7423812 -0.100028E-05  0.729E-03    9.11       2.7  T
   5    -50.7423812 -0.576432E-07  0.204E-03    9.11       9.6  T
   6    -50.7423812 -0.380656E-08  0.123E-03    9.11      16.0  T
speedup  0.94
cpu  time for SCC    0.01 s
wall time for SCC    0.01 s
speedup  0.98
cpu  time for grad    0.01 s
wall time for grad    0.01 s
 E :    -50.45200007  G :  0.014015    pred/act E change: -0.178D-03 -0.332D-03
Maxdispl :   0.2317   ||displ|| :   0.4035   Lambda : -0.625D-03
Largest |displ|/coords:  0.2317 (   2)  0.2262 (   1)  0.0847 (   3)
................................................................................
.............................. CYCLE   35 ......................................
................................................................................
   1    -50.7464643 -0.507465E+02  0.184E-01    9.14       0.0  T
   2    -50.7464712 -0.697065E-05  0.139E-01    9.14       1.0  T
   3    -50.7464772 -0.597054E-05  0.151E-02    9.14       1.3  T
   4    -50.7464780 -0.851868E-06  0.692E-03    9.14       2.8  T
   5    -50.7464781 -0.518254E-07  0.179E-03    9.14      11.0  T
   6    -50.7464781 -0.397680E-08  0.112E-03    9.14      17.5  T
speedup  0.94
cpu  time for SCC    0.00 s
wall time for SCC    0.01 s
speedup  0.99
cpu  time for grad    0.01 s
wall time for grad    0.01 s
 E :    -50.45228194  G :  0.015429    pred/act E change: -0.289D-03 -0.282D-03
Maxdispl :   0.2689   ||displ|| :   0.4459   Lambda : -0.649D-03
Largest |displ|/coords:  0.2689 (   2)  0.2428 (   1)  0.1169 (  10)
................................................................................
.............................. CYCLE   36 ......................................
................................................................................
   1    -50.7437508 -0.507438E+02  0.237E-01    9.18       0.0  T
   2    -50.7437607 -0.992759E-05  0.178E-01    9.18       1.0  T
   3    -50.7437702 -0.945299E-05  0.178E-02    9.18       1.1  T
   4    -50.7437713 -0.115168E-05  0.672E-03    9.18       2.9  T
   5    -50.7437714 -0.524406E-07  0.272E-03    9.18       7.2  T
   6    -50.7437714 -0.905577E-08  0.142E-03    9.18      13.8  T
speedup  1.15
cpu  time for SCC    0.01 s
wall time for SCC    0.01 s
speedup  1.00
cpu  time for grad    0.01 s
wall time for grad    0.01 s
 E :    -50.45265019  G :  0.017579    pred/act E change: -0.364D-03 -0.368D-03
Maxdispl :   0.1668   ||displ|| :   0.2795   Lambda : -0.508D-03
Largest |displ|/coords:  0.1668 (   2)  0.1149 (   1)  0.1038 (   6)
................................................................................
.............................. CYCLE   37 ......................................
................................................................................
   1    -50.7456052 -0.507456E+02  0.131E-01    9.23       0.0  T
   2    -50.7456073 -0.217311E-05  0.981E-02    9.23       1.0  T
   3    -50.7456094 -0.204615E-05  0.986E-03    9.23       2.0  T
   4    -50.7456096 -0.193180E-06  0.316E-03    9.23       6.2  T
   5    -50.7456096 -0.152251E-07  0.115E-03    9.23      17.1  T
   6    -50.7456096 -0.191697E-08  0.681E-04    9.23      28.8  T
speedup  0.94
cpu  time for SCC    0.00 s
wall time for SCC    0.01 s
speedup  0.99
cpu  time for grad    0.01 s
wall time for grad    0.01 s
 E :    -50.45298511  G :  0.012312    pred/act E change: -0.389D-03 -0.335D-03
Maxdispl :   0.2589   ||displ|| :   0.4708   Lambda : -0.658D-03
Largest |displ|/coords:  0.2589 (   2)  0.2513 (   1)  0.1340 (   6)
................................................................................
.............................. CYCLE   38 ......................................
................................................................................
   1    -50.7487935 -0.507488E+02  0.213E-01    9.30       0.0  T
   2    -50.7488016 -0.811310E-05  0.161E-01    9.30       1.0  T
   3    -50.7488101 -0.849548E-05  0.175E-02    9.30       1.1  T
   4    -50.7488108 -0.695304E-06  0.491E-03    9.30       4.0  T
   5    -50.7488109 -0.287275E-07  0.229E-03    9.30       8.6  T
   6    -50.7488109 -0.702710E-08  0.107E-03    9.30      18.4  T
speedup  0.94
cpu  time for SCC    0.00 s
wall time for SCC    0.01 s
speedup  0.99
cpu  time for grad    0.01 s
wall time for grad    0.01 s
 E :    -50.45331653  G :  0.012617    pred/act E change: -0.274D-03 -0.331D-03
Maxdispl :   0.2973   ||displ|| :   0.5113   Lambda : -0.548D-03
Largest |displ|/coords:  0.2973 (   2)  0.2813 (   1)  0.1299 (   6)
................................................................................
.............................. CYCLE   39 ......................................
................................................................................
   1    -50.7463399 -0.507463E+02  0.247E-01    9.23       0.0  T
   2    -50.7463485 -0.861832E-05  0.186E-01    9.23       1.0  T
   3    -50.7463575 -0.904551E-05  0.176E-02    9.23       1.1  T
   4    -50.7463582 -0.677666E-06  0.543E-03    9.23       3.6  T
   5    -50.7463583 -0.347553E-07  0.208E-03    9.23       9.4  T
   6    -50.7463583 -0.437031E-08  0.115E-03    9.23      17.1  T
speedup  0.94
cpu  time for SCC    0.00 s
wall time for SCC    0.01 s
speedup  0.99
cpu  time for grad    0.01 s
wall time for grad    0.01 s
 E :    -50.45357566  G :  0.014591    pred/act E change: -0.402D-03 -0.259D-03
Maxdispl :   0.0666   ||displ|| :   0.2032   Lambda : -0.558D-03
Largest |displ|/coords:  0.0666 (   1)  0.0597 (  34)  0.0596 (  29)
................................................................................
.............................. CYCLE   40 ......................................
................................................................................
   1    -50.7554025 -0.507554E+02  0.131E-01    9.33       0.0  T
   2    -50.7554150 -0.124403E-04  0.968E-02    9.33       1.0  T
   3    -50.7554225 -0.755076E-05  0.198E-02    9.33       1.0  T
   4    -50.7554239 -0.138933E-05  0.446E-03    9.33       4.4  T
   5    -50.7554239 -0.351012E-07  0.202E-03    9.33       9.7  T
   6    -50.7554239 -0.302373E-08  0.102E-03    9.33      19.1  T
speedup  0.91
cpu  time for SCC    0.01 s
wall time for SCC    0.01 s
speedup  0.98
cpu  time for grad    0.01 s
wall time for grad    0.01 s
 E :    -50.45335621  G :  0.022812    pred/act E change: -0.346D-03  0.219D-03
Maxdispl :   0.1373   ||displ|| :   0.2411   Lambda : -0.105D-02
Largest |displ|/coords:  0.1373 (   2)  0.0850 (   1)  0.0765 (   3)
................................................................................
.............................. CYCLE   41 ......................................
................................................................................
   1    -50.7472026 -0.507472E+02  0.132E-01    9.28       0.0  T
   2    -50.7472129 -0.103155E-04  0.987E-02    9.28       1.0  T
   3    -50.7472183 -0.541307E-05  0.182E-02    9.28       1.1  T
   4    -50.7472198 -0.148416E-05  0.538E-03    9.28       3.6  T
   5    -50.7472199 -0.661672E-07  0.206E-03    9.28       9.5  T
speedup  0.89
cpu  time for SCC    0.00 s
wall time for SCC    0.00 s
speedup  0.96
cpu  time for grad    0.01 s
wall time for grad    0.01 s
 E :    -50.45381989  G :  0.010084    pred/act E change: -0.290D-03 -0.464D-03
Maxdispl :   0.0821   ||displ|| :   0.1645   Lambda : -0.472D-03
Largest |displ|/coords:  0.0821 (   4)  0.0590 (   8)  0.0515 (   2)
................................................................................
.............................. CYCLE   42 ......................................
................................................................................
   1    -50.7492154 -0.507492E+02  0.146E-01    9.38       0.0  T
   2    -50.7492232 -0.780085E-05  0.110E-01    9.38       1.0  T
   3    -50.7492290 -0.582931E-05  0.167E-02    9.38       1.2  T
   4    -50.7492300 -0.100209E-05  0.484E-03    9.38       4.1  T
   5    -50.7492301 -0.393173E-07  0.174E-03    9.38      11.3  T
   6    -50.7492301 -0.245292E-08  0.952E-04    9.38      20.6  T
speedup  0.94
cpu  time for SCC    0.00 s
wall time for SCC    0.01 s
speedup  0.98
cpu  time for grad    0.01 s
wall time for grad    0.01 s
 E :    -50.45368968  G :  0.020254    pred/act E change: -0.555D-03  0.130D-03
Maxdispl :   0.0866   ||displ|| :   0.1753   Lambda : -0.695D-03
Largest |displ|/coords:  0.0866 (   1)  0.0731 (   2)  0.0539 (  13)
................................................................................
.............................. CYCLE   43 ......................................
................................................................................
   1    -50.7493443 -0.507493E+02  0.125E-01    9.24       0.0  T
   2    -50.7493506 -0.622588E-05  0.930E-02    9.24       1.0  T
   3    -50.7493551 -0.451111E-05  0.170E-02    9.24       1.2  T
   4    -50.7493558 -0.716313E-06  0.498E-03    9.24       3.9  T
   5    -50.7493558 -0.559497E-07  0.156E-03    9.24      12.5  T
speedup  0.89
cpu  time for SCC    0.00 s
wall time for SCC    0.00 s
speedup  0.98
cpu  time for grad    0.01 s
wall time for grad    0.01 s
 E :    -50.45397351  G :  0.009571    pred/act E change: -0.242D-03 -0.284D-03
Maxdispl :   0.1788   ||displ|| :   0.3275   Lambda : -0.450D-03
Largest |displ|/coords:  0.1788 (   2)  0.1607 (   1)  0.1010 (   6)
................................................................................
.............................. CYCLE   44 ......................................
................................................................................
   1    -50.7448768 -0.507449E+02  0.188E-01    9.24       0.0  T
   2    -50.7448872 -0.103991E-04  0.142E-01    9.24       1.0  T
   3    -50.7448959 -0.868765E-05  0.174E-02    9.24       1.1  T
   4    -50.7448972 -0.132216E-05  0.549E-03    9.24       3.6  T
   5    -50.7448973 -0.351484E-07  0.243E-03    9.24       8.1  T
   6    -50.7448973 -0.699391E-08  0.112E-03    9.24      17.6  T
speedup  1.11
cpu  time for SCC    0.01 s
wall time for SCC    0.01 s
speedup  1.05
cpu  time for grad    0.01 s
wall time for grad    0.01 s
 E :    -50.45371995  G :  0.025636    pred/act E change: -0.358D-03  0.254D-03
Maxdispl :   0.0903   ||displ|| :   0.1527   Lambda : -0.908D-03
Largest |displ|/coords:  0.0903 (   2)  0.0548 (   1)  0.0414 (   8)
................................................................................
.............................. CYCLE   45 ......................................
................................................................................
   1    -50.7512411 -0.507512E+02  0.120E-01    9.39       0.0  T
   2    -50.7512494 -0.829068E-05  0.891E-02    9.39       1.0  T
   3    -50.7512562 -0.674220E-05  0.182E-02    9.39       1.1  T
   4    -50.7512570 -0.791196E-06  0.552E-03    9.39       3.6  T
   5    -50.7512570 -0.451604E-07  0.179E-03    9.39      11.0  T
speedup  1.11
cpu  time for SCC    0.00 s
wall time for SCC    0.00 s
speedup  1.05
cpu  time for grad    0.01 s
wall time for grad    0.01 s
 E :    -50.45404563  G :  0.011805    pred/act E change: -0.249D-03 -0.326D-03
Maxdispl :   0.1526   ||displ|| :   0.2841   Lambda : -0.718D-03
Largest |displ|/coords:  0.1526 (   2)  0.0969 (   1)  0.0929 (   4)
................................................................................
.............................. CYCLE   46 ......................................
................................................................................
   1    -50.7458815 -0.507459E+02  0.217E-01    9.18       0.0  T
   2    -50.7458984 -0.168894E-04  0.163E-01    9.18       1.0  T
   3    -50.7459099 -0.114932E-04  0.251E-02    9.19       1.0  T
   4    -50.7459120 -0.208358E-05  0.508E-03    9.19       3.9  T
   5    -50.7459120 -0.439952E-07  0.212E-03    9.19       9.3  T
   6    -50.7459120 -0.459850E-08  0.102E-03    9.19      19.1  T
speedup  0.94
cpu  time for SCC    0.00 s
wall time for SCC    0.01 s
speedup  0.98
cpu  time for grad    0.01 s
wall time for grad    0.01 s
 E :    -50.45364269  G :  0.025161    pred/act E change: -0.465D-03  0.403D-03
Maxdispl :   0.0537   ||displ|| :   0.1416   Lambda : -0.117D-02
Largest |displ|/coords:  0.0537 (   8)  0.0474 (  12)  0.0450 (  16)
................................................................................
.............................. CYCLE   47 ......................................
................................................................................
   1    -50.7505485 -0.507505E+02  0.138E-01    9.30       0.0  T
   2    -50.7505572 -0.865379E-05  0.103E-01    9.30       1.0  T
   3    -50.7505626 -0.541376E-05  0.175E-02    9.30       1.1  T
   4    -50.7505637 -0.111993E-05  0.326E-03    9.30       6.0  T
   5    -50.7505637 -0.133092E-07  0.151E-03    9.30      13.0  T
speedup  0.89
cpu  time for SCC    0.00 s
wall time for SCC    0.00 s
speedup  0.97
cpu  time for grad    0.01 s
wall time for grad    0.01 s
 E :    -50.45422715  G :  0.004906    pred/act E change: -0.388D-03 -0.584D-03
Maxdispl :   0.0909   ||displ|| :   0.1991   Lambda : -0.157D-03
Largest |displ|/coords:  0.0909 (   1)  0.0837 (   2)  0.0645 (  10)
................................................................................
.............................. CYCLE   48 ......................................
................................................................................
   1    -50.7482779 -0.507483E+02  0.114E-01    9.34       0.0  T
   2    -50.7482800 -0.208427E-05  0.856E-02    9.34       1.0  T
   3    -50.7482820 -0.196504E-05  0.761E-03    9.34       2.6  T
   4    -50.7482822 -0.232846E-06  0.285E-03    9.34       6.9  T
   5    -50.7482822 -0.875703E-08  0.114E-03    9.34      17.1  T
speedup  0.85
cpu  time for SCC    0.00 s
wall time for SCC    0.00 s
speedup  0.96
cpu  time for grad    0.01 s
wall time for grad    0.01 s
 E :    -50.45424056  G :  0.010891    pred/act E change: -0.594D-03 -0.134D-04
Maxdispl :   0.0282   ||displ|| :   0.0659   Lambda : -0.156D-03
Largest |displ|/coords:  0.0282 (   4)  0.0237 (  14)  0.0209 (   2)
................................................................................
.............................. CYCLE   49 ......................................
................................................................................
   1    -50.7496787 -0.507497E+02  0.400E-02    9.34       0.0  T
   2    -50.7496797 -0.935902E-06  0.295E-02    9.34       1.0  T
   3    -50.7496803 -0.663477E-06  0.639E-03    9.34       3.1  T
   4    -50.7496804 -0.901467E-07  0.201E-03    9.34       9.7  T
   5    -50.7496804 -0.718362E-08  0.606E-04    9.34      32.4  T
speedup  0.89
cpu  time for SCC    0.00 s
wall time for SCC    0.00 s
speedup  0.97
cpu  time for grad    0.01 s
wall time for grad    0.01 s
 E :    -50.45433429  G :  0.005090    pred/act E change: -0.815D-04 -0.937D-04
Maxdispl :   0.1348   ||displ|| :   0.2288   Lambda : -0.197D-03
Largest |displ|/coords:  0.1348 (   2)  0.1068 (   1)  0.0540 (  13)
................................................................................
.............................. CYCLE   50 ......................................
................................................................................
   1    -50.7510497 -0.507510E+02  0.113E-01    9.31       0.0  T
   2    -50.7510519 -0.227251E-05  0.853E-02    9.31       1.0  T
   3    -50.7510540 -0.208730E-05  0.102E-02    9.31       1.9  T
   4    -50.7510543 -0.244629E-06  0.305E-03    9.31       6.4  T
   5    -50.7510543 -0.128977E-07  0.975E-04    9.31      20.1  T
   6    -50.7510543 -0.802544E-09  0.531E-04    9.31      37.0  T
speedup  0.94
cpu  time for SCC    0.00 s
wall time for SCC    0.01 s
speedup  0.98
cpu  time for grad    0.01 s
wall time for grad    0.01 s
 E :    -50.45437988  G :  0.008071    pred/act E change: -0.781D-04 -0.456D-04
Maxdispl :   0.0775   ||displ|| :   0.1675   Lambda : -0.178D-03
Largest |displ|/coords:  0.0775 (   2)  0.0628 (   1)  0.0458 (  10)
................................................................................
.............................. CYCLE   51 ......................................
................................................................................
   1    -50.7506426 -0.507506E+02  0.979E-02    9.32       0.0  T
   2    -50.7506438 -0.121515E-05  0.736E-02    9.32       1.0  T
   3    -50.7506449 -0.103975E-05  0.689E-03    9.32       2.8  T
   4    -50.7506450 -0.145992E-06  0.230E-03    9.32       8.5  T
   5    -50.7506450 -0.586682E-08  0.769E-04    9.32      25.5  T
speedup  1.11
cpu  time for SCC    0.00 s
wall time for SCC    0.00 s
speedup  1.05
cpu  time for grad    0.01 s
wall time for grad    0.01 s
 E :    -50.45450034  G :  0.006398    pred/act E change: -0.104D-03 -0.120D-03
Maxdispl :   0.1423   ||displ|| :   0.3001   Lambda : -0.234D-03
Largest |displ|/coords:  0.1423 (   2)  0.1241 (   1)  0.0934 (  10)
................................................................................
.............................. CYCLE   52 ......................................
................................................................................
   1    -50.7495367 -0.507495E+02  0.176E-01    9.41       0.0  T
   2    -50.7495414 -0.469199E-05  0.132E-01    9.41       1.0  T
   3    -50.7495446 -0.316526E-05  0.130E-02    9.41       1.5  T
   4    -50.7495453 -0.715467E-06  0.454E-03    9.41       4.3  T
   5    -50.7495453 -0.364018E-07  0.157E-03    9.41      12.5  T
   6    -50.7495453 -0.140708E-08  0.858E-04    9.41      22.9  T
speedup  1.13
cpu  time for SCC    0.01 s
wall time for SCC    0.01 s
speedup  1.06
cpu  time for grad    0.01 s
wall time for grad    0.01 s
 E :    -50.45451609  G :  0.013137    pred/act E change: -0.915D-04 -0.158D-04
Maxdispl :   0.0874   ||displ|| :   0.1548   Lambda : -0.259D-03
Largest |displ|/coords:  0.0874 (   2)  0.0548 (   1)  0.0481 (   3)

generating ANC from model Hessian ...
 Shifting diagonal of input Hessian by   4.847770890654697E-003
 Lowest  eigenvalues of input Hessian
   -0.000000   -0.000000   -0.000000    0.000000    0.000000    0.000000
    0.005000    0.005185    0.005294    0.005831    0.006334    0.006579
    0.006837    0.007157    0.007646    0.008311    0.008683    0.009288
 Highest eigenvalues
    1.405831    1.413244    1.433307    2.553414    3.477486    3.620276
 
cpu  time for ANC gen    0.02 s
wall time for ANC gen    0.02 s
................................................................................
.............................. CYCLE   53 ......................................
................................................................................
   1    -50.7493913 -0.507494E+02  0.946E-02    9.34       0.0  T
   2    -50.7493937 -0.242339E-05  0.710E-02    9.34       1.0  T
   3    -50.7493956 -0.192285E-05  0.101E-02    9.34       1.9  T
   4    -50.7493959 -0.274873E-06  0.299E-03    9.34       6.6  T
   5    -50.7493959 -0.170049E-07  0.931E-04    9.34      21.1  T
   6    -50.7493959 -0.691912E-09  0.531E-04    9.34      36.9  T
speedup  0.94
cpu  time for SCC    0.00 s
wall time for SCC    0.01 s
speedup  1.01
cpu  time for grad    0.01 s
wall time for grad    0.01 s
 E :    -50.45464252  G :  0.006372    pred/act E change:  0.000D+00 -0.126D-03
Maxdispl :   0.0632   ||displ|| :   0.1076   Lambda : -0.164D-03
Largest |displ|/coords:  0.0632 (  10)  0.0404 (   9)  0.0329 (   2)
................................................................................
.............................. CYCLE   54 ......................................
................................................................................
   1    -50.7505382 -0.507505E+02  0.987E-02    9.35       0.0  T
   2    -50.7505396 -0.136375E-05  0.749E-02    9.35       1.0  T
   3    -50.7505414 -0.180732E-05  0.583E-03    9.35       3.4  T
   4    -50.7505414 -0.453321E-07  0.184E-03    9.35      10.7  T
   5    -50.7505414 -0.324806E-08  0.776E-04    9.35      25.3  T
speedup  1.11
cpu  time for SCC    0.00 s
wall time for SCC    0.00 s
speedup  1.05
cpu  time for grad    0.01 s
wall time for grad    0.01 s
 E :    -50.45476268  G :  0.003279    pred/act E change:  0.000D+00 -0.120D-03
Maxdispl :   0.1066   ||displ|| :   0.1763   Lambda : -0.156D-03
Largest |displ|/coords:  0.1066 (  10)  0.0608 (   9)  0.0545 (   2)
................................................................................
.............................. CYCLE   55 ......................................
................................................................................
   1    -50.7509886 -0.507510E+02  0.142E-01    9.35       0.0  T
   2    -50.7509910 -0.237546E-05  0.107E-01    9.35       1.0  T
   3    -50.7509940 -0.300565E-05  0.861E-03    9.35       2.3  T
   4    -50.7509941 -0.116991E-06  0.254E-03    9.35       7.7  T
   5    -50.7509941 -0.785390E-08  0.120E-03    9.35      16.3  T
   6    -50.7509941 -0.211719E-08  0.602E-04    9.35      32.6  T
   7    -50.7509941 -0.416556E-09  0.104E-04    9.35     188.8  T
speedup  0.95
cpu  time for SCC    0.01 s
wall time for SCC    0.01 s
speedup  0.95
cpu  time for grad    0.01 s
wall time for grad    0.01 s
 E :    -50.45486556  G :  0.003801    pred/act E change: -0.829D-04 -0.103D-03
Maxdispl :   0.0681   ||displ|| :   0.1354   Lambda : -0.719D-04
Largest |displ|/coords:  0.0681 (  10)  0.0518 (   3)  0.0383 (  14)
................................................................................
.............................. CYCLE   56 ......................................
................................................................................
   1    -50.7507827 -0.507508E+02  0.107E-01    9.34       0.0  T
   2    -50.7507842 -0.144135E-05  0.811E-02    9.34       1.0  T
   3    -50.7507859 -0.167798E-05  0.672E-03    9.34       2.9  T
   4    -50.7507860 -0.975369E-07  0.212E-03    9.34       9.3  T
   5    -50.7507860 -0.458957E-08  0.877E-04    9.34      22.4  T
   6    -50.7507860 -0.117972E-08  0.486E-04    9.34      40.4  T
speedup  1.13
cpu  time for SCC    0.01 s
wall time for SCC    0.01 s
speedup  1.02
cpu  time for grad    0.01 s
wall time for grad    0.01 s
 E :    -50.45491438  G :  0.004481    pred/act E change: -0.803D-04 -0.488D-04
Maxdispl :   0.0843   ||displ|| :   0.1516   Lambda : -0.754D-04
Largest |displ|/coords:  0.0843 (   3)  0.0719 (  10)  0.0457 (  14)
................................................................................
.............................. CYCLE   57 ......................................
................................................................................
   1    -50.7510682 -0.507511E+02  0.974E-02    9.34       0.0  T
   2    -50.7510696 -0.144076E-05  0.734E-02    9.34       1.0  T
   3    -50.7510711 -0.151238E-05  0.671E-03    9.34       2.9  T
   4    -50.7510713 -0.131286E-06  0.309E-03    9.34       6.4  T
   5    -50.7510713 -0.922947E-08  0.855E-04    9.34      22.9  T
   6    -50.7510713 -0.839535E-09  0.525E-04    9.34      37.3  T
speedup  0.94
cpu  time for SCC    0.00 s
wall time for SCC    0.01 s
speedup  0.98
cpu  time for grad    0.01 s
wall time for grad    0.01 s
 E :    -50.45496455  G :  0.003248    pred/act E change: -0.366D-04 -0.502D-04
Maxdispl :   0.1050   ||displ|| :   0.1543   Lambda : -0.571D-04
Largest |displ|/coords:  0.1050 (   3)  0.0610 (   1)  0.0460 (  10)
................................................................................
.............................. CYCLE   58 ......................................
................................................................................
   1    -50.7511687 -0.507512E+02  0.870E-02    9.33       0.0  T
   2    -50.7511698 -0.111657E-05  0.658E-02    9.33       1.0  T
   3    -50.7511710 -0.122709E-05  0.567E-03    9.33       3.5  T
   4    -50.7511711 -0.944156E-07  0.267E-03    9.33       7.3  T
   5    -50.7511711 -0.670943E-08  0.712E-04    9.33      27.5  T
   6    -50.7511711 -0.564775E-09  0.436E-04    9.33      44.9  T
speedup  0.93
cpu  time for SCC    0.00 s
wall time for SCC    0.01 s
speedup  0.94
cpu  time for grad    0.01 s
wall time for grad    0.01 s
 E :    -50.45500193  G :  0.002590    pred/act E change: -0.385D-04 -0.374D-04
Maxdispl :   0.1610   ||displ|| :   0.2358   Lambda : -0.603D-04
Largest |displ|/coords:  0.1610 (   3)  0.0945 (   1)  0.0685 (  10)
................................................................................
.............................. CYCLE   59 ......................................
................................................................................
   1    -50.7498054 -0.507498E+02  0.135E-01    9.33       0.0  T
   2    -50.7498087 -0.326458E-05  0.102E-01    9.33       1.0  T
   3    -50.7498124 -0.371268E-05  0.963E-03    9.33       2.0  T
   4    -50.7498126 -0.277915E-06  0.407E-03    9.33       4.8  T
   5    -50.7498127 -0.174063E-07  0.130E-03    9.33      15.1  T
   6    -50.7498127 -0.215790E-08  0.736E-04    9.33      26.6  T
   7    -50.7498127 -0.847265E-09  0.157E-04    9.33     125.3  T
speedup  0.97
cpu  time for SCC    0.01 s
wall time for SCC    0.01 s
speedup  1.03
cpu  time for grad    0.01 s
wall time for grad    0.01 s
 E :    -50.45502827  G :  0.004938    pred/act E change: -0.292D-04 -0.263D-04
Maxdispl :   0.0926   ||displ|| :   0.1199   Lambda : -0.642D-04
Largest |displ|/coords:  0.0926 (   3)  0.0503 (   1)  0.0282 (  19)
................................................................................
.............................. CYCLE   60 ......................................
................................................................................
   1    -50.7516004 -0.507516E+02  0.473E-02    9.34       0.0  T
   2    -50.7516017 -0.131455E-05  0.352E-02    9.34       1.0  T
   3    -50.7516025 -0.824904E-06  0.712E-03    9.34       2.8  T
   4    -50.7516027 -0.168648E-06  0.217E-03    9.34       9.0  T
   5    -50.7516027 -0.112691E-07  0.721E-04    9.34      27.2  T
speedup  1.06
cpu  time for SCC    0.00 s
wall time for SCC    0.00 s
speedup  1.03
cpu  time for grad    0.01 s
wall time for grad    0.01 s
 E :    -50.45504873  G :  0.005676    pred/act E change: -0.318D-04 -0.205D-04
Maxdispl :   0.1010   ||displ|| :   0.1426   Lambda : -0.715D-04
Largest |displ|/coords:  0.1010 (   1)  0.0865 (   3)  0.0221 (   2)
................................................................................
.............................. CYCLE   61 ......................................
................................................................................
   1    -50.7518560 -0.507519E+02  0.739E-02    9.35       0.0  T
   2    -50.7518574 -0.139185E-05  0.558E-02    9.35       1.0  T
   3    -50.7518587 -0.133000E-05  0.728E-03    9.35       2.7  T
   4    -50.7518588 -0.153072E-06  0.229E-03    9.35       8.6  T
   5    -50.7518588 -0.825328E-08  0.845E-04    9.35      23.2  T
speedup  1.11
cpu  time for SCC    0.00 s
wall time for SCC    0.00 s
speedup  1.05
cpu  time for grad    0.01 s
wall time for grad    0.01 s
 E :    -50.45506487  G :  0.004958    pred/act E change: -0.325D-04 -0.161D-04
Maxdispl :   0.0272   ||displ|| :   0.0573   Lambda : -0.491D-04
Largest |displ|/coords:  0.0272 (   3)  0.0210 (   6)  0.0181 (  15)
................................................................................
.............................. CYCLE   62 ......................................
................................................................................
   1    -50.7512055 -0.507512E+02  0.486E-02    9.34       0.0  T
   2    -50.7512060 -0.456160E-06  0.369E-02    9.34       1.0  T
   3    -50.7512065 -0.566000E-06  0.342E-03    9.34       5.7  T
   4    -50.7512066 -0.293008E-07  0.113E-03    9.34      17.4  T
   5    -50.7512066 -0.156037E-08  0.479E-04    9.34      40.9  T
speedup  1.11
cpu  time for SCC    0.00 s
wall time for SCC    0.00 s
speedup  1.06
cpu  time for grad    0.01 s
wall time for grad    0.01 s
 E :    -50.45509517  G :  0.002536    pred/act E change: -0.365D-04 -0.303D-04
Maxdispl :   0.0390   ||displ|| :   0.0733   Lambda : -0.244D-04
Largest |displ|/coords:  0.0390 (   3)  0.0364 (   1)  0.0226 (   6)
................................................................................
.............................. CYCLE   63 ......................................
................................................................................
   1    -50.7514533 -0.507515E+02  0.386E-02    9.34       0.0  T
   2    -50.7514536 -0.253943E-06  0.288E-02    9.34       1.0  T
   3    -50.7514538 -0.272336E-06  0.400E-03    9.34       4.9  T
   4    -50.7514538 -0.222090E-07  0.105E-03    9.34      18.8  T
   5    -50.7514538 -0.233840E-08  0.412E-04    9.34      47.6  T
   6    -50.7514538 -0.248754E-09  0.249E-04    9.34      78.7  T
speedup  0.93
cpu  time for SCC    0.00 s
wall time for SCC    0.01 s
speedup  0.94
cpu  time for grad    0.01 s
wall time for grad    0.01 s
 E :    -50.45511166  G :  0.001940    pred/act E change: -0.246D-04 -0.165D-04
Maxdispl :   0.1318   ||displ|| :   0.2084   Lambda : -0.356D-04
Largest |displ|/coords:  0.1318 (   3)  0.1176 (   1)  0.0503 (   6)
................................................................................
.............................. CYCLE   64 ......................................
................................................................................
   1    -50.7510308 -0.507510E+02  0.102E-01    9.34       0.0  T
   2    -50.7510324 -0.158782E-05  0.765E-02    9.34       1.0  T
   3    -50.7510342 -0.176015E-05  0.961E-03    9.34       2.0  T
   4    -50.7510343 -0.142460E-06  0.294E-03    9.34       6.7  T
   5    -50.7510344 -0.130574E-07  0.102E-03    9.34      19.2  T
   6    -50.7510344 -0.121819E-08  0.604E-04    9.34      32.4  T
   7    -50.7510344 -0.490857E-09  0.134E-04    9.34     146.6  T
speedup  0.97
cpu  time for SCC    0.01 s
wall time for SCC    0.01 s
speedup  1.03
cpu  time for grad    0.01 s
wall time for grad    0.01 s
 E :    -50.45513177  G :  0.004107    pred/act E change: -0.122D-04 -0.201D-04
Maxdispl :   0.0664   ||displ|| :   0.1090   Lambda : -0.313D-04
Largest |displ|/coords:  0.0664 (   1)  0.0433 (   3)  0.0305 (   6)
................................................................................
.............................. CYCLE   65 ......................................
................................................................................
   1    -50.7518438 -0.507518E+02  0.510E-02    9.34       0.0  T
   2    -50.7518443 -0.497473E-06  0.378E-02    9.34       1.0  T
   3    -50.7518447 -0.413958E-06  0.567E-03    9.34       3.5  T
   4    -50.7518448 -0.602206E-07  0.219E-03    9.34       9.0  T
   5    -50.7518448 -0.542398E-08  0.571E-04    9.34      34.3  T
speedup  1.11
cpu  time for SCC    0.00 s
wall time for SCC    0.00 s
speedup  1.05
[...]
................................................................................
   1    -50.7557267 -0.507557E+02  0.799E-03    9.31       0.0  T
   2    -50.7557267 -0.125175E-07  0.597E-03    9.31       3.3  T
   3    -50.7557268 -0.862394E-08  0.937E-04    9.31      20.9  T
   4    -50.7557268 -0.187897E-08  0.303E-04    9.31      64.7  T
speedup  1.08
cpu  time for SCC    0.00 s
wall time for SCC    0.00 s
speedup  0.98
cpu  time for grad    0.01 s
wall time for grad    0.01 s
 E :    -50.46390334  G :  0.000243    pred/act E change: -0.201D-06 -0.267D-06
Maxdispl :   0.0070   ||displ|| :   0.0128   Lambda : -0.435D-06
Largest |displ|/coords:  0.0070 (   1)  0.0046 (  37)  0.0036 (  14)
................................................................................
.............................. CYCLE  192 ......................................
................................................................................
   1    -50.7557499 -0.507557E+02  0.101E-02    9.31       0.0  T
   2    -50.7557499 -0.197322E-07  0.754E-03    9.31       2.6  T
   3    -50.7557499 -0.119648E-07  0.129E-03    9.31      15.2  T
   4    -50.7557499 -0.299688E-08  0.400E-04    9.31      49.1  T
   5    -50.7557499 -0.141661E-09  0.668E-05    9.31     293.7  T
speedup  1.09
cpu  time for SCC    0.00 s
wall time for SCC    0.00 s
speedup  0.99
cpu  time for grad    0.01 s
wall time for grad    0.01 s
 E :    -50.46390366  G :  0.000250    pred/act E change: -0.172D-06 -0.323D-06
Maxdispl :   0.0053   ||displ|| :   0.0117   Lambda : -0.440D-06
Largest |displ|/coords:  0.0053 (  37)  0.0036 (   1)  0.0034 (  13)
................................................................................
.............................. CYCLE  193 ......................................
................................................................................
   1    -50.7557301 -0.507557E+02  0.110E-02    9.31       0.0  T
   2    -50.7557301 -0.219422E-07  0.818E-03    9.31       2.4  T
   3    -50.7557301 -0.118925E-07  0.141E-03    9.31      13.9  T
   4    -50.7557301 -0.340754E-08  0.438E-04    9.31      44.8  T
   5    -50.7557301 -0.153932E-09  0.630E-05    9.31     311.4  T
speedup  0.89
cpu  time for SCC    0.00 s
wall time for SCC    0.00 s
speedup  1.01
cpu  time for grad    0.01 s
wall time for grad    0.01 s
 E :    -50.46390398  G :  0.000273    pred/act E change: -0.218D-06 -0.321D-06
Maxdispl :   0.0060   ||displ|| :   0.0122   Lambda : -0.492D-06
Largest |displ|/coords:  0.0060 (   4)  0.0059 (  37)  0.0038 (  13)
................................................................................
.............................. CYCLE  194 ......................................
................................................................................
   1    -50.7556847 -0.507557E+02  0.115E-02    9.31       0.0  T
   2    -50.7556847 -0.229957E-07  0.855E-03    9.31       2.3  T
   3    -50.7556848 -0.106522E-07  0.144E-03    9.31      13.6  T
   4    -50.7556848 -0.371783E-08  0.466E-04    9.31      42.1  T
   5    -50.7556848 -0.155623E-09  0.587E-05    9.31     334.2  T
speedup  0.87
cpu  time for SCC    0.00 s
wall time for SCC    0.00 s
speedup  0.98
cpu  time for grad    0.01 s
wall time for grad    0.01 s
 E :    -50.46390435  G :  0.000326    pred/act E change: -0.220D-06 -0.368D-06
Maxdispl :   0.0087   ||displ|| :   0.0158   Lambda : -0.594D-06
Largest |displ|/coords:  0.0087 (   4)  0.0073 (  37)  0.0044 (   1)
................................................................................
.............................. CYCLE  195 ......................................
................................................................................
   1    -50.7556250 -0.507556E+02  0.139E-02    9.31       0.0  T
   2    -50.7556250 -0.354657E-07  0.103E-02    9.31       1.9  T
   3    -50.7556251 -0.142465E-07  0.170E-03    9.31      11.5  T
   4    -50.7556251 -0.612810E-08  0.576E-04    9.31      34.1  T
   5    -50.7556251 -0.208196E-09  0.687E-05    9.31     285.4  T
speedup  0.89
cpu  time for SCC    0.00 s
wall time for SCC    0.00 s
speedup  1.00
cpu  time for grad    0.01 s
wall time for grad    0.01 s
 E :    -50.46390478  G :  0.000387    pred/act E change: -0.246D-06 -0.423D-06
Maxdispl :   0.0068   ||displ|| :   0.0142   Lambda : -0.490D-06
Largest |displ|/coords:  0.0068 (   4)  0.0064 (  37)  0.0056 (   1)
................................................................................
.............................. CYCLE  196 ......................................
................................................................................
   1    -50.7555973 -0.507556E+02  0.119E-02    9.31       0.0  T
   2    -50.7555974 -0.284857E-07  0.886E-03    9.31       2.2  T
   3    -50.7555974 -0.105855E-07  0.141E-03    9.31      13.9  T
   4    -50.7555974 -0.526659E-08  0.500E-04    9.31      39.2  T
   5    -50.7555974 -0.145775E-09  0.593E-05    9.31     330.5  T
speedup  1.11
cpu  time for SCC    0.00 s
wall time for SCC    0.00 s
speedup  1.00
cpu  time for grad    0.01 s
wall time for grad    0.01 s
 E :    -50.46390513  G :  0.000363    pred/act E change: -0.297D-06 -0.358D-06
Maxdispl :   0.0062   ||displ|| :   0.0129   Lambda : -0.434D-06
Largest |displ|/coords:  0.0062 (  37)  0.0054 (   1)  0.0039 (   4)
................................................................................
.............................. CYCLE  197 ......................................
................................................................................
   1    -50.7556060 -0.507556E+02  0.112E-02    9.31       0.0  T
   2    -50.7556060 -0.287264E-07  0.838E-03    9.31       2.3  T
   3    -50.7556060 -0.960114E-08  0.135E-03    9.31      14.5  T
   4    -50.7556060 -0.557517E-08  0.464E-04    9.31      42.3  T
   5    -50.7556060 -0.123940E-09  0.534E-05    9.31     367.3  T
speedup  1.11
cpu  time for SCC    0.00 s
wall time for SCC    0.00 s
speedup  1.07
cpu  time for grad    0.01 s
wall time for grad    0.01 s
 E :    -50.46390544  G :  0.000263    pred/act E change: -0.245D-06 -0.309D-06
Maxdispl :   0.0050   ||displ|| :   0.0101   Lambda : -0.302D-06
Largest |displ|/coords:  0.0050 (  37)  0.0043 (   1)  0.0024 (  18)
................................................................................
.............................. CYCLE  198 ......................................
................................................................................
   1    -50.7556394 -0.507556E+02  0.895E-03    9.31       0.0  T
   2    -50.7556394 -0.189630E-07  0.670E-03    9.31       2.9  T
   3    -50.7556394 -0.648865E-08  0.107E-03    9.31      18.4  T
   4    -50.7556394 -0.374219E-08  0.340E-04    9.31      57.7  T
   5    -50.7556394 -0.765468E-10  0.433E-05    9.31     452.5  T
speedup  1.14
cpu  time for SCC    0.00 s
wall time for SCC    0.00 s
speedup  1.01
cpu  time for grad    0.01 s
wall time for grad    0.01 s
 E :    -50.46390566  G :  0.000159    pred/act E change: -0.217D-06 -0.217D-06
Maxdispl :   0.0043   ||displ|| :   0.0085   Lambda : -0.215D-06
Largest |displ|/coords:  0.0043 (   1)  0.0040 (  37)  0.0024 (   9)
................................................................................
.............................. CYCLE  199 ......................................
................................................................................
   1    -50.7556705 -0.507557E+02  0.742E-03    9.31       0.0  T
   2    -50.7556705 -0.117110E-07  0.556E-03    9.31       3.5  T
   3    -50.7556706 -0.458311E-08  0.825E-04    9.31      23.8  T
   4    -50.7556706 -0.229194E-08  0.248E-04    9.31      79.2  T
speedup  1.08
cpu  time for SCC    0.00 s
wall time for SCC    0.00 s
speedup  0.98
cpu  time for grad    0.01 s
wall time for grad    0.01 s
 E :    -50.46390581  G :  0.000134    pred/act E change: -0.151D-06 -0.149D-06
Maxdispl :   0.0042   ||displ|| :   0.0065   Lambda : -0.124D-06
Largest |displ|/coords:  0.0042 (   1)  0.0023 (   9)  0.0020 (   8)
................................................................................
.............................. CYCLE  200 ......................................
................................................................................
   1    -50.7556854 -0.507557E+02  0.443E-03    9.31       0.0  T
   2    -50.7556854 -0.210371E-08  0.333E-03    9.31       5.9  T
   3    -50.7556854 -0.166637E-08  0.307E-04    9.31      64.0  T
   4    -50.7556854 -0.290747E-09  0.105E-04    9.31     186.1  T
speedup  1.08
cpu  time for SCC    0.00 s
wall time for SCC    0.00 s
speedup  0.98
cpu  time for grad    0.01 s
wall time for grad    0.01 s
 E :    -50.46390590  G :  0.000143    pred/act E change: -0.107D-06 -0.902D-07
Maxdispl :   0.0033   ||displ|| :   0.0062   Lambda : -0.831D-07
Largest |displ|/coords:  0.0033 (   1)  0.0021 (  37)  0.0021 (   9)

   *** GEOMETRY OPTIMIZATION CONVERGED AFTER 200 ITERATIONS ***

------------------------------------------------------------------------
 total energy gain (kcal):     -0.0030
------------------------------------------------------------------------
================
 final structure:
================
$coord
        0.67967543169889        2.16378264830824        3.56945004547780      S 
        0.59761550681130       -0.34869506955739        2.46543588341720      O 
       -0.99489976459347        3.89553946175271        2.22628773853384      O 
        3.19115672800358        3.16402781278728        3.92359644939075      O 
       -0.48443394553439        1.84014986049868        6.32509825183711      O 
        0.14751304340821        3.28153177188794        7.19648377493768      H 
        3.93416024533821        3.02904189506586        0.89477403158207      H 
        0.88124315566987        1.54279575234284       -4.30396637773509      O 
        1.30299616468882        2.44572321761270       -5.81533674062922      H 
       -3.69265058014091       -2.67780452336110        1.11872936940329      O 
       -2.22263358295248       -2.10290770054489        2.07497548890545      H 
       -1.30230657983529       -6.19504697557503       -1.64780662969594      O 
        0.23075997130863       -5.13955892072048       -1.75256378392857      H 
       -0.81384308583812       -7.71278003474068       -0.79076522991056      H 
        4.31232991064784        2.58386957104874       -0.86553699234526      O 
        2.08959772093460        2.12996532187430       -2.99375995089014      H 
        5.26040223673492        1.03508675860286       -0.77244047891287      H 
        2.47585761944328       -2.85114514464561       -1.55956606338286      O 
       -3.08292800580712       -4.10410366521763        0.09437046131226      H 
        1.99550630332038       -1.69508908374654       -2.88766311555852      H 
        1.98016572333180       -2.02274888349544        0.01323938096010      H 
       -3.34392319877924        1.55525364864337       -1.35474765726449      N 
       -3.71396351907265       -0.27152644088591       -0.53773971453775      H 
       -2.49951796981384        2.63763915077850        0.13456739112147      H 
       -1.98494403904905        1.42478761194196       -2.75946930706101      H 
       -4.94293552763468        2.39221197821800       -1.99564622500490      H 
$end
 
 Bond Distances (Angstroems)
 ---------------------------
S1-O2=1.4529         S1-O3=1.4595         S1-O4=1.4428         S1-O5=1.5922         O2-S1=1.4529         O3-S1=1.4595         
O4-S1=1.4428         O5-S1=1.5922         O5-H6=0.9520         H6-O5=0.9520         H7-O15=0.9815        O8-H9=0.9580         
O8-H16=0.9930        H9-O8=0.9580         O10-H11=0.9766       O10-H19=0.9837       H11-O10=0.9766       O12-H13=0.9865       
O12-H14=0.9579       H13-O12=0.9865       H14-O12=0.9579       O15-H7=0.9815        O15-H17=0.9622       H16-O8=0.9930        
H17-O15=0.9622       O18-H20=0.9658       O18-H21=0.9766       H19-O10=0.9837       H20-O18=0.9658       H21-O18=0.9766       
N22-H23=1.0769       N22-H24=1.0718       N22-H25=1.0366       N22-H26=1.0135       H23-N22=1.0769       H24-N22=1.0718       
H25-N22=1.0366       H26-N22=1.0135       
 N  H  Rav=1.0497 sigma=0.0260  Rmin=1.0135  Rmax=1.0769     4
 O  H  Rav=0.9722 sigma=0.0130  Rmin=0.9520  Rmax=0.9930    11
 S  O  Rav=1.4869 sigma=0.0611  Rmin=1.4428  Rmax=1.5922     4
 
 selected bond angles (degree)
 --------------------
O3-S1-O2=111.14                O4-S1-O2=114.55                O4-S1-O3=113.09                O5-S1-O2=104.97                
O5-S1-O3=106.18                O5-S1-O4=106.07                H6-O5-S1=102.80                H16-O8-H9=106.07               
H19-O10-H11=105.27             
 
 selected dihedral angles (degree)
 ---------------------------------
H6-O5-S1-O2=159.30            H6-O5-S1-O3=277.09            H6-O5-S1-O4= 37.66            
 
 CMA Distance (Angstroems)
 ---------------------------
R(CMA):  3.2185

========================================================================
 FINAL SINGLEPOINT CALCULATION ON OPTIMIZED GEOMETRY
========================================================================

 Ncao       : 65
 Nao        : 64
 Nshell     : 38
 Nel        : 80
 T(el)      :   300.0
 intcut     :    25.0
 scfconv/Eh :  0.100E-05
   qconv/e  :  0.100E-03
 intneglect :  0.100E-07
 broydamp   :      0.250
 iter      E             dE          RMSdq      gap      omega  full diag
   1    -50.7556854 -0.507557E+02  0.354E-05    9.31       0.0  T
   2    -50.7556854 -0.895284E-12  0.228E-05    9.31     859.7  T
   3    -50.7556854 -0.561329E-12  0.500E-06    9.31    3923.2  T
speedup  0.74
cpu  time for SCC    0.00 s
wall time for SCC    0.00 s

   *** convergence criteria satisfied after 3 iterations ***

          eigenvalues
 #    :          28         29         30         31         32         33         34         35
 occ. :        2.000      2.000      2.000      2.000      2.000      2.000      2.000      2.000
 eps  :       -13.467    -13.234    -12.625    -12.406    -12.274    -12.149    -12.069    -11.979
 #    :          36         37         38         39         40         41         42         43
 occ. :        2.000      2.000      2.000      2.000      2.000      0.000      0.000      0.000
 eps  :       -11.913    -11.855    -11.832    -11.784    -11.654     -2.342     -0.816     -0.410
 #    :          44         45         46         47         48         49         50         51
 occ. :        0.000      0.000      0.000      0.000      0.000      0.000      0.000      0.000
 eps  :         0.672      1.201      1.454      1.861      3.438      4.025      4.304      4.752


   #   Z            q   n(s)   n(p)   n(d)      C6AA      α(0)
   1  16 S      1.664  1.587  1.792  0.958    89.586    15.930
   2   8 O     -0.740  1.757  4.983  0.000    29.826     7.322
   3   8 O     -0.732  1.767  4.964  0.000    29.578     7.292
   4   8 O     -0.728  1.774  4.955  0.000    29.492     7.281
   5   8 O     -0.592  1.751  4.841  0.000    24.953     6.744
   6   1 H      0.343  0.657  0.000  0.000     0.597     1.210
   7   1 H      0.322  0.678  0.000  0.000     0.659     1.275
   8   8 O     -0.626  1.744  4.882  0.000    25.826     6.859
   9   1 H      0.288  0.712  0.000  0.000     0.759     1.368
  10   8 O     -0.618  1.757  4.862  0.000    25.628     6.833
  11   1 H      0.321  0.679  0.000  0.000     0.661     1.277
  12   8 O     -0.616  1.752  4.864  0.000    25.567     6.824
  13   1 H      0.329  0.671  0.000  0.000     0.640     1.257
  14   1 H      0.280  0.720  0.000  0.000     0.785     1.392
  15   8 O     -0.622  1.743  4.879  0.000    25.732     6.846
  16   1 H      0.342  0.658  0.000  0.000     0.607     1.224
  17   1 H      0.306  0.694  0.000  0.000     0.705     1.318
  18   8 O     -0.627  1.757  4.870  0.000    25.845     6.861
  19   1 H      0.333  0.667  0.000  0.000     0.631     1.248
  20   1 H      0.311  0.689  0.000  0.000     0.689     1.304
  21   1 H      0.325  0.675  0.000  0.000     0.650     1.266
  22   7 N     -0.356  1.279  4.076  0.000    29.142     8.018
  23   1 H      0.299  0.701  0.000  0.000     0.716     1.325
  24   1 H      0.295  0.705  0.000  0.000     0.726     1.334
  25   1 H      0.276  0.724  0.000  0.000     0.789     1.392
  26   1 H      0.223  0.777  0.000  0.000     0.994     1.562

 Mol. C6AA /au·bohr⁶  :       5445.382769
 Mol. C8AA /au·bohr⁸  :     117875.924043
 Mol. α(0) /au        :        106.563235

 
 Wiberg/Mayer (AO) data. WBOs > 0.1 written file <wbo>
 largest (>0.05) Wiberg bond orders for each atom
           total WBO             WBO to atom ...
     1  S   4.868    O    4 1.345    O    2 1.315    O    3 1.281    O    5 0.885
     2  O   1.720    S    1 1.315    O    3 0.111    O    4 0.108    O    5 0.061
     3  O   1.754    S    1 1.281    H   24 0.128    O    2 0.111    O    4 0.107    O    5 0.073    N   22 0.050
     4  O   1.742    S    1 1.345    O    2 0.108    O    3 0.107    O    5 0.078    H    7 0.065
     5  O   1.967    S    1 0.885    H    6 0.866    O    4 0.078    O    3 0.073    O    2 0.061
     6  H   0.882    O    5 0.866
     7  H   0.896    O   15 0.822    O    4 0.065
     8  O   1.873    H    9 0.909    H   16 0.799    H   25 0.064
     9  H   0.917    O    8 0.909
    10  O   1.946    H   11 0.851    H   19 0.824    H   23 0.145    N   22 0.068
    11  H   0.897    O   10 0.851
    12  O   1.866    H   14 0.919    H   13 0.819    H   19 0.063
    13  H   0.892    O   12 0.819    O   18 0.072
    14  H   0.922    O   12 0.919
    15  O   1.877    H   17 0.900    H    7 0.822    H   16 0.079
    16  H   0.883    O    8 0.799    O   15 0.079
    17  H   0.907    O   15 0.900
    18  O   1.877    H   20 0.878    H   21 0.845    H   13 0.072
    19  H   0.889    O   10 0.824    O   12 0.063
    20  H   0.903    O   18 0.878
    21  H   0.894    O   18 0.845
    22  N   3.513    H   26 0.947    H   25 0.856    H   24 0.777    H   23 0.761    O   10 0.068    O    3 0.050
    23  H   0.911    N   22 0.761    O   10 0.145
    24  H   0.913    N   22 0.777    O    3 0.128
    25  H   0.924    N   22 0.856    O    8 0.064
    26  H   0.950    N   22 0.947
 MOs/occ written to file <molden.input>
 
molecular dipole:
                 x           y           z       tot (Debye)
 q only:       -1.250       0.146      -1.597
   full:       -0.719       0.461      -1.024       3.388
molecular quadrupole (traceless):
                xx          xy          yy          xz          yz          zz
 q only:       -0.290      -9.340      -3.135       1.254      -6.907       3.425
  q+dip:       -4.284     -10.850      -2.630       2.176      -6.534       6.914
   full:       -4.718     -10.886      -2.780       2.160      -6.422       7.498

SCC energy    :     -50.7556854
rep           :       0.2914374
ES            :       0.2640877
AES           :      -0.0726700
AXC           :      -0.0083193
disp          :      -0.0189844
XB            :       0.0000000
fix           :       0.0000000
total E       :     -50.4639059
atomizationE  :       4.9942101     3133.91
(atE without considering molecular charge,
 total energy contains solvation terms)
H-L gap (eV)  :          9.3123
optimized geometry written to: xtbopt.xyz


------------------------------------------------------------------------
 * finished run on 2019/09/16 at 12:17:30.590     
------------------------------------------------------------------------
 total:
 * wall-time:     0 d,  0 h,  0 min,  4.256 sec
 *  cpu-time:     0 d,  0 h,  0 min,  4.228 sec
 * ratio c/w:     0.993 speedup
 SCF:
 * wall-time:     0 d,  0 h,  0 min,  0.160 sec
 *  cpu-time:     0 d,  0 h,  0 min,  0.156 sec
 * ratio c/w:     0.976 speedup
 ANC optimizer:
 * wall-time:     0 d,  0 h,  0 min,  4.070 sec
 *  cpu-time:     0 d,  0 h,  0 min,  4.047 sec
 * ratio c/w:     0.995 speedup

