      -----------------------------------------------------------      
     |                   =====================                   |     
     |                           x T B                           |     
     |                   =====================                   |     
     |                         S. Grimme                         |     
     |          Mulliken Center for Theoretical Chemistry        |     
     |                    University of Bonn                     |     
     |                 Version 6.0.1 (SAW181210)                 |     
      -----------------------------------------------------------      

   This program is distributed in the hope that it will be useful,
   but WITHOUT ANY WARRANTY; without even the implied warranty of
   MERCHANTABILITY or FITNESS FOR A PARTICULAR PURPOSE.
   
   FOR NON-COMMERCIAL, ACADEMIA USE ONLY.
   
   Cite this work as:
   S. Grimme, C. Bannwarth, P. Shushkov, J. Comput. Theory Chem., 2017,
   13, 1989-2009.
   C. Bannwarth, S. Ehlert and S. Grimme., ChemRxiv, 2018, preprint.
   http://doi.org/10.26434/chemrxiv.7246238.v1
   
   for sTDA-xTB:
   S. Grimme and C. Bannwarth, J. Chem. Phys., 2016, 145, 054103.
   
   in the mass-spec context:
   V. Asgeirsson, C. Bauer and S. Grimme, Chem. Sci., 2017, 8, 4879.
   
   if GBSA is used:
   P. Shushkov, F. März and S. Grimme, unpublished.
   
   for ANC optimizer:
   S. Grimme, unpublished.
   Rational Function algorithm used in ANCopt:
   F. Eckert, P. Pulay, H.-J. Werner, J. Comput. Chem., 1997, 18, 1473.
   
   with help from (in alphabetical order)
   C. Bannwarth, F. Bohle, G. Brandenburg, E. Caldeweyher, M. Checinski,
   S. Dohm, S. Ehlert, S. Ehrlich, F. März, H. Neugebauer, J. Pisarek,
   P. Pracht, P. Shushkov, and S. Spicher.
   
 * started run on 2019/09/16 at 12:11:02.552     
========================================================================
 # omp threads = 1
========================================================================
number of atoms            : 26
number of electrons        : 80
charge                     : 0
spin                       : .0
first test random number   : .7153

########################################################################
# WARNING! Please study the warnings concerning your input carefully
#  - XTBPATH is not set, using XTBHOME instead
#  - the use of '-opt' is discouraged, please use '--opt' next time
#  - the use of '-chrg' is discouraged, please use '--chrg' next time
#  - the use of '-uhf' is discouraged, please use '--uhf' next time
########################################################################

           ------------------------------------------------- 
          |                 G F N 2 - x T B                 |
          | Geometry, Frequencies, Noncovalent interactions |
          |            JCTC 2018 parametrisation            |
           ------------------------------------------------- 
      method parameters     
 k(s)        :  1.8500
 k(p)        :  2.2300
 k(d)        :  2.2300
 k(f)        :  2.0000
 kEN (H0ij)  : -2.0000
 D4 a1       :  0.5200
 D4 a2       :  5.0000
 D4 s6       :  1.0000
 D4 s8       :  2.7000
 D4 s9       :  5.0000
 alphaj      :  2.0000


            Z     q(EN)     CN     RAES       Cart. coordinates
     1  S   6.0    0.68    4.10    3.85     2.39342    -1.49925     2.54603
     2  O   6.0   -0.34    1.24    1.80     0.32032     0.36637     2.93315
     3  O   6.0   -0.33    1.28    1.80     1.34395    -3.84186     1.38892
     4  O   6.0   -0.31    1.22    1.80     4.33974    -0.39800     0.83513
     5  O   6.0   -0.26    1.11    1.80     3.56966    -2.12352     5.02693
     6  O   6.0   -0.40    1.68    1.81    -0.04368    -0.51180    -4.03336
     7  H   1.0    0.17    0.95    1.42    -0.73602    -0.21874    -5.74174
     8  O   6.0   -0.30    2.04    1.83    -0.40765     5.13778     1.65309
     9  H   1.0    0.17    1.05    1.44    -0.26296     3.51473     2.46512
    10  H   1.0    0.15    0.97    1.43    -0.53115     6.34559     3.00976
    11  O   6.0   -0.22    2.93    2.60    -2.80769    -2.43803    -0.90650
    12  H   1.0    0.15    1.06    1.44    -1.62637    -3.39145     0.18223
    13  H   1.0    0.12    1.07    1.44    -3.85660    -1.24405     0.07545
    14  H   1.0    0.16    1.17    1.46    -1.92744    -1.59382    -2.32212
    15  O   6.0   -0.22    2.92    2.60     2.12659     2.96456    -1.96192
    16  H   1.0    0.15    1.06    1.44     3.41320     2.09057    -0.92720
    17  H   1.0    0.16    1.17    1.46     1.12287     1.76900    -2.98817
    18  H   1.0    0.14    1.04    1.44     1.04115     4.08237    -0.93051
    19  O   6.0   -0.22    2.91    2.57     3.22058    -3.63105    -3.18970
    20  H   1.0    0.16    1.16    1.46     1.93454    -2.44444    -3.84384
    21  H   1.0    0.13    0.96    1.43     4.90349    -2.83226    -3.04914
    22  H   1.0    0.15    1.04    1.44     2.68747    -4.42462    -1.58422
    23  N   5.0   -0.22    3.05    1.93    -5.09973     0.77082     2.37164
    24  H   1.0    0.12    1.02    1.43    -3.31374     0.78468     3.09350
    25  H   1.0    0.11    0.99    1.43    -6.23533     0.14696     3.79722
    26  H   1.0    0.11    0.99    1.43    -5.56863     2.61948     2.10023

  Z AO/shell   Hii/eV     exponent
  1     Wed Apr 25 08:07:45 CEST 2018   EN: 2.200 GM2: 0.406  GM3: 0.0800  RAES: 1.40
     1s    -10.707211    1.230000
  7     Wed Apr 25 08:07:45 CEST 2018   EN: 3.040 GM2: 0.461  GM3:-0.0640  RAES: 1.90
     2s    -16.686243    2.339881
     2p    -12.523956    2.014332
  8     Wed Apr 25 08:07:45 CEST 2018   EN: 3.440 GM2: 0.452  GM3:-0.0517  RAES: 1.80
     2s    -20.229985    2.439742
     2p    -15.503117    2.137023
 16     Tue Apr 24 11:44:34 CEST 2018   EN: 2.580 GM2: 0.340  GM3:-0.0502  RAES: 3.10
     3s    -20.029654    1.981333
     3p    -11.377694    2.025643
     3d     -0.420282    1.702555
 no old-style atom pair restraining (fixing) potential

molecular fragmentation (1/2 indicates fragments):
11111222222222222222222222
# atoms in fragment 1/2:     5    21
 fragment masses (1/2) :       96.06      109.12
CMA distance (Bohr)    :   4.900
constraining FC (au)   :  0.0500
           ------------------------------------------------- 
          |        Self-Consistent Charge Iterations        |
           ------------------------------------------------- 

 Ncao       : 65
 Nao        : 64
 Nshell     : 38
 Nel        : 80
 T(el)      :   300.0
 intcut     :    25.0
 scfconv/Eh :  0.100E-05
   qconv/e  :  0.100E-03
 intneglect :  0.100E-07
 broydamp   :      0.250
 iter      E             dE          RMSdq      gap      omega  full diag
   1    -50.5405818 -0.505406E+02  0.698E+00   10.16       0.0  T
   2    -50.5807689 -0.401871E-01  0.502E+00    9.58       1.0  T
   3    -50.6132117 -0.324428E-01  0.115E+00    6.64       1.0  T
   4    -50.6179924 -0.478072E-02  0.478E-01    6.80       1.0  T
   5    -50.6183327 -0.340272E-03  0.299E-01    6.59       1.0  T
   6    -50.6187468 -0.414116E-03  0.128E-01    6.61       1.0  T
   7    -50.6188410 -0.941378E-04  0.526E-02    6.71       1.0  T
   8    -50.6188537 -0.127383E-04  0.322E-02    6.71       1.0  T
   9    -50.6188596 -0.588309E-05  0.128E-02    6.71       1.5  T
  10    -50.6188605 -0.913226E-06  0.221E-03    6.71       8.9  T
  11    -50.6188605 -0.210287E-07  0.878E-04    6.71      22.3  T
  12    -50.6188605 -0.212390E-08  0.399E-04    6.71      49.1  T
speedup  1.04
cpu  time for SCC    0.02 s
wall time for SCC    0.02 s

   *** convergence criteria satisfied after 12 iterations ***

          eigenvalues
 #    :          28         29         30         31         32         33         34         35
 occ. :        2.000      2.000      2.000      2.000      2.000      2.000      2.000      2.000
 eps  :       -12.176    -11.958    -11.919    -11.799    -11.420    -10.710    -10.655    -10.022
 #    :          36         37         38         39         40         41         42         43
 occ. :        2.000      2.000      2.000      2.000      2.000      0.000      0.000      0.000
 eps  :       -10.010     -9.756     -9.415     -8.615     -8.575     -1.869     -0.310      0.209
 #    :          44         45         46         47         48         49         50         51
 occ. :        0.000      0.000      0.000      0.000      0.000      0.000      0.000      0.000
 eps  :         0.547      1.633      2.479      2.728      2.960      3.464      4.334      5.004


   #   Z            q   n(s)   n(p)   n(d)      C6AA      α(0)
   1  16 S      1.471  1.608  1.917  1.004    94.167    16.332
   2   8 O     -0.813  1.773  5.040  0.000    31.969     7.581
   3   8 O     -0.801  1.776  5.025  0.000    31.615     7.539
   4   8 O     -0.805  1.775  5.030  0.000    31.732     7.553
   5   8 O     -0.752  1.795  4.957  0.000    30.174     7.365
   6   8 O     -0.834  1.825  5.009  0.000    32.579     7.654
   7   1 H      0.222  0.778  0.000  0.000     1.012     1.581
   8   8 O     -0.626  1.733  4.893  0.000    25.822     6.858
   9   1 H      0.342  0.658  0.000  0.000     0.608     1.224
  10   1 H      0.286  0.714  0.000  0.000     0.765     1.374
  11   8 O     -0.451  1.651  4.800  0.000    21.805     6.307
  12   1 H      0.398  0.602  0.000  0.000     0.488     1.097
  13   1 H      0.384  0.616  0.000  0.000     0.515     1.127
  14   1 H      0.398  0.602  0.000  0.000     0.483     1.090
  15   8 O     -0.454  1.655  4.799  0.000    21.867     6.316
  16   1 H      0.401  0.599  0.000  0.000     0.483     1.092
  17   1 H      0.397  0.603  0.000  0.000     0.485     1.092
  18   1 H      0.400  0.600  0.000  0.000     0.484     1.093
  19   8 O     -0.416  1.645  4.771  0.000    21.103     6.204
  20   1 H      0.409  0.591  0.000  0.000     0.465     1.069
  21   1 H      0.386  0.614  0.000  0.000     0.512     1.124
  22   1 H      0.410  0.590  0.000  0.000     0.467     1.073
  23   7 N     -0.465  1.384  4.081  0.000    32.259     8.435
  24   1 H      0.209  0.791  0.000  0.000     1.060     1.613
  25   1 H      0.150  0.850  0.000  0.000     1.399     1.853
  26   1 H      0.152  0.848  0.000  0.000     1.387     1.845

 Mol. C6AA /au·bohr⁶  :       5550.152317
 Mol. C8AA /au·bohr⁸  :     120694.596874
 Mol. α(0) /au        :        107.491571

 
 Wiberg/Mayer (AO) data. WBOs > 0.1 written file <wbo>
 largest (>0.05) Wiberg bond orders for each atom
           total WBO             WBO to atom ...
     1  S   5.025    O    5 1.363    O    2 1.228    O    4 1.223    O    3 1.177
     2  O   1.640    S    1 1.228    O    5 0.100    O    4 0.093    O    3 0.086    H    9 0.061
     3  O   1.698    S    1 1.177    O    5 0.092    H   12 0.091    O    4 0.089    H   22 0.087    O    2 0.086
     4  O   1.659    S    1 1.223    H   16 0.100    O    5 0.098    O    2 0.093    O    3 0.089
     5  O   1.669    S    1 1.363    O    2 0.100    O    4 0.098    O    3 0.092
     6  O   1.668    H    7 0.944    H   20 0.184    H   14 0.174    H   17 0.172    O   19 0.059    O   11 0.058    O   15 0.057
     7  H   0.951    O    6 0.944
     8  O   1.850    H   10 0.906    H    9 0.815    H   18 0.069
     9  H   0.883    O    8 0.815    O    2 0.061
    10  H   0.918    O    8 0.906
    11  O   2.294    H   13 0.750    H   12 0.741    H   14 0.663    O    6 0.058
    12  H   0.841    O   11 0.741    O    3 0.091
    13  H   0.852    O   11 0.750    N   23 0.093
    14  H   0.841    O   11 0.663    O    6 0.174
    15  O   2.291    H   18 0.761    H   16 0.730    H   17 0.665    O    6 0.057
    16  H   0.839    O   15 0.730    O    4 0.100
    17  H   0.842    O   15 0.665    O    6 0.172
    18  H   0.840    O   15 0.761    O    8 0.069
    19  O   2.319    H   21 0.837    H   22 0.735    H   20 0.645    O    6 0.059
    20  H   0.833    O   19 0.645    O    6 0.184
    21  H   0.851    O   19 0.837
    22  H   0.832    O   19 0.735    O    3 0.087
    23  N   3.022    H   25 0.973    H   26 0.972    H   24 0.921    H   13 0.093
    24  H   0.956    N   23 0.921
    25  H   0.977    N   23 0.973
    26  H   0.977    N   23 0.972
 MOs/occ written to file <molden.input>
 
molecular dipole:
                 x           y           z       tot (Debye)
 q only:       -2.134       0.964      -4.541
   full:       -2.125       1.269      -3.772      11.467
molecular quadrupole (traceless):
                xx          xy          yy          xz          yz          zz
 q only:        2.683       3.293       9.121     -27.011      17.989     -11.804
  q+dip:        1.571       0.011       6.515     -28.348      19.468      -8.086
   full:        1.447      -0.021       6.669     -28.293      19.261      -8.116

SCC energy    :     -50.6188605
rep           :       0.2764571
ES            :       0.3687259
AES           :      -0.0809762
AXC           :      -0.0084609
disp          :      -0.0199043
XB            :       0.0000000
fix           :       0.0000000
total E       :     -50.3420360
atomizationE  :       4.8723402     3057.44
(atE without considering molecular charge,
 total energy contains solvation terms)
H-L gap (eV)  :          6.7057
           ------------------------------------------------- 
          |                 ===============                 |
          |                   A N C O P T                   |
          |                 ===============                 |
          |          Approximate Normal Coordinate          |
          |           Rational Function Optimizer           |
           ------------------------------------------------- 
dumping coords to <xtbopt.coord> and <xtbopt.log>
 optlevel               2
 Maxcycle             520
 Maxmicro              25
 Econv         1.000000000000000E-007
 Gconv         2.000000000000000E-004
 Maxdispl       1.00000000000000     
 Hlow          5.000000000000000E-003
 S6             20.0000000000000     
 Nvar               72

generating ANC from model Hessian ...
 Shifting diagonal of input Hessian by   4.849386958867885E-003
 Lowest  eigenvalues of input Hessian
   -0.000000   -0.000000    0.000000    0.000000    0.000000    0.000000
    0.005000    0.005363    0.005721    0.006528    0.006823    0.007085
    0.007492    0.008110    0.009003    0.009693    0.009837    0.010324
 Highest eigenvalues
    1.577071    1.578574    1.580146    3.077460    3.082196    3.088682
 
cpu  time for ANC gen    0.03 s
wall time for ANC gen    0.03 s
................................................................................
.............................. CYCLE    1 ......................................
................................................................................
   1    -50.6188605 -0.506189E+02  0.119E-04    6.71       0.0  T
   2    -50.6188605 -0.318252E-10  0.830E-05    6.71     236.3  T
   3    -50.6188605 -0.169251E-10  0.534E-05    6.71     367.6  T
speedup  1.21
cpu  time for SCC    0.00 s
wall time for SCC    0.00 s
speedup  1.02
cpu  time for grad    0.01 s
wall time for grad    0.01 s
 E :    -50.34203597  G :  0.201227    pred/act E change:  0.000D+00  0.268D-07
Maxdispl :   0.2191   ||displ|| :   0.4861   Lambda : -0.493D-01
Largest |displ|/coords:  0.2191 (  28)  0.1736 (  30)  0.1325 (  31)
................................................................................
.............................. CYCLE    2 ......................................
................................................................................
   1    -50.6357658 -0.506358E+02  0.402E-01    6.96       0.0  T
   2    -50.6361684 -0.402629E-03  0.303E-01    7.13       1.0  T
   3    -50.6363466 -0.178202E-03  0.108E-01    7.43       1.0  T
   4    -50.6363686 -0.219576E-04  0.340E-02    7.44       1.0  T
   5    -50.6363731 -0.447831E-05  0.983E-03    7.42       2.0  T
   6    -50.6363733 -0.185109E-06  0.522E-03    7.42       3.8  T
   7    -50.6363734 -0.107496E-06  0.219E-03    7.42       9.0  T
speedup  1.04
cpu  time for SCC    0.01 s
wall time for SCC    0.01 s
speedup  1.04
cpu  time for grad    0.02 s
wall time for grad    0.02 s
 E :    -50.38326134  G :  0.127938    pred/act E change:  0.000D+00 -0.412D-01
Maxdispl :   0.2370   ||displ|| :   0.5217   Lambda : -0.310D-01
Largest |displ|/coords:  0.2370 (  28)  0.2209 (  31)  0.1540 (  32)
................................................................................
.............................. CYCLE    3 ......................................
................................................................................
   1    -50.6449529 -0.506450E+02  0.395E-01    7.65       0.0  T
   2    -50.6456285 -0.675674E-03  0.291E-01    7.81       1.0  T
   3    -50.6459330 -0.304474E-03  0.123E-01    8.06       1.0  T
   4    -50.6459556 -0.226021E-04  0.390E-02    8.09       1.0  T
   5    -50.6459600 -0.435915E-05  0.118E-02    8.09       1.7  T
   6    -50.6459603 -0.307501E-06  0.640E-03    8.08       3.1  T
   7    -50.6459604 -0.141989E-06  0.263E-03    8.08       7.5  T
   8    -50.6459605 -0.274837E-07  0.116E-03    8.08      17.0  T
speedup  1.04
cpu  time for SCC    0.01 s
wall time for SCC    0.01 s
speedup  0.92
cpu  time for grad    0.01 s
wall time for grad    0.02 s
 E :    -50.40770934  G :  0.079689    pred/act E change: -0.305D-01 -0.244D-01
Maxdispl :   0.1874   ||displ|| :   0.4825   Lambda : -0.140D-01
Largest |displ|/coords:  0.1874 (  31)  0.1631 (   9)  0.1420 (  28)
................................................................................
.............................. CYCLE    4 ......................................
................................................................................
   1    -50.6488387 -0.506488E+02  0.332E-01    8.22       0.0  T
   2    -50.6494826 -0.643838E-03  0.236E-01    8.33       1.0  T
   3    -50.6497678 -0.285216E-03  0.109E-01    8.48       1.0  T
   4    -50.6497828 -0.150186E-04  0.336E-02    8.51       1.0  T
   5    -50.6497855 -0.264319E-05  0.103E-02    8.51       1.9  T
   6    -50.6497857 -0.238497E-06  0.559E-03    8.51       3.5  T
   7    -50.6497858 -0.928841E-07  0.217E-03    8.51       9.0  T
speedup  1.01
cpu  time for SCC    0.01 s
wall time for SCC    0.01 s
speedup  1.03
cpu  time for grad    0.02 s
wall time for grad    0.02 s
 E :    -50.41731306  G :  0.051290    pred/act E change: -0.197D-01 -0.960D-02
Maxdispl :   0.1919   ||displ|| :   0.3872   Lambda : -0.437D-02
Largest |displ|/coords:  0.1919 (   7)  0.1592 (   3)  0.1217 (  11)
................................................................................
.............................. CYCLE    5 ......................................
................................................................................
   1    -50.6507980 -0.506508E+02  0.213E-01    8.49       0.0  T
   2    -50.6508898 -0.918175E-04  0.157E-01    8.54       1.0  T
   3    -50.6509272 -0.374088E-04  0.545E-02    8.61       1.0  T
   4    -50.6509329 -0.568220E-05  0.128E-02    8.61       1.5  T
   5    -50.6509335 -0.652260E-06  0.426E-03    8.60       4.6  T
   6    -50.6509336 -0.241449E-07  0.189E-03    8.60      10.4  T
speedup  1.02
cpu  time for SCC    0.01 s
wall time for SCC    0.01 s
speedup  0.97
cpu  time for grad    0.01 s
wall time for grad    0.01 s
 E :    -50.42041599  G :  0.035784    pred/act E change: -0.862D-02 -0.310D-02
Maxdispl :   0.1735   ||displ|| :   0.4422   Lambda : -0.405D-02
Largest |displ|/coords:  0.1735 (   3)  0.1380 (  22)  0.1364 (   7)
................................................................................
.............................. CYCLE    6 ......................................
................................................................................
   1    -50.6582503 -0.506583E+02  0.260E-01    8.66       0.0  T
   2    -50.6585248 -0.274452E-03  0.188E-01    8.72       1.0  T
   3    -50.6586422 -0.117372E-03  0.816E-02    8.81       1.0  T
   4    -50.6586512 -0.899256E-05  0.198E-02    8.81       1.0  T
   5    -50.6586521 -0.900768E-06  0.652E-03    8.81       3.0  T
   6    -50.6586521 -0.657829E-07  0.315E-03    8.81       6.2  T
   7    -50.6586521 -0.239207E-07  0.114E-03    8.81      17.2  T
speedup  1.08
cpu  time for SCC    0.01 s
wall time for SCC    0.01 s
speedup  1.05
cpu  time for grad    0.02 s
wall time for grad    0.02 s
 E :    -50.42236713  G :  0.027526    pred/act E change: -0.251D-02 -0.195D-02
Maxdispl :   0.1504   ||displ|| :   0.3424   Lambda : -0.252D-02
Largest |displ|/coords:  0.1504 (   7)  0.1241 (  17)  0.1237 (  21)
................................................................................
.............................. CYCLE    7 ......................................
................................................................................
   1    -50.6568395 -0.506568E+02  0.326E-01    8.79       0.0  T
   2    -50.6569242 -0.846299E-04  0.246E-01    8.81       1.0  T
   3    -50.6569637 -0.394935E-04  0.522E-02    8.85       1.0  T
   4    -50.6569771 -0.134062E-04  0.163E-02    8.84       1.2  T
   5    -50.6569775 -0.475185E-06  0.404E-03    8.84       4.9  T
   6    -50.6569776 -0.178409E-07  0.237E-03    8.84       8.3  T
speedup  0.97
cpu  time for SCC    0.01 s
wall time for SCC    0.01 s
speedup  1.00
cpu  time for grad    0.01 s
wall time for grad    0.01 s
 E :    -50.42310006  G :  0.038790    pred/act E change: -0.242D-02 -0.733D-03
Maxdispl :   0.0991   ||displ|| :   0.2316   Lambda : -0.222D-02
Largest |displ|/coords:  0.0991 (  19)  0.0790 (   6)  0.0709 (  13)
................................................................................
.............................. CYCLE    8 ......................................
................................................................................
   1    -50.6630366 -0.506630E+02  0.191E-01    8.72       0.0  T
   2    -50.6630759 -0.392648E-04  0.142E-01    8.72       1.0  T
   3    -50.6630995 -0.236171E-04  0.371E-02    8.72       1.0  T
   4    -50.6631038 -0.432024E-05  0.996E-03    8.72       2.0  T
   5    -50.6631040 -0.186276E-06  0.351E-03    8.72       5.6  T
   6    -50.6631041 -0.156252E-07  0.198E-03    8.72       9.9  T
speedup  1.03
cpu  time for SCC    0.01 s
wall time for SCC    0.01 s
speedup  1.03
cpu  time for grad    0.01 s
wall time for grad    0.01 s
 E :    -50.42369205  G :  0.030392    pred/act E change: -0.141D-02 -0.592D-03
Maxdispl :   0.0865   ||displ|| :   0.2250   Lambda : -0.194D-02
Largest |displ|/coords:  0.0865 (   2)  0.0820 (  19)  0.0781 (   8)
................................................................................
.............................. CYCLE    9 ......................................
................................................................................
   1    -50.6608142 -0.506608E+02  0.176E-01    8.67       0.0  T
   2    -50.6608478 -0.336566E-04  0.130E-01    8.67       1.0  T
   3    -50.6608634 -0.155264E-04  0.344E-02    8.67       1.0  T
   4    -50.6608671 -0.378159E-05  0.101E-02    8.68       1.9  T
   5    -50.6608674 -0.209753E-06  0.321E-03    8.68       6.1  T
   6    -50.6608674 -0.153297E-07  0.187E-03    8.68      10.5  T
speedup  0.98
cpu  time for SCC    0.01 s
wall time for SCC    0.01 s
speedup  1.01
cpu  time for grad    0.01 s
wall time for grad    0.01 s
 E :    -50.42463521  G :  0.022595    pred/act E change: -0.117D-02 -0.943D-03
Maxdispl :   0.1201   ||displ|| :   0.2663   Lambda : -0.184D-02
Largest |displ|/coords:  0.1201 (   7)  0.0791 (  14)  0.0720 (  11)
................................................................................
.............................. CYCLE   10 ......................................
................................................................................
   1    -50.6592790 -0.506593E+02  0.232E-01    8.67       0.0  T
   2    -50.6594228 -0.143796E-03  0.169E-01    8.68       1.0  T
   3    -50.6594861 -0.633136E-04  0.619E-02    8.69       1.0  T
   4    -50.6594958 -0.969200E-05  0.151E-02    8.70       1.3  T
   5    -50.6594964 -0.577662E-06  0.609E-03    8.70       3.2  T
   6    -50.6594964 -0.497220E-07  0.302E-03    8.70       6.5  T
   7    -50.6594965 -0.152766E-07  0.844E-04    8.70      23.2  T
speedup  0.99
cpu  time for SCC    0.01 s
wall time for SCC    0.01 s
speedup  1.01
cpu  time for grad    0.02 s
wall time for grad    0.02 s
 E :    -50.42552447  G :  0.027516    pred/act E change: -0.102D-02 -0.889D-03
Maxdispl :   0.1253   ||displ|| :   0.3425   Lambda : -0.233D-02
Largest |displ|/coords:  0.1253 (   4)  0.1173 (  17)  0.0825 (  24)
................................................................................
.............................. CYCLE   11 ......................................
................................................................................
   1    -50.6645085 -0.506645E+02  0.269E-01    8.73       0.0  T
   2    -50.6646788 -0.170361E-03  0.199E-01    8.74       1.0  T
   3    -50.6647659 -0.870564E-04  0.783E-02    8.76       1.0  T
   4    -50.6647793 -0.134627E-04  0.217E-02    8.76       1.0  T
   5    -50.6647803 -0.940986E-06  0.787E-03    8.76       2.5  T
   6    -50.6647804 -0.845741E-07  0.393E-03    8.76       5.0  T
   7    -50.6647804 -0.202733E-07  0.104E-03    8.76      18.8  T
speedup  1.00
cpu  time for SCC    0.01 s
wall time for SCC    0.01 s
speedup  1.02
cpu  time for grad    0.02 s
wall time for grad    0.02 s
 E :    -50.42705945  G :  0.038529    pred/act E change: -0.983D-03 -0.153D-02
Maxdispl :   0.1352   ||displ|| :   0.4146   Lambda : -0.387D-02
Largest |displ|/coords:  0.1352 (   4)  0.1300 (   7)  0.1130 (  24)
................................................................................
.............................. CYCLE   12 ......................................
................................................................................
   1    -50.6765286 -0.506765E+02  0.304E-01    8.88       0.0  T
   2    -50.6767642 -0.235545E-03  0.223E-01    8.88       1.0  T
   3    -50.6768898 -0.125581E-03  0.990E-02    8.88       1.0  T
   4    -50.6769079 -0.181311E-04  0.313E-02    8.89       1.0  T
   5    -50.6769097 -0.180847E-05  0.948E-03    8.89       2.1  T
   6    -50.6769099 -0.158476E-06  0.499E-03    8.89       3.9  T
   7    -50.6769099 -0.309161E-07  0.143E-03    8.89      13.7  T
speedup  0.97
cpu  time for SCC    0.01 s
wall time for SCC    0.01 s
speedup  1.01
cpu  time for grad    0.02 s
wall time for grad    0.02 s
 E :    -50.42960642  G :  0.047240    pred/act E change: -0.130D-02 -0.255D-02
Maxdispl :   0.0910   ||displ|| :   0.3439   Lambda : -0.428D-02
Largest |displ|/coords:  0.0910 (  24)  0.0894 (  28)  0.0861 (  13)
................................................................................
.............................. CYCLE   13 ......................................
................................................................................
   1    -50.6915761 -0.506916E+02  0.245E-01    9.01       0.0  T
   2    -50.6916563 -0.802314E-04  0.179E-01    9.01       1.0  T
   3    -50.6917082 -0.519057E-04  0.616E-02    9.00       1.0  T
   4    -50.6917162 -0.799168E-05  0.194E-02    8.99       1.0  T
   5    -50.6917170 -0.753111E-06  0.592E-03    8.99       3.3  T
   6    -50.6917170 -0.533935E-07  0.353E-03    8.99       5.6  T
speedup  0.85
cpu  time for SCC    0.01 s
wall time for SCC    0.01 s
speedup  0.90
cpu  time for grad    0.01 s
wall time for grad    0.01 s
 E :    -50.43222397  G :  0.058387    pred/act E change: -0.227D-02 -0.262D-02
Maxdispl :   0.1010   ||displ|| :   0.3150   Lambda : -0.470D-02
Largest |displ|/coords:  0.1010 (   1)  0.0957 (  26)  0.0847 (   3)
................................................................................
.............................. CYCLE   14 ......................................
................................................................................
   1    -50.6900315 -0.506900E+02  0.254E-01    8.98       0.0  T
   2    -50.6901321 -0.100615E-03  0.189E-01    8.97       1.0  T
   3    -50.6901911 -0.589246E-04  0.594E-02    8.96       1.0  T
   4    -50.6902023 -0.112240E-04  0.181E-02    8.96       1.1  T
   5    -50.6902029 -0.619615E-06  0.738E-03    8.96       2.7  T
   6    -50.6902030 -0.842886E-07  0.350E-03    8.96       5.6  T
   7    -50.6902030 -0.258581E-07  0.963E-04    8.96      20.4  T
speedup  1.06
cpu  time for SCC    0.01 s
wall time for SCC    0.01 s
speedup  1.00
cpu  time for grad    0.01 s
wall time for grad    0.01 s
 E :    -50.43434849  G :  0.059415    pred/act E change: -0.239D-02 -0.212D-02
Maxdispl :   0.1141   ||displ|| :   0.3217   Lambda : -0.735D-02
Largest |displ|/coords:  0.1141 (  14)  0.0988 (  11)  0.0914 (   5)
................................................................................
.............................. CYCLE   15 ......................................
................................................................................
   1    -50.6912200 -0.506912E+02  0.260E-01    8.93       0.0  T
   2    -50.6913029 -0.828414E-04  0.192E-01    8.93       1.0  T
   3    -50.6913600 -0.571391E-04  0.512E-02    8.91       1.0  T
   4    -50.6913682 -0.823564E-05  0.189E-02    8.91       1.0  T
   5    -50.6913689 -0.688606E-06  0.678E-03    8.91       2.9  T
   6    -50.6913690 -0.796697E-07  0.329E-03    8.91       6.0  T
   7    -50.6913690 -0.240286E-07  0.936E-04    8.91      21.0  T
speedup  0.90
cpu  time for SCC    0.01 s
wall time for SCC    0.01 s
speedup  0.97
cpu  time for grad    0.01 s
wall time for grad    0.02 s
 E :    -50.43666018  G :  0.057453    pred/act E change: -0.258D-02 -0.231D-02
Maxdispl :   0.1437   ||displ|| :   0.4387   Lambda : -0.932D-02
Largest |displ|/coords:  0.1437 (  28)  0.1352 (  10)  0.1245 (  47)
................................................................................
.............................. CYCLE   16 ......................................
................................................................................
   1    -50.7268173 -0.507268E+02  0.384E-01    9.06       0.0  T
   2    -50.7271502 -0.332978E-03  0.286E-01    9.05       1.0  T
   3    -50.7273866 -0.236413E-03  0.106E-01    9.02       1.0  T
   4    -50.7274218 -0.351452E-04  0.353E-02    9.03       1.0  T
   5    -50.7274239 -0.214849E-05  0.142E-02    9.03       1.4  T
   6    -50.7274241 -0.145372E-06  0.566E-03    9.03       3.5  T
   7    -50.7274241 -0.554072E-07  0.159E-03    9.03      12.4  T
speedup  1.01
cpu  time for SCC    0.01 s
wall time for SCC    0.01 s
speedup  0.98
cpu  time for grad    0.01 s
wall time for grad    0.02 s
 E :    -50.43732518  G :  0.094229    pred/act E change: -0.406D-02 -0.665D-03
Maxdispl :   0.1444   ||displ|| :   0.4118   Lambda : -0.249D-01
Largest |displ|/coords:  0.1444 (  48)  0.1086 (  29)  0.1032 (  28)
................................................................................
.............................. CYCLE   17 ......................................
................................................................................
   1    -50.6726163 -0.506726E+02  0.439E-01    8.68       0.0  T
   2    -50.6732028 -0.586538E-03  0.318E-01    8.68       1.0  T
   3    -50.6735666 -0.363768E-03  0.126E-01    8.69       1.0  T
   4    -50.6736159 -0.492949E-04  0.433E-02    8.68       1.0  T
   5    -50.6736192 -0.328230E-05  0.165E-02    8.68       1.2  T
   6    -50.6736197 -0.488255E-06  0.801E-03    8.68       2.4  T
   7    -50.6736198 -0.862033E-07  0.211E-03    8.68       9.3  T
   8    -50.6736198 -0.929790E-08  0.581E-04    8.68      33.8  T
speedup  1.00
cpu  time for SCC    0.01 s
wall time for SCC    0.01 s
speedup  1.03
cpu  time for grad    0.02 s
wall time for grad    0.02 s
 E :    -50.43594343  G :  0.076445    pred/act E change: -0.555D-02  0.138D-02
Maxdispl :   0.1173   ||displ|| :   0.3824   Lambda : -0.185D-01
Largest |displ|/coords:  0.1173 (  47)  0.1070 (  11)  0.1035 (  67)
................................................................................
.............................. CYCLE   18 ......................................
................................................................................
   1    -50.7272524 -0.507273E+02  0.381E-01    8.97       0.0  T
   2    -50.7276065 -0.354098E-03  0.279E-01    8.97       1.0  T
   3    -50.7278539 -0.247413E-03  0.101E-01    8.97       1.0  T
   4    -50.7278843 -0.303446E-04  0.303E-02    8.97       1.0  T
   5    -50.7278857 -0.145837E-05  0.136E-02    8.97       1.4  T
   6    -50.7278859 -0.147196E-06  0.504E-03    8.97       3.9  T
   7    -50.7278859 -0.620557E-07  0.148E-03    8.97      13.3  T
speedup  1.03
cpu  time for SCC    0.01 s
wall time for SCC    0.01 s
speedup  1.03
cpu  time for grad    0.02 s
wall time for grad    0.02 s
 E :    -50.44325280  G :  0.058587    pred/act E change: -0.146D-01 -0.731D-02
Maxdispl :   0.0985   ||displ|| :   0.2834   Lambda : -0.746D-02
Largest |displ|/coords:  0.0985 (   1)  0.0911 (   2)  0.0824 (  10)
................................................................................
.............................. CYCLE   19 ......................................
................................................................................
   1    -50.7031449 -0.507031E+02  0.260E-01    8.84       0.0  T
   2    -50.7032304 -0.855089E-04  0.188E-01    8.84       1.0  T
   3    -50.7032824 -0.520509E-04  0.495E-02    8.84       1.0  T
   4    -50.7032893 -0.684546E-05  0.154E-02    8.84       1.3  T
   5    -50.7032897 -0.463112E-06  0.523E-03    8.84       3.7  T
   6    -50.7032898 -0.404289E-07  0.301E-03    8.84       6.5  T
speedup  1.02
cpu  time for SCC    0.01 s
wall time for SCC    0.01 s
speedup  1.03
cpu  time for grad    0.01 s
wall time for grad    0.01 s
 E :    -50.44485781  G :  0.043753    pred/act E change: -0.106D-01 -0.161D-02
Maxdispl :   0.0666   ||displ|| :   0.2057   Lambda : -0.330D-02
Largest |displ|/coords:  0.0666 (   7)  0.0605 (  11)  0.0602 (   8)
................................................................................
.............................. CYCLE   20 ......................................
................................................................................
   1    -50.7166013 -0.507166E+02  0.148E-01    8.88       0.0  T
   2    -50.7166351 -0.338238E-04  0.110E-01    8.88       1.0  T
   3    -50.7166548 -0.197587E-04  0.319E-02    8.88       1.0  T
   4    -50.7166585 -0.361367E-05  0.883E-03    8.88       2.2  T
   5    -50.7166586 -0.172340E-06  0.339E-03    8.88       5.8  T
   6    -50.7166586 -0.943695E-08  0.172E-03    8.88      11.4  T
speedup  1.03
cpu  time for SCC    0.01 s
wall time for SCC    0.01 s
speedup  0.98
cpu  time for grad    0.01 s
wall time for grad    0.01 s
 E :    -50.44696962  G :  0.023429    pred/act E change: -0.403D-02 -0.211D-02
Maxdispl :   0.1384   ||displ|| :   0.2833   Lambda : -0.245D-02
Largest |displ|/coords:  0.1384 (   3)  0.1111 (  11)  0.0873 (   5)
................................................................................
.............................. CYCLE   21 ......................................
................................................................................
   1    -50.7259105 -0.507259E+02  0.181E-01    8.82       0.0  T
   2    -50.7259432 -0.326924E-04  0.135E-01    8.83       1.0  T
   3    -50.7259653 -0.221231E-04  0.303E-02    8.84       1.0  T
   4    -50.7259692 -0.388648E-05  0.980E-03    8.84       2.0  T
   5    -50.7259694 -0.151386E-06  0.348E-03    8.84       5.6  T
   6    -50.7259694 -0.142954E-07  0.169E-03    8.84      11.6  T
speedup  1.00
cpu  time for SCC    0.01 s
wall time for SCC    0.01 s
speedup  1.03
cpu  time for grad    0.01 s
wall time for grad    0.01 s
 E :    -50.44793392  G :  0.030606    pred/act E change: -0.172D-02 -0.964D-03
Maxdispl :   0.1193   ||displ|| :   0.2723   Lambda : -0.178D-02
Largest |displ|/coords:  0.1193 (  10)  0.1054 (   3)  0.0994 (   1)
................................................................................
.............................. CYCLE   22 ......................................
................................................................................
   1    -50.7272552 -0.507273E+02  0.150E-01    8.75       0.0  T
   2    -50.7272779 -0.226959E-04  0.111E-01    8.75       1.0  T
   3    -50.7272894 -0.115142E-04  0.253E-02    8.76       1.0  T
   4    -50.7272925 -0.304285E-05  0.809E-03    8.76       2.4  T
   5    -50.7272926 -0.120463E-06  0.239E-03    8.76       8.2  T
   6    -50.7272926 -0.690731E-08  0.131E-03    8.76      15.0  T
speedup  1.02
cpu  time for SCC    0.01 s
wall time for SCC    0.01 s
speedup  0.97
cpu  time for grad    0.01 s
wall time for grad    0.01 s
 E :    -50.44909563  G :  0.020455    pred/act E change: -0.132D-02 -0.116D-02
Maxdispl :   0.1961   ||displ|| :   0.3290   Lambda : -0.144D-02
Largest |displ|/coords:  0.1961 (   3)  0.1053 (   1)  0.0934 (  33)
................................................................................
.............................. CYCLE   23 ......................................
................................................................................
   1    -50.7219187 -0.507219E+02  0.152E-01    8.72       0.0  T
   2    -50.7219578 -0.391576E-04  0.110E-01    8.72       1.0  T
   3    -50.7219726 -0.147346E-04  0.328E-02    8.72       1.0  T
   4    -50.7219766 -0.404273E-05  0.742E-03    8.72       2.6  T
   5    -50.7219767 -0.110186E-06  0.244E-03    8.72       8.0  T
   6    -50.7219767 -0.640342E-08  0.121E-03    8.72      16.2  T
speedup  0.98
cpu  time for SCC    0.01 s
wall time for SCC    0.01 s
speedup  1.03
cpu  time for grad    0.01 s
wall time for grad    0.01 s
 E :    -50.44996377  G :  0.018709    pred/act E change: -0.958D-03 -0.868D-03
Maxdispl :   0.1796   ||displ|| :   0.3613   Lambda : -0.114D-02
Largest |displ|/coords:  0.1796 (   3)  0.1244 (  11)  0.1105 (   1)
................................................................................
.............................. CYCLE   24 ......................................
................................................................................
   1    -50.7255801 -0.507256E+02  0.140E-01    8.73       0.0  T
   2    -50.7256133 -0.331837E-04  0.103E-01    8.73       1.0  T
   3    -50.7256299 -0.165823E-04  0.303E-02    8.73       1.0  T
   4    -50.7256333 -0.340546E-05  0.903E-03    8.73       2.2  T
   5    -50.7256334 -0.151826E-06  0.264E-03    8.73       7.4  T
   6    -50.7256334 -0.885536E-08  0.139E-03    8.73      14.1  T
speedup  0.88
cpu  time for SCC    0.00 s
wall time for SCC    0.01 s
speedup  0.97
cpu  time for grad    0.01 s
wall time for grad    0.01 s
 E :    -50.45063885  G :  0.022351    pred/act E change: -0.799D-03 -0.675D-03
Maxdispl :   0.2776   ||displ|| :   0.4717   Lambda : -0.143D-02
Largest |displ|/coords:  0.2776 (   3)  0.1444 (  11)  0.1147 (   4)
................................................................................
.............................. CYCLE   25 ......................................
................................................................................
   1    -50.7255990 -0.507256E+02  0.192E-01    8.74       0.0  T
   2    -50.7256449 -0.458699E-04  0.141E-01    8.73       1.0  T
   3    -50.7256669 -0.219978E-04  0.371E-02    8.73       1.0  T
   4    -50.7256721 -0.521310E-05  0.115E-02    8.73       1.7  T
   5    -50.7256723 -0.207516E-06  0.325E-03    8.73       6.0  T
   6    -50.7256723 -0.143532E-07  0.182E-03    8.73      10.8  T
speedup  0.86
cpu  time for SCC    0.00 s
wall time for SCC    0.01 s
speedup  0.97
cpu  time for grad    0.01 s
wall time for grad    0.01 s
 E :    -50.45138434  G :  0.026030    pred/act E change: -0.642D-03 -0.745D-03
Maxdispl :   0.2452   ||displ|| :   0.4184   Lambda : -0.167D-02
Largest |displ|/coords:  0.2452 (   3)  0.1384 (  11)  0.1339 (   6)

generating ANC from model Hessian ...
 Shifting diagonal of input Hessian by   4.696456085538946E-003
 Lowest  eigenvalues of input Hessian
   -0.000000   -0.000000   -0.000000    0.000000    0.000000    0.000000
    0.005000    0.005172    0.005434    0.005960    0.006439    0.006960
    0.007231    0.008026    0.008468    0.008553    0.010287    0.011649
 Highest eigenvalues
    1.389024    1.404390    1.446956    2.634372    3.242990    3.718427
 
cpu  time for ANC gen    0.03 s
wall time for ANC gen    0.03 s
................................................................................
.............................. CYCLE   26 ......................................
................................................................................
   1    -50.7299436 -0.507299E+02  0.207E-01    8.78       0.0  T
   2    -50.7300492 -0.105668E-03  0.152E-01    8.77       1.0  T
   3    -50.7300914 -0.421141E-04  0.561E-02    8.76       1.0  T
   4    -50.7301008 -0.939339E-05  0.140E-02    8.76       1.4  T
   5    -50.7301011 -0.328311E-06  0.433E-03    8.76       4.5  T
   6    -50.7301011 -0.227983E-07  0.213E-03    8.76       9.2  T
   7    -50.7301011 -0.695889E-08  0.649E-04    8.76      30.2  T
   8    -50.7301011 -0.808420E-09  0.211E-04    8.76      93.1  T
speedup  0.91
cpu  time for SCC    0.01 s
wall time for SCC    0.01 s
speedup  1.01
cpu  time for grad    0.02 s
wall time for grad    0.02 s
 E :    -50.45254934  G :  0.022180    pred/act E change:  0.000D+00 -0.116D-02
Maxdispl :   0.1104   ||displ|| :   0.2474   Lambda : -0.197D-02
Largest |displ|/coords:  0.1104 (   8)  0.1077 (   7)  0.0626 (  20)
................................................................................
.............................. CYCLE   27 ......................................
................................................................................
   1    -50.7317298 -0.507317E+02  0.153E-01    8.78       0.0  T
   2    -50.7317474 -0.176820E-04  0.114E-01    8.77       1.0  T
   3    -50.7317533 -0.586408E-05  0.228E-02    8.77       1.0  T
   4    -50.7317562 -0.291103E-05  0.588E-03    8.77       3.3  T
   5    -50.7317563 -0.839547E-07  0.184E-03    8.77      10.7  T
speedup  0.98
cpu  time for SCC    0.01 s
wall time for SCC    0.01 s
speedup  0.96
cpu  time for grad    0.01 s
wall time for grad    0.01 s
 E :    -50.45368505  G :  0.016094    pred/act E change:  0.000D+00 -0.114D-02
Maxdispl :   0.1485   ||displ|| :   0.2579   Lambda : -0.124D-02
Largest |displ|/coords:  0.1485 (   7)  0.0778 (  11)  0.0761 (  20)
................................................................................
.............................. CYCLE   28 ......................................
................................................................................
   1    -50.7339486 -0.507339E+02  0.143E-01    8.80       0.0  T
   2    -50.7339666 -0.179368E-04  0.106E-01    8.80       1.0  T
   3    -50.7339735 -0.688763E-05  0.245E-02    8.80       1.0  T
   4    -50.7339759 -0.243305E-05  0.667E-03    8.80       2.9  T
   5    -50.7339760 -0.766107E-07  0.191E-03    8.80      10.3  T
   6    -50.7339760 -0.432500E-08  0.107E-03    8.80      18.3  T
speedup  1.03
cpu  time for SCC    0.01 s
wall time for SCC    0.01 s
speedup  1.04
cpu  time for grad    0.01 s
wall time for grad    0.01 s
 E :    -50.45449189  G :  0.016995    pred/act E change: -0.104D-02 -0.807D-03
Maxdispl :   0.1097   ||displ|| :   0.2606   Lambda : -0.969D-03
Largest |displ|/coords:  0.1097 (  11)  0.0872 (   7)  0.0860 (  13)
................................................................................
.............................. CYCLE   29 ......................................
................................................................................
   1    -50.7350608 -0.507351E+02  0.151E-01    8.83       0.0  T
   2    -50.7350831 -0.223444E-04  0.111E-01    8.82       1.0  T
   3    -50.7350920 -0.881976E-05  0.268E-02    8.82       1.0  T
   4    -50.7350949 -0.293035E-05  0.798E-03    8.82       2.5  T
   5    -50.7350950 -0.931563E-07  0.221E-03    8.82       8.9  T
   6    -50.7350950 -0.711945E-08  0.129E-03    8.82      15.2  T
speedup  1.09
cpu  time for SCC    0.01 s
wall time for SCC    0.01 s
speedup  0.98
cpu  time for grad    0.01 s
wall time for grad    0.02 s
 E :    -50.45523694  G :  0.015916    pred/act E change: -0.659D-03 -0.745D-03
Maxdispl :   0.1680   ||displ|| :   0.4207   Lambda : -0.152D-02
Largest |displ|/coords:  0.1680 (  14)  0.1559 (  11)  0.1539 (  13)
................................................................................
.............................. CYCLE   30 ......................................
................................................................................
   1    -50.7350506 -0.507351E+02  0.235E-01    8.87       0.0  T
   2    -50.7351160 -0.653896E-04  0.173E-01    8.86       1.0  T
   3    -50.7351446 -0.285817E-04  0.467E-02    8.86       1.0  T
   4    -50.7351524 -0.779088E-05  0.144E-02    8.86       1.4  T
   5    -50.7351527 -0.281696E-06  0.374E-03    8.86       5.2  T
   6    -50.7351527 -0.189687E-07  0.205E-03    8.86       9.5  T
   7    -50.7351527 -0.577737E-08  0.616E-04    8.86      31.8  T
speedup  0.99
cpu  time for SCC    0.01 s
wall time for SCC    0.01 s
speedup  0.96
cpu  time for grad    0.01 s
wall time for grad    0.02 s
 E :    -50.45608818  G :  0.014097    pred/act E change: -0.517D-03 -0.851D-03
Maxdispl :   0.1486   ||displ|| :   0.2946   Lambda : -0.102D-02
Largest |displ|/coords:  0.1486 (  10)  0.1026 (  13)  0.0753 (  16)
................................................................................
.............................. CYCLE   31 ......................................
................................................................................
   1    -50.7361166 -0.507361E+02  0.183E-01    8.88       0.0  T
   2    -50.7361375 -0.209140E-04  0.137E-01    8.87       1.0  T
   3    -50.7361477 -0.102035E-04  0.269E-02    8.87       1.0  T
   4    -50.7361512 -0.343817E-05  0.915E-03    8.87       2.1  T
   5    -50.7361513 -0.116114E-06  0.258E-03    8.87       7.6  T
   6    -50.7361513 -0.787266E-08  0.153E-03    8.87      12.9  T
speedup  0.86
cpu  time for SCC    0.00 s
wall time for SCC    0.01 s
speedup  0.97
cpu  time for grad    0.01 s
wall time for grad    0.01 s
 E :    -50.45647681  G :  0.016503    pred/act E change: -0.893D-03 -0.389D-03
Maxdispl :   0.0719   ||displ|| :   0.1740   Lambda : -0.732D-03
Largest |displ|/coords:  0.0719 (  13)  0.0665 (  18)  0.0624 (   3)
................................................................................
.............................. CYCLE   32 ......................................
................................................................................
   1    -50.7374083 -0.507374E+02  0.104E-01    8.85       0.0  T
   2    -50.7374115 -0.319434E-05  0.791E-02    8.85       1.0  T
   3    -50.7374143 -0.280951E-05  0.101E-02    8.85       2.0  T
   4    -50.7374148 -0.419985E-06  0.471E-03    8.85       4.2  T
   5    -50.7374148 -0.252249E-07  0.118E-03    8.85      16.6  T
   6    -50.7374148 -0.206364E-08  0.716E-04    8.85      27.4  T
speedup  1.02
cpu  time for SCC    0.01 s
wall time for SCC    0.01 s
speedup  1.03
cpu  time for grad    0.01 s
wall time for grad    0.01 s
 E :    -50.45696030  G :  0.011149    pred/act E change: -0.555D-03 -0.483D-03
Maxdispl :   0.1214   ||displ|| :   0.2563   Lambda : -0.538D-03
Largest |displ|/coords:  0.1214 (  13)  0.1068 (  14)  0.0833 (  18)
................................................................................
.............................. CYCLE   33 ......................................
................................................................................
   1    -50.7367784 -0.507368E+02  0.140E-01    8.84       0.0  T
   2    -50.7367849 -0.651212E-05  0.106E-01    8.84       1.0  T
   3    -50.7367912 -0.626722E-05  0.140E-02    8.84       1.4  T
   4    -50.7367919 -0.746753E-06  0.622E-03    8.84       3.2  T
   5    -50.7367919 -0.422306E-07  0.160E-03    8.84      12.2  T
   6    -50.7367919 -0.359378E-08  0.987E-04    8.84      19.9  T
speedup  1.03
cpu  time for SCC    0.01 s
wall time for SCC    0.01 s
speedup  0.98
cpu  time for grad    0.01 s
wall time for grad    0.01 s
 E :    -50.45726174  G :  0.009551    pred/act E change: -0.377D-03 -0.301D-03
Maxdispl :   0.0852   ||displ|| :   0.1786   Lambda : -0.268D-03
Largest |displ|/coords:  0.0852 (  13)  0.0615 (   1)  0.0584 (  14)
................................................................................
.............................. CYCLE   34 ......................................
................................................................................
   1    -50.7404284 -0.507404E+02  0.843E-02    8.84       0.0  T
   2    -50.7404310 -0.265530E-05  0.638E-02    8.84       1.0  T
   3    -50.7404331 -0.209898E-05  0.932E-03    8.84       2.1  T
   4    -50.7404335 -0.365700E-06  0.408E-03    8.84       4.8  T
   5    -50.7404335 -0.175296E-07  0.966E-04    8.84      20.3  T
   6    -50.7404335 -0.134479E-08  0.579E-04    8.84      33.9  T
speedup  1.00
cpu  time for SCC    0.01 s
wall time for SCC    0.01 s
speedup  1.03
cpu  time for grad    0.01 s
wall time for grad    0.01 s
 E :    -50.45739669  G :  0.006421    pred/act E change: -0.287D-03 -0.135D-03
Maxdispl :   0.0523   ||displ|| :   0.1244   Lambda : -0.122D-03
Largest |displ|/coords:  0.0523 (  13)  0.0409 (   3)  0.0355 (  17)
................................................................................
.............................. CYCLE   35 ......................................
................................................................................
   1    -50.7411992 -0.507412E+02  0.737E-02    8.87       0.0  T
   2    -50.7412005 -0.130987E-05  0.555E-02    8.86       1.0  T
   3    -50.7412014 -0.909949E-06  0.698E-03    8.86       2.8  T
   4    -50.7412016 -0.208636E-06  0.246E-03    8.86       8.0  T
   5    -50.7412016 -0.646227E-08  0.705E-04    8.86      27.8  T
speedup  0.98
cpu  time for SCC    0.00 s
wall time for SCC    0.01 s
speedup  1.01
cpu  time for grad    0.01 s
wall time for grad    0.01 s
 E :    -50.45746180  G :  0.005641    pred/act E change: -0.138D-03 -0.651D-04
Maxdispl :   0.0312   ||displ|| :   0.0886   Lambda : -0.101D-03
Largest |displ|/coords:  0.0312 (  10)  0.0294 (  14)  0.0285 (   4)
................................................................................
.............................. CYCLE   36 ......................................
................................................................................
   1    -50.7419845 -0.507420E+02  0.620E-02    8.89       0.0  T
   2    -50.7419852 -0.674698E-06  0.464E-02    8.89       1.0  T
   3    -50.7419857 -0.467238E-06  0.553E-03    8.89       3.5  T
   4    -50.7419857 -0.914477E-07  0.131E-03    8.89      15.0  T
   5    -50.7419857 -0.319567E-08  0.515E-04    8.89      38.1  T
speedup  1.00
cpu  time for SCC    0.00 s
wall time for SCC    0.01 s
speedup  1.03
cpu  time for grad    0.01 s
wall time for grad    0.01 s
 E :    -50.45751434  G :  0.005653    pred/act E change: -0.621D-04 -0.525D-04
Maxdispl :   0.0283   ||displ|| :   0.0753   Lambda : -0.742D-04
Largest |displ|/coords:  0.0283 (  17)  0.0246 (   6)  0.0218 (   1)
................................................................................
.............................. CYCLE   37 ......................................
................................................................................
   1    -50.7420917 -0.507421E+02  0.514E-02    8.91       0.0  T
   2    -50.7420926 -0.891045E-06  0.385E-02    8.91       1.0  T
   3    -50.7420931 -0.576905E-06  0.630E-03    8.91       3.1  T
   4    -50.7420933 -0.132850E-06  0.157E-03    8.91      12.5  T
   5    -50.7420933 -0.532198E-08  0.594E-04    8.91      33.0  T
speedup  1.04
cpu  time for SCC    0.00 s
wall time for SCC    0.00 s
speedup  0.96
cpu  time for grad    0.01 s
wall time for grad    0.01 s
 E :    -50.45755337  G :  0.003761    pred/act E change: -0.511D-04 -0.390D-04
Maxdispl :   0.0510   ||displ|| :   0.1141   Lambda : -0.642D-04
Largest |displ|/coords:  0.0510 (   3)  0.0400 (  13)  0.0385 (  14)
................................................................................
.............................. CYCLE   38 ......................................
................................................................................
   1    -50.7417976 -0.507418E+02  0.716E-02    8.93       0.0  T
   2    -50.7417986 -0.100970E-05  0.540E-02    8.92       1.0  T
   3    -50.7417997 -0.110426E-05  0.608E-03    8.92       3.2  T
   4    -50.7417998 -0.941377E-07  0.215E-03    8.92       9.1  T
   5    -50.7417998 -0.644174E-08  0.725E-04    8.92      27.1  T
   6    -50.7417998 -0.626365E-09  0.408E-04    8.92      48.1  T
speedup  1.00
cpu  time for SCC    0.01 s
wall time for SCC    0.01 s
speedup  0.99
cpu  time for grad    0.01 s
wall time for grad    0.02 s
 E :    -50.45758882  G :  0.003425    pred/act E change: -0.373D-04 -0.354D-04
Maxdispl :   0.0449   ||displ|| :   0.0854   Lambda : -0.400D-04
Largest |displ|/coords:  0.0449 (  13)  0.0256 (   3)  0.0238 (  24)
................................................................................
.............................. CYCLE   39 ......................................
................................................................................
   1    -50.7416873 -0.507417E+02  0.483E-02    8.93       0.0  T
   2    -50.7416879 -0.612011E-06  0.362E-02    8.93       1.0  T
   3    -50.7416883 -0.411472E-06  0.531E-03    8.92       3.7  T
   4    -50.7416884 -0.885330E-07  0.206E-03    8.93       9.5  T
   5    -50.7416884 -0.374336E-08  0.379E-04    8.93      51.7  T
   6    -50.7416884 -0.153364E-09  0.241E-04    8.93      81.3  T
speedup  0.86
cpu  time for SCC    0.00 s
wall time for SCC    0.01 s
speedup  1.00
cpu  time for grad    0.01 s
wall time for grad    0.01 s
 E :    -50.45761112  G :  0.002693    pred/act E change: -0.325D-04 -0.223D-04
Maxdispl :   0.0158   ||displ|| :   0.0328   Lambda : -0.160D-04
Largest |displ|/coords:  0.0158 (  13)  0.0143 (  26)  0.0101 (   7)
................................................................................
.............................. CYCLE   40 ......................................
................................................................................
   1    -50.7417637 -0.507418E+02  0.222E-02    8.93       0.0  T
   2    -50.7417638 -0.181476E-06  0.165E-02    8.93       1.2  T
   3    -50.7417640 -0.113426E-06  0.275E-03    8.93       7.1  T
   4    -50.7417640 -0.231645E-07  0.838E-04    8.93      23.4  T
   5    -50.7417640 -0.103605E-08  0.196E-04    8.93      99.9  T
speedup  1.00
cpu  time for SCC    0.00 s
wall time for SCC    0.00 s
speedup  1.05
cpu  time for grad    0.01 s
wall time for grad    0.01 s
 E :    -50.45762181  G :  0.002072    pred/act E change: -0.201D-04 -0.107D-04
Maxdispl :   0.0131   ||displ|| :   0.0295   Lambda : -0.110D-04
Largest |displ|/coords:  0.0131 (  26)  0.0100 (  13)  0.0092 (   9)
................................................................................
.............................. CYCLE   41 ......................................
................................................................................
   1    -50.7418785 -0.507419E+02  0.227E-02    8.93       0.0  T
   2    -50.7418787 -0.205525E-06  0.166E-02    8.93       1.2  T
   3    -50.7418788 -0.118210E-06  0.324E-03    8.93       6.1  T
   4    -50.7418789 -0.228733E-07  0.963E-04    8.93      20.4  T
   5    -50.7418789 -0.114940E-08  0.209E-04    8.93      94.0  T
speedup  1.15
cpu  time for SCC    0.01 s
wall time for SCC    0.01 s
speedup  1.03
cpu  time for grad    0.01 s
wall time for grad    0.01 s
 E :    -50.45762842  G :  0.001335    pred/act E change: -0.799D-05 -0.661D-05
Maxdispl :   0.0119   ||displ|| :   0.0263   Lambda : -0.553D-05
Largest |displ|/coords:  0.0119 (  11)  0.0100 (  13)  0.0085 (  18)
................................................................................
.............................. CYCLE   42 ......................................
................................................................................
   1    -50.7416114 -0.507416E+02  0.201E-02    8.93       0.0  T
   2    -50.7416116 -0.154188E-06  0.147E-02    8.93       1.3  T
   3    -50.7416117 -0.898156E-07  0.283E-03    8.93       6.9  T
   4    -50.7416117 -0.181930E-07  0.831E-04    8.93      23.6  T
   5    -50.7416117 -0.108438E-08  0.177E-04    8.93     110.7  T
speedup  0.94
cpu  time for SCC    0.00 s
wall time for SCC    0.01 s
speedup  0.96
cpu  time for grad    0.01 s
wall time for grad    0.01 s
 E :    -50.45763081  G :  0.001396    pred/act E change: -0.549D-05 -0.239D-05
Maxdispl :   0.0069   ||displ|| :   0.0127   Lambda : -0.329D-05
Largest |displ|/coords:  0.0069 (   3)  0.0040 (  15)  0.0039 (  13)
................................................................................
.............................. CYCLE   43 ......................................
................................................................................
   1    -50.7418855 -0.507419E+02  0.839E-03    8.93       0.0  T
   2    -50.7418855 -0.228328E-07  0.609E-03    8.93       3.2  T
   3    -50.7418855 -0.155124E-07  0.119E-03    8.93      16.5  T
   4    -50.7418855 -0.200592E-08  0.278E-04    8.93      70.6  T
   5    -50.7418855 -0.165826E-09  0.864E-05    8.93     226.9  T
speedup  0.98
cpu  time for SCC    0.00 s
wall time for SCC    0.01 s
speedup  0.99
cpu  time for grad    0.01 s
wall time for grad    0.01 s
 E :    -50.45763283  G :  0.000635    pred/act E change: -0.277D-05 -0.202D-05
Maxdispl :   0.0054   ||displ|| :   0.0093   Lambda : -0.131D-05
Largest |displ|/coords:  0.0054 (  11)  0.0028 (   6)  0.0028 (  15)
................................................................................
.............................. CYCLE   44 ......................................
................................................................................
   1    -50.7419647 -0.507420E+02  0.724E-03    8.94       0.0  T
   2    -50.7419647 -0.163325E-07  0.535E-03    8.94       3.7  T
   3    -50.7419647 -0.113650E-07  0.999E-04    8.94      19.6  T
   4    -50.7419647 -0.186803E-08  0.290E-04    8.94      67.6  T
speedup  0.93
cpu  time for SCC    0.00 s
wall time for SCC    0.00 s
speedup  0.97
cpu  time for grad    0.01 s
wall time for grad    0.01 s
 E :    -50.45763371  G :  0.000549    pred/act E change: -0.164D-05 -0.881D-06
Maxdispl :   0.0047   ||displ|| :   0.0075   Lambda : -0.658D-06
Largest |displ|/coords:  0.0047 (  11)  0.0031 (   6)  0.0021 (  15)
................................................................................
.............................. CYCLE   45 ......................................
................................................................................
   1    -50.7420106 -0.507420E+02  0.544E-03    8.94       0.0  T
   2    -50.7420106 -0.815862E-08  0.400E-03    8.94       4.9  T
   3    -50.7420106 -0.612076E-08  0.794E-04    8.94      24.7  T
   4    -50.7420106 -0.902489E-09  0.239E-04    8.94      81.9  T
speedup  0.95
cpu  time for SCC    0.00 s
wall time for SCC    0.00 s
speedup  1.03
cpu  time for grad    0.01 s
wall time for grad    0.01 s
 E :    -50.45763417  G :  0.000416    pred/act E change: -0.655D-06 -0.457D-06
Maxdispl :   0.0053   ||displ|| :   0.0078   Lambda : -0.446D-06
Largest |displ|/coords:  0.0053 (  11)  0.0026 (   6)  0.0020 (  16)
................................................................................
.............................. CYCLE   46 ......................................
................................................................................
   1    -50.7419883 -0.507420E+02  0.607E-03    8.93       0.0  T
   2    -50.7419883 -0.783533E-08  0.454E-03    8.93       4.3  T
   3    -50.7419883 -0.684507E-08  0.701E-04    8.93      28.0  T
   4    -50.7419883 -0.898815E-09  0.217E-04    8.93      90.6  T
speedup  1.00
cpu  time for SCC    0.00 s
wall time for SCC    0.00 s
speedup  0.98
cpu  time for grad    0.01 s
wall time for grad    0.01 s
 E :    -50.45763449  G :  0.000382    pred/act E change: -0.329D-06 -0.327D-06
Maxdispl :   0.0052   ||displ|| :   0.0078   Lambda : -0.418D-06
Largest |displ|/coords:  0.0052 (  11)  0.0024 (   6)  0.0021 (  15)
................................................................................
.............................. CYCLE   47 ......................................
................................................................................
   1    -50.7419619 -0.507420E+02  0.576E-03    8.93       0.0  T
   2    -50.7419619 -0.829659E-08  0.435E-03    8.93       4.5  T
   3    -50.7419619 -0.630926E-08  0.611E-04    8.93      32.1  T
   4    -50.7419619 -0.122010E-08  0.206E-04    8.93      95.2  T
speedup  1.00
cpu  time for SCC    0.00 s
wall time for SCC    0.00 s
speedup  0.96
cpu  time for grad    0.01 s
wall time for grad    0.01 s
 E :    -50.45763480  G :  0.000287    pred/act E change: -0.223D-06 -0.304D-06
Maxdispl :   0.0050   ||displ|| :   0.0077   Lambda : -0.349D-06
Largest |displ|/coords:  0.0050 (  11)  0.0025 (   1)  0.0024 (  15)
................................................................................
.............................. CYCLE   48 ......................................
................................................................................
   1    -50.7419190 -0.507419E+02  0.604E-03    8.93       0.0  T
   2    -50.7419190 -0.739433E-08  0.456E-03    8.93       4.3  T
   3    -50.7419190 -0.685950E-08  0.531E-04    8.93      36.9  T
   4    -50.7419190 -0.873946E-09  0.215E-04    8.93      91.1  T
speedup  0.91
cpu  time for SCC    0.00 s
wall time for SCC    0.00 s
speedup  1.01
cpu  time for grad    0.01 s
wall time for grad    0.01 s
 E :    -50.45763506  G :  0.000300    pred/act E change: -0.209D-06 -0.262D-06
Maxdispl :   0.0044   ||displ|| :   0.0081   Lambda : -0.332D-06
Largest |displ|/coords:  0.0044 (  11)  0.0027 (  15)  0.0026 (   1)
................................................................................
.............................. CYCLE   49 ......................................
................................................................................
   1    -50.7419042 -0.507419E+02  0.643E-03    8.93       0.0  T
   2    -50.7419042 -0.781017E-08  0.481E-03    8.93       4.1  T
   3    -50.7419042 -0.813930E-08  0.674E-04    8.93      29.1  T
   4    -50.7419042 -0.647361E-09  0.205E-04    8.93      95.5  T
speedup  1.16
cpu  time for SCC    0.00 s
wall time for SCC    0.00 s
speedup  1.03
cpu  time for grad    0.01 s
wall time for grad    0.01 s
 E :    -50.45763531  G :  0.000287    pred/act E change: -0.174D-06 -0.247D-06
Maxdispl :   0.0033   ||displ|| :   0.0066   Lambda : -0.256D-06
Largest |displ|/coords:  0.0033 (  11)  0.0024 (  15)  0.0019 (  14)
................................................................................
.............................. CYCLE   50 ......................................
................................................................................
   1    -50.7418977 -0.507419E+02  0.573E-03    8.93       0.0  T
   2    -50.7418977 -0.530785E-08  0.424E-03    8.93       4.6  T
   3    -50.7418977 -0.626427E-08  0.672E-04    8.93      29.2  T
   4    -50.7418977 -0.348663E-09  0.113E-04    8.93     173.2  T
speedup  0.98
cpu  time for SCC    0.00 s
wall time for SCC    0.00 s
speedup  0.98
cpu  time for grad    0.01 s
wall time for grad    0.01 s
 E :    -50.45763549  G :  0.000237    pred/act E change: -0.166D-06 -0.183D-06
Maxdispl :   0.0021   ||displ|| :   0.0050   Lambda : -0.162D-06
Largest |displ|/coords:  0.0021 (  11)  0.0017 (  15)  0.0015 (  14)
................................................................................
.............................. CYCLE   51 ......................................
................................................................................
   1    -50.7419248 -0.507419E+02  0.425E-03    8.93       0.0  T
   2    -50.7419248 -0.337428E-08  0.314E-03    8.93       6.2  T
   3    -50.7419248 -0.364643E-08  0.519E-04    8.93      37.8  T
   4    -50.7419248 -0.291330E-09  0.150E-04    8.93     130.8  T
speedup  0.93
cpu  time for SCC    0.00 s
wall time for SCC    0.00 s
speedup  0.96
cpu  time for grad    0.01 s
wall time for grad    0.01 s
 E :    -50.45763559  G :  0.000132    pred/act E change: -0.128D-06 -0.104D-06
Maxdispl :   0.0009   ||displ|| :   0.0018   Lambda : -0.551D-07
Largest |displ|/coords:  0.0009 (   6)  0.0008 (  14)  0.0005 (   1)
................................................................................
.............................. CYCLE   52 ......................................
................................................................................
   1    -50.7419300 -0.507419E+02  0.132E-03    8.93       0.0  T
   2    -50.7419300 -0.790486E-09  0.981E-04    8.93      20.0  T
   3    -50.7419300 -0.392745E-09  0.183E-04    8.93     106.9  T
speedup  0.94
cpu  time for SCC    0.00 s
wall time for SCC    0.00 s
speedup  0.95
cpu  time for grad    0.01 s
wall time for grad    0.01 s
 E :    -50.45763564  G :  0.000082    pred/act E change: -0.809D-07 -0.470D-07
Maxdispl :   0.0006   ||displ|| :   0.0016   Lambda : -0.327D-07
Largest |displ|/coords:  0.0006 (  14)  0.0006 (   6)  0.0005 (   1)

   *** GEOMETRY OPTIMIZATION CONVERGED AFTER 52 ITERATIONS ***

------------------------------------------------------------------------
 total energy gain (kcal):     -3.1917
------------------------------------------------------------------------
================
 final structure:
================
$coord
        2.26244014348540       -1.30007064518806        3.03383742779216      S 
        0.58330762759870        0.78078782165329        3.91935299736515      O 
        0.75905723872506       -2.92457190474158        1.35395118387563      O 
        4.29559407132478        0.00821047815220        1.31775880712807      O 
        3.53272959289451       -2.58697656121979        5.01490462975554      O 
       -0.35955307488519       -0.76506908647782       -4.93411472341289      O 
       -0.32347461324083       -0.86776096058191       -6.74083452849789      H 
       -1.02453902136357        5.03631708744626        1.87824200025660      O 
       -0.20781481328502        3.67001747904764        2.84388767256064      H 
       -0.27421436810427        6.58024686934085        2.45356752022541      H 
       -3.43264172944404       -2.82636737262833       -1.35018190066497      O 
       -1.96740210745326       -3.44477843224932       -0.40312316033455      H 
       -3.94726786160577       -0.80076665285525        0.63384568256639      H 
       -2.69196512241451       -2.08936814425505       -2.86863106820667      H 
        1.79066995543893        2.83107185483378       -1.86530627561989      O 
        3.37794361284057        1.11351716092970        0.11174677716306      H 
        0.83733044056302        1.77480411455998       -3.02959588411569      H 
        0.58535290720154        3.79547486988888       -0.86780012251184      H 
        3.27800940862441       -3.40449683578154       -2.85237169077130      O 
        1.05183001114805       -1.85307533853818       -4.31401905665982      H 
        4.81224935360160       -2.48882818944897       -2.53078517040800      H 
        2.42586609512770       -3.50067918260579       -1.19549628295853      H 
       -3.92691445116442        0.50470094212184        2.20846900753630      N 
       -2.03945174992297        0.39159557904022        3.04136013963438      H 
       -5.25506157533579        0.03441153525495        3.50793869819851      H 
       -4.14207993255972        2.33165349540114        1.63339730120430      H 
$end
 
 Bond Distances (Angstroems)
 ---------------------------
S1-O2=1.4905         S1-O3=1.4704         S1-O4=1.5689         S1-O5=1.4194         O2-S1=1.4905         O3-S1=1.4704         
O4-S1=1.5689         O4-H16=0.9926        O5-S1=1.4194         O6-H7=0.9578         O6-H20=0.9985        H7-O6=0.9578         
O8-H9=0.9852         O8-H10=0.9580        H9-O8=0.9852         H10-O8=0.9580        O11-H12=0.9795       O11-H14=0.9754       
H12-O11=0.9795       H13-N23=1.0824       H14-O11=0.9754       O15-H17=0.9729       O15-H18=0.9726       H16-O4=0.9926        
H17-O15=0.9729       H18-O15=0.9726       O19-H21=0.9607       O19-H22=0.9873       H20-O6=0.9985        H21-O19=0.9607       
H22-O19=0.9873       N23-H13=1.0824       N23-H24=1.0934       N23-H25=1.0143       N23-H26=1.0199       H24-N23=1.0934       
H25-N23=1.0143       H26-N23=1.0199       
 N  H  Rav=1.0525 sigma=0.0357  Rmin=1.0143  Rmax=1.0934     4
 O  H  Rav=0.9764 sigma=0.0132  Rmin=0.9578  Rmax=0.9985    11
 S  O  Rav=1.4873 sigma=0.0538  Rmin=1.4194  Rmax=1.5689     4
 
 selected bond angles (degree)
 --------------------
O3-S1-O2=107.42                O4-S1-O2=105.35                O4-S1-O3=106.20                O5-S1-O2=113.86                
O5-S1-O3=114.98                O5-S1-O4=108.33                H16-O4-S1=107.26               H20-O6-H7=106.29               
H10-O8-H9=106.21               
 
 selected dihedral angles (degree)
 ---------------------------------
H16-O4-S1-O2=310.94           H16-O4-S1-O3= 64.71           H16-O4-S1-O5=188.73           
 
 CMA Distance (Angstroems)
 ---------------------------
R(CMA):  2.7321

========================================================================
 FINAL SINGLEPOINT CALCULATION ON OPTIMIZED GEOMETRY
========================================================================

 Ncao       : 65
 Nao        : 64
 Nshell     : 38
 Nel        : 80
 T(el)      :   300.0
 intcut     :    25.0
 scfconv/Eh :  0.100E-05
   qconv/e  :  0.100E-03
 intneglect :  0.100E-07
 broydamp   :      0.250
 iter      E             dE          RMSdq      gap      omega  full diag
   1    -50.7419300 -0.507419E+02  0.791E-05    8.93       0.0  T
   2    -50.7419300 -0.299138E-11  0.546E-05    8.93     358.9  T
   3    -50.7419300 -0.220979E-11  0.126E-05    8.93    1560.5  T
speedup  0.97
cpu  time for SCC    0.00 s
wall time for SCC    0.00 s

   *** convergence criteria satisfied after 3 iterations ***

          eigenvalues
 #    :          28         29         30         31         32         33         34         35
 occ. :        2.000      2.000      2.000      2.000      2.000      2.000      2.000      2.000
 eps  :       -13.419    -12.774    -12.557    -12.473    -12.429    -12.262    -12.137    -12.020
 #    :          36         37         38         39         40         41         42         43
 occ. :        2.000      2.000      2.000      2.000      2.000      0.000      0.000      0.000
 eps  :       -11.976    -11.849    -11.692    -11.431    -11.234     -2.301     -0.996      0.063
 #    :          44         45         46         47         48         49         50         51
 occ. :        0.000      0.000      0.000      0.000      0.000      0.000      0.000      0.000
 eps  :         0.277      1.023      1.552      1.844      3.175      3.629      4.074      4.455


   #   Z            q   n(s)   n(p)   n(d)      C6AA      α(0)
   1  16 S      1.640  1.583  1.812  0.965    90.138    15.979
   2   8 O     -0.761  1.772  4.989  0.000    30.403     7.394
   3   8 O     -0.770  1.769  5.001  0.000    30.703     7.429
   4   8 O     -0.628  1.763  4.865  0.000    25.832     6.861
   5   8 O     -0.668  1.761  4.907  0.000    27.860     7.077
   6   8 O     -0.633  1.752  4.881  0.000    26.005     6.882
   7   1 H      0.285  0.715  0.000  0.000     0.767     1.376
   8   8 O     -0.626  1.746  4.880  0.000    25.828     6.859
   9   1 H      0.335  0.665  0.000  0.000     0.625     1.242
  10   1 H      0.287  0.713  0.000  0.000     0.761     1.371
  11   8 O     -0.608  1.754  4.854  0.000    25.373     6.799
  12   1 H      0.338  0.662  0.000  0.000     0.617     1.234
  13   1 H      0.303  0.697  0.000  0.000     0.703     1.313
  14   1 H      0.328  0.672  0.000  0.000     0.642     1.259
  15   8 O     -0.635  1.759  4.875  0.000    26.035     6.887
  16   1 H      0.376  0.624  0.000  0.000     0.528     1.140
  17   1 H      0.324  0.676  0.000  0.000     0.652     1.269
  18   1 H      0.317  0.683  0.000  0.000     0.671     1.287
  19   8 O     -0.618  1.749  4.869  0.000    25.627     6.832
  20   1 H      0.345  0.655  0.000  0.000     0.602     1.219
  21   1 H      0.297  0.703  0.000  0.000     0.729     1.341
  22   1 H      0.329  0.671  0.000  0.000     0.640     1.257
  23   7 N     -0.345  1.279  4.066  0.000    28.855     7.978
  24   1 H      0.308  0.692  0.000  0.000     0.689     1.299
  25   1 H      0.228  0.772  0.000  0.000     0.974     1.546
  26   1 H      0.252  0.748  0.000  0.000     0.874     1.465

 Mol. C6AA /au·bohr⁶  :       5449.923392
 Mol. C8AA /au·bohr⁸  :     118077.413218
 Mol. α(0) /au        :        106.593499

 
 Wiberg/Mayer (AO) data. WBOs > 0.1 written file <wbo>
 largest (>0.05) Wiberg bond orders for each atom
           total WBO             WBO to atom ...
     1  S   4.907    O    5 1.486    O    3 1.252    O    2 1.175    O    4 0.948
     2  O   1.749    S    1 1.175    H   24 0.160    O    5 0.101    O    3 0.096    O    4 0.072    N   23 0.061    H    9 0.059
     3  O   1.698    S    1 1.252    O    5 0.110    O    2 0.096    O    4 0.078    H   22 0.072
     4  O   1.960    S    1 0.948    H   16 0.739    O    3 0.078    O    2 0.072    O    5 0.072
     5  O   1.791    S    1 1.486    O    3 0.110    O    2 0.101    O    4 0.072
     6  O   1.869    H    7 0.911    H   20 0.788
     7  H   0.919    O    6 0.911
     8  O   1.852    H   10 0.913    H    9 0.822
     9  H   0.888    O    8 0.822    O    2 0.059
    10  H   0.918    O    8 0.913
    11  O   1.961    H   14 0.845    H   12 0.837    H   13 0.155    N   23 0.071
    12  H   0.886    O   11 0.837
    13  H   0.908    N   23 0.748    O   11 0.155
    14  H   0.892    O   11 0.845
    15  O   1.889    H   18 0.851    H   17 0.847    H   16 0.102
    16  H   0.859    O    4 0.739    O   15 0.102
    17  H   0.895    O   15 0.847
    18  H   0.899    O   15 0.851
    19  O   1.890    H   21 0.903    H   22 0.815    H   20 0.091
    20  H   0.881    O    6 0.788    O   19 0.091
    21  H   0.912    O   19 0.903
    22  H   0.892    O   19 0.815    O    3 0.072
    23  N   3.509    H   25 0.945    H   26 0.924    H   13 0.748    H   24 0.735    O   11 0.071    O    2 0.061
    24  H   0.905    N   23 0.735    O    2 0.160
    25  H   0.948    N   23 0.945
    26  H   0.936    N   23 0.924
 MOs/occ written to file <molden.input>
 
molecular dipole:
                 x           y           z       tot (Debye)
 q only:       -2.769       1.595      -1.124
   full:       -2.293       1.838      -1.034       7.920
molecular quadrupole (traceless):
                xx          xy          yy          xz          yz          zz
 q only:        5.009       2.100      -2.447     -16.565       8.915      -2.562
  q+dip:        3.147       1.280      -2.803     -16.654      10.594      -0.344
   full:        3.187       1.275      -3.009     -16.717      10.443      -0.178

SCC energy    :     -50.7419300
rep           :       0.2839129
ES            :       0.2717186
AES           :      -0.0700920
AXC           :      -0.0085571
disp          :      -0.0197874
XB            :       0.0000000
fix           :       0.0000000
total E       :     -50.4576356
atomizationE  :       4.9879398     3129.98
(atE without considering molecular charge,
 total energy contains solvation terms)
H-L gap (eV)  :          8.9330
optimized geometry written to: xtbopt.xyz


------------------------------------------------------------------------
 * finished run on 2019/09/16 at 12:11:04.034     
------------------------------------------------------------------------
 total:
 * wall-time:     0 d,  0 h,  0 min,  1.480 sec
 *  cpu-time:     0 d,  0 h,  0 min,  1.464 sec
 * ratio c/w:     0.989 speedup
 SCF:
 * wall-time:     0 d,  0 h,  0 min,  0.161 sec
 *  cpu-time:     0 d,  0 h,  0 min,  0.158 sec
 * ratio c/w:     0.982 speedup
 ANC optimizer:
 * wall-time:     0 d,  0 h,  0 min,  1.291 sec
 *  cpu-time:     0 d,  0 h,  0 min,  1.280 sec
 * ratio c/w:     0.992 speedup

