      -----------------------------------------------------------      
     |                   =====================                   |     
     |                           x T B                           |     
     |                   =====================                   |     
     |                         S. Grimme                         |     
     |          Mulliken Center for Theoretical Chemistry        |     
     |                    University of Bonn                     |     
     |                 Version 6.0.1 (SAW181210)                 |     
      -----------------------------------------------------------      

   This program is distributed in the hope that it will be useful,
   but WITHOUT ANY WARRANTY; without even the implied warranty of
   MERCHANTABILITY or FITNESS FOR A PARTICULAR PURPOSE.
   
   FOR NON-COMMERCIAL, ACADEMIA USE ONLY.
   
   Cite this work as:
   S. Grimme, C. Bannwarth, P. Shushkov, J. Comput. Theory Chem., 2017,
   13, 1989-2009.
   C. Bannwarth, S. Ehlert and S. Grimme., ChemRxiv, 2018, preprint.
   http://doi.org/10.26434/chemrxiv.7246238.v1
   
   for sTDA-xTB:
   S. Grimme and C. Bannwarth, J. Chem. Phys., 2016, 145, 054103.
   
   in the mass-spec context:
   V. Asgeirsson, C. Bauer and S. Grimme, Chem. Sci., 2017, 8, 4879.
   
   if GBSA is used:
   P. Shushkov, F. März and S. Grimme, unpublished.
   
   for ANC optimizer:
   S. Grimme, unpublished.
   Rational Function algorithm used in ANCopt:
   F. Eckert, P. Pulay, H.-J. Werner, J. Comput. Chem., 1997, 18, 1473.
   
   with help from (in alphabetical order)
   C. Bannwarth, F. Bohle, G. Brandenburg, E. Caldeweyher, M. Checinski,
   S. Dohm, S. Ehlert, S. Ehrlich, F. März, H. Neugebauer, J. Pisarek,
   P. Pracht, P. Shushkov, and S. Spicher.
   
 * started run on 2019/09/16 at 11:38:11.782     
========================================================================
 # omp threads = 1
========================================================================
number of atoms            : 26
number of electrons        : 80
charge                     : 0
spin                       : .0
first test random number   : .4850

########################################################################
# WARNING! Please study the warnings concerning your input carefully
#  - XTBPATH is not set, using XTBHOME instead
#  - the use of '-opt' is discouraged, please use '--opt' next time
#  - the use of '-chrg' is discouraged, please use '--chrg' next time
#  - the use of '-uhf' is discouraged, please use '--uhf' next time
########################################################################

           ------------------------------------------------- 
          |                 G F N 2 - x T B                 |
          | Geometry, Frequencies, Noncovalent interactions |
          |            JCTC 2018 parametrisation            |
           ------------------------------------------------- 
      method parameters     
 k(s)        :  1.8500
 k(p)        :  2.2300
 k(d)        :  2.2300
 k(f)        :  2.0000
 kEN (H0ij)  : -2.0000
 D4 a1       :  0.5200
 D4 a2       :  5.0000
 D4 s6       :  1.0000
 D4 s8       :  2.7000
 D4 s9       :  5.0000
 alphaj      :  2.0000


            Z     q(EN)     CN     RAES       Cart. coordinates
     1  S   6.0    0.68    4.09    3.84     1.85809     0.27845    -2.75391
     2  O   6.0   -0.33    1.24    1.80    -0.91021     0.67424    -2.42531
     3  O   6.0   -0.31    1.25    1.80     2.63736    -2.06746    -1.40574
     4  O   6.0   -0.30    1.21    1.80     2.45140     0.02686    -5.49486
     5  O   6.0   -0.31    1.21    1.80     3.25382     2.48018    -1.68973
     6  O   6.0   -0.39    1.67    1.81    -0.67372    -0.73459     5.12274
     7  H   1.0    0.17    0.95    1.42    -0.65666    -0.26618     6.92941
     8  O   6.0   -0.29    2.05    1.83     2.27800     5.70943     1.93584
     9  H   1.0    0.15    0.97    1.43     3.61106     6.89063     2.31312
    10  H   1.0    0.18    1.06    1.44     2.90212     4.70520     0.55142
    11  O   6.0   -0.28    1.98    1.82    -2.56314    -5.04571     4.63144
    12  H   1.0    0.17    1.11    1.45    -2.04296    -3.32078     4.89343
    13  H   1.0    0.14    0.97    1.43    -4.20865    -5.17434     5.39979
    14  O   6.0   -0.22    2.92    2.60    -1.51619     2.57686     2.12693
    15  H   1.0    0.15    1.08    1.44    -1.60797     1.86025     0.40417
    16  H   1.0    0.16    1.21    1.47    -1.29565     1.25221     3.42565
    17  H   1.0    0.14    1.06    1.44    -0.21437     3.91057     2.26103
    18  O   6.0   -0.22    2.91    2.57     2.14053    -3.69915     3.12491
    19  H   1.0    0.13    0.97    1.43     1.15320    -5.28500     3.13403
    20  H   1.0    0.16    1.08    1.44     2.61244    -3.17788     1.39413
    21  H   1.0    0.16    1.19    1.46     1.27322    -2.33012     4.05499
    22  N   5.0   -0.14    3.93    2.70    -2.09635     0.14727    -7.58670
    23  H   1.0    0.10    1.01    1.43    -2.89800     0.40542    -5.83309
    24  H   1.0    0.08    0.99    1.43    -2.77605    -1.49629    -8.37483
    25  H   1.0    0.08    0.99    1.43    -2.54815     1.65186    -8.73410
    26  H   1.0    0.12    1.08    1.44    -0.16318     0.02808    -7.40477

  Z AO/shell   Hii/eV     exponent
  1     Wed Apr 25 08:07:45 CEST 2018   EN: 2.200 GM2: 0.406  GM3: 0.0800  RAES: 1.40
     1s    -10.707211    1.230000
  7     Wed Apr 25 08:07:45 CEST 2018   EN: 3.040 GM2: 0.461  GM3:-0.0640  RAES: 1.90
     2s    -16.686243    2.339881
     2p    -12.523956    2.014332
  8     Wed Apr 25 08:07:45 CEST 2018   EN: 3.440 GM2: 0.452  GM3:-0.0517  RAES: 1.80
     2s    -20.229985    2.439742
     2p    -15.503117    2.137023
 16     Tue Apr 24 11:44:34 CEST 2018   EN: 2.580 GM2: 0.340  GM3:-0.0502  RAES: 3.10
     3s    -20.029654    1.981333
     3p    -11.377694    2.025643
     3d     -0.420282    1.702555
 no old-style atom pair restraining (fixing) potential

molecular fragmentation (1/2 indicates fragments):
11111222222222222222222222
# atoms in fragment 1/2:     5    21
 fragment masses (1/2) :       96.06      109.12
CMA distance (Bohr)    :   4.872
constraining FC (au)   :  0.0500
           ------------------------------------------------- 
          |        Self-Consistent Charge Iterations        |
           ------------------------------------------------- 

 Ncao       : 65
 Nao        : 64
 Nshell     : 38
 Nel        : 80
 T(el)      :   300.0
 intcut     :    25.0
 scfconv/Eh :  0.100E-05
   qconv/e  :  0.100E-03
 intneglect :  0.100E-07
 broydamp   :      0.250
 iter      E             dE          RMSdq      gap      omega  full diag
   1    -50.5383794 -0.505384E+02  0.702E+00   10.31       0.0  T
   2    -50.5811537 -0.427743E-01  0.505E+00    9.86       1.0  T
   3    -50.6180411 -0.368874E-01  0.112E+00    6.73       1.0  T
   4    -50.6219361 -0.389501E-02  0.544E-01    6.82       1.0  T
   5    -50.6226773 -0.741261E-03  0.237E-01    6.66       1.0  T
   6    -50.6229205 -0.243207E-03  0.116E-01    6.69       1.0  T
   7    -50.6230016 -0.810229E-04  0.420E-02    6.76       1.0  T
   8    -50.6230085 -0.690439E-05  0.263E-02    6.76       1.0  T
   9    -50.6230124 -0.390302E-05  0.818E-03    6.76       2.4  T
  10    -50.6230127 -0.286807E-06  0.176E-03    6.75      11.1  T
  11    -50.6230127 -0.142028E-07  0.901E-04    6.76      21.8  T
  12    -50.6230127 -0.396847E-08  0.327E-04    6.76      59.9  T
speedup  0.95
cpu  time for SCC    0.01 s
wall time for SCC    0.01 s

   *** convergence criteria satisfied after 12 iterations ***

          eigenvalues
 #    :          28         29         30         31         32         33         34         35
 occ. :        2.000      2.000      2.000      2.000      2.000      2.000      2.000      2.000
 eps  :       -11.835    -11.422    -11.000    -10.580    -10.426    -10.324     -9.968     -9.752
 #    :          36         37         38         39         40         41         42         43
 occ. :        2.000      2.000      2.000      2.000      2.000      0.000      0.000      0.000
 eps  :        -9.660     -9.564     -9.405     -9.165     -9.041     -2.286     -0.547      0.707
 #    :          44         45         46         47         48         49         50         51
 occ. :        0.000      0.000      0.000      0.000      0.000      0.000      0.000      0.000
 eps  :         0.976      2.210      2.517      2.791      2.981      3.202      3.548      4.760


   #   Z            q   n(s)   n(p)   n(d)      C6AA      α(0)
   1  16 S      1.468  1.605  1.916  1.011    94.228    16.338
   2   8 O     -0.809  1.771  5.039  0.000    31.868     7.569
   3   8 O     -0.780  1.771  5.009  0.000    30.988     7.464
   4   8 O     -0.778  1.778  5.000  0.000    30.928     7.456
   5   8 O     -0.779  1.780  4.999  0.000    30.950     7.459
   6   8 O     -0.848  1.829  5.019  0.000    32.997     7.704
   7   1 H      0.210  0.790  0.000  0.000     1.069     1.625
   8   8 O     -0.627  1.729  4.898  0.000    25.839     6.861
   9   1 H      0.282  0.718  0.000  0.000     0.778     1.385
  10   1 H      0.343  0.657  0.000  0.000     0.605     1.222
  11   8 O     -0.656  1.752  4.904  0.000    26.571     6.957
  12   1 H      0.328  0.672  0.000  0.000     0.641     1.257
  13   1 H      0.255  0.745  0.000  0.000     0.872     1.467
  14   8 O     -0.459  1.658  4.802  0.000    21.979     6.332
  15   1 H      0.390  0.610  0.000  0.000     0.503     1.114
  16   1 H      0.399  0.601  0.000  0.000     0.479     1.083
  17   1 H      0.400  0.600  0.000  0.000     0.484     1.093
  18   8 O     -0.432  1.653  4.779  0.000    21.422     6.251
  19   1 H      0.384  0.616  0.000  0.000     0.516     1.129
  20   1 H      0.408  0.592  0.000  0.000     0.471     1.078
  21   1 H      0.411  0.589  0.000  0.000     0.460     1.063
  22   7 N     -0.252  1.237  4.015  0.000    26.533     7.650
  23   1 H      0.302  0.698  0.000  0.000     0.707     1.317
  24   1 H      0.257  0.743  0.000  0.000     0.858     1.451
  25   1 H      0.256  0.744  0.000  0.000     0.860     1.453
  26   1 H      0.327  0.673  0.000  0.000     0.638     1.251

 Mol. C6AA /au·bohr⁶  :       5513.082664
 Mol. C8AA /au·bohr⁸  :     120005.819066
 Mol. α(0) /au        :        107.029192

 
 Wiberg/Mayer (AO) data. WBOs > 0.1 written file <wbo>
 largest (>0.05) Wiberg bond orders for each atom
           total WBO             WBO to atom ...
     1  S   5.036    O    5 1.283    O    4 1.258    O    3 1.250    O    2 1.206
     2  O   1.662    S    1 1.206    O    5 0.097    H   15 0.097    O    3 0.093    O    4 0.091
     3  O   1.683    S    1 1.250    H   20 0.113    O    5 0.100    O    2 0.093    O    4 0.085
     4  O   1.690    S    1 1.258    H   26 0.104    O    2 0.091    O    5 0.090    O    3 0.085
     5  O   1.665    S    1 1.283    O    3 0.100    O    2 0.097    O    4 0.090    H   10 0.065
     6  O   1.617    H    7 0.947    H   16 0.198    H   21 0.185    H   12 0.106    O   14 0.062    O   18 0.059
     7  H   0.956    O    6 0.947
     8  O   1.841    H    9 0.904    H   10 0.813    H   17 0.068
     9  H   0.920    O    8 0.904
    10  H   0.882    O    8 0.813    O    5 0.065
    11  O   1.779    H   13 0.930    H   12 0.783
    12  H   0.892    O   11 0.783    O    6 0.106
    13  H   0.935    O   11 0.930
    14  O   2.283    H   17 0.763    H   15 0.743    H   16 0.638    O    6 0.062
    15  H   0.848    O   14 0.743    O    2 0.097
    16  H   0.840    O   14 0.638    O    6 0.198
    17  H   0.840    O   14 0.763    O    8 0.068
    18  O   2.303    H   19 0.835    H   20 0.709    H   21 0.641    O    6 0.059
    19  H   0.853    O   18 0.835
    20  H   0.834    O   18 0.709    O    3 0.113
    21  H   0.831    O   18 0.641    O    6 0.185
    22  N   3.584    H   25 0.929    H   24 0.929    H   23 0.876    H   26 0.780
    23  H   0.909    N   22 0.876
    24  H   0.934    N   22 0.929
    25  H   0.934    N   22 0.929
    26  H   0.893    N   22 0.780    O    4 0.104
 MOs/occ written to file <molden.input>
 
molecular dipole:
                 x           y           z       tot (Debye)
 q only:       -3.275       0.025      -1.828
   full:       -3.202       0.175      -1.825       9.378
molecular quadrupole (traceless):
                xx          xy          yy          xz          yz          zz
 q only:      -18.398      -3.803     -11.457      35.551       0.644      29.855
  q+dip:      -18.452       0.867     -14.411      34.018       0.717      32.863
   full:      -18.582       1.122     -14.269      33.745       1.022      32.850

SCC energy    :     -50.6230127
rep           :       0.2822841
ES            :       0.3980931
AES           :      -0.0794159
AXC           :      -0.0097215
disp          :      -0.0167771
XB            :       0.0000000
fix           :       0.0000000
total E       :     -50.3405287
atomizationE  :       4.8708329     3056.49
(atE without considering molecular charge,
 total energy contains solvation terms)
H-L gap (eV)  :          6.7558
           ------------------------------------------------- 
          |                 ===============                 |
          |                   A N C O P T                   |
          |                 ===============                 |
          |          Approximate Normal Coordinate          |
          |           Rational Function Optimizer           |
           ------------------------------------------------- 
dumping coords to <xtbopt.coord> and <xtbopt.log>
 optlevel               2
 Maxcycle             520
 Maxmicro              25
 Econv         1.000000000000000E-007
 Gconv         2.000000000000000E-004
 Maxdispl       1.00000000000000     
 Hlow          5.000000000000000E-003
 S6             20.0000000000000     
 Nvar               72

generating ANC from model Hessian ...
 Shifting diagonal of input Hessian by   5.106670673752793E-003
 Lowest  eigenvalues of input Hessian
    0.005000   -0.000000   -0.000000    0.000000    0.000000    0.000000
    0.000000    0.005274    0.005420    0.005683    0.006132    0.006217
    0.006533    0.006662    0.007109    0.007384    0.008201    0.008243
 Highest eigenvalues
    1.561691    1.582617    1.590042    3.085833    3.088891    3.091730
 
cpu  time for ANC gen    0.01 s
wall time for ANC gen    0.01 s
................................................................................
.............................. CYCLE    1 ......................................
................................................................................
   1    -50.6230127 -0.506230E+02  0.860E-05    6.76       0.0  T
   2    -50.6230127 -0.154046E-10  0.685E-05    6.76     286.4  T
   3    -50.6230127 -0.162927E-10  0.309E-05    6.76     634.6  T
speedup  0.69
cpu  time for SCC    0.00 s
wall time for SCC    0.00 s
speedup  0.92
cpu  time for grad    0.01 s
wall time for grad    0.01 s
 E :    -50.34052869  G :  0.181740    pred/act E change:  0.000D+00 -0.243D-08
Maxdispl :   0.2374   ||displ|| :   0.4470   Lambda : -0.409D-01
Largest |displ|/coords:  0.2374 (  19)  0.1115 (  24)  0.0965 (  55)
................................................................................
.............................. CYCLE    2 ......................................
................................................................................
   1    -50.6336305 -0.506336E+02  0.310E-01    7.12       0.0  T
   2    -50.6340498 -0.419307E-03  0.227E-01    7.25       1.0  T
   3    -50.6342280 -0.178161E-03  0.983E-02    7.48       1.0  T
   4    -50.6342443 -0.163028E-04  0.281E-02    7.52       1.0  T
   5    -50.6342455 -0.126643E-05  0.822E-03    7.51       2.4  T
   6    -50.6342457 -0.135782E-06  0.425E-03    7.51       4.6  T
   7    -50.6342457 -0.664109E-07  0.188E-03    7.51      10.4  T
speedup  0.95
cpu  time for SCC    0.01 s
wall time for SCC    0.01 s
speedup  1.01
cpu  time for grad    0.01 s
wall time for grad    0.01 s
 E :    -50.37441121  G :  0.107999    pred/act E change:  0.000D+00 -0.339D-01
Maxdispl :   0.3338   ||displ|| :   0.5257   Lambda : -0.254D-01
Largest |displ|/coords:  0.3338 (  19)  0.1608 (   7)  0.1259 (  31)
................................................................................
.............................. CYCLE    3 ......................................
................................................................................
   1    -50.6425632 -0.506426E+02  0.329E-01    7.92       0.0  T
   2    -50.6433213 -0.758056E-03  0.233E-01    8.06       1.0  T
   3    -50.6436074 -0.286156E-03  0.120E-01    8.24       1.0  T
   4    -50.6436253 -0.178969E-04  0.327E-02    8.30       1.0  T
   5    -50.6436267 -0.136333E-05  0.100E-02    8.30       2.0  T
   6    -50.6436269 -0.213920E-06  0.523E-03    8.30       3.7  T
   7    -50.6436270 -0.101845E-06  0.234E-03    8.30       8.4  T
speedup  1.09
cpu  time for SCC    0.01 s
wall time for SCC    0.01 s
speedup  1.00
cpu  time for grad    0.01 s
wall time for grad    0.01 s
 E :    -50.39519575  G :  0.073131    pred/act E change: -0.245D-01 -0.208D-01
Maxdispl :   0.3257   ||displ|| :   0.5020   Lambda : -0.142D-01
Largest |displ|/coords:  0.3257 (  19)  0.2134 (   7)  0.1698 (   8)
................................................................................
.............................. CYCLE    4 ......................................
................................................................................
   1    -50.6488716 -0.506489E+02  0.311E-01    8.54       0.0  T
   2    -50.6496154 -0.743806E-03  0.219E-01    8.61       1.0  T
   3    -50.6498790 -0.263559E-03  0.123E-01    8.69       1.0  T
   4    -50.6498957 -0.167519E-04  0.341E-02    8.73       1.0  T
   5    -50.6498974 -0.170931E-05  0.959E-03    8.73       2.0  T
   6    -50.6498976 -0.183734E-06  0.486E-03    8.73       4.0  T
   7    -50.6498977 -0.772023E-07  0.210E-03    8.73       9.3  T
speedup  0.97
cpu  time for SCC    0.01 s
wall time for SCC    0.01 s
speedup  1.02
cpu  time for grad    0.01 s
wall time for grad    0.01 s
 E :    -50.40622274  G :  0.053125    pred/act E change: -0.162D-01 -0.110D-01
Maxdispl :   0.1784   ||displ|| :   0.3889   Lambda : -0.652D-02
Largest |displ|/coords:  0.1784 (   7)  0.1753 (  19)  0.1667 (   8)
................................................................................
.............................. CYCLE    5 ......................................
................................................................................
   1    -50.6537447 -0.506537E+02  0.259E-01    8.88       0.0  T
   2    -50.6540741 -0.329341E-03  0.185E-01    8.91       1.0  T
   3    -50.6541965 -0.122448E-03  0.887E-02    8.95       1.0  T
   4    -50.6542050 -0.843754E-05  0.239E-02    8.97       1.0  T
   5    -50.6542065 -0.154291E-05  0.586E-03    8.97       3.3  T
   6    -50.6542066 -0.671984E-07  0.325E-03    8.96       6.0  T
speedup  1.09
cpu  time for SCC    0.01 s
wall time for SCC    0.01 s
speedup  1.00
cpu  time for grad    0.01 s
wall time for grad    0.01 s
 E :    -50.41134092  G :  0.041896    pred/act E change: -0.889D-02 -0.512D-02
Maxdispl :   0.1797   ||displ|| :   0.4733   Lambda : -0.789D-02
Largest |displ|/coords:  0.1797 (  19)  0.1385 (  17)  0.1305 (  23)
................................................................................
.............................. CYCLE    6 ......................................
................................................................................
   1    -50.6644633 -0.506645E+02  0.405E-01    9.18       0.0  T
   2    -50.6655386 -0.107527E-02  0.284E-01    9.21       1.0  T
   3    -50.6659399 -0.401292E-03  0.146E-01    9.26       1.0  T
   4    -50.6659625 -0.226607E-04  0.381E-02    9.29       1.0  T
   5    -50.6659654 -0.286215E-05  0.110E-02    9.29       1.8  T
   6    -50.6659656 -0.192810E-06  0.609E-03    9.28       3.2  T
   7    -50.6659656 -0.676112E-07  0.179E-03    9.28      11.0  T
   8    -50.6659656 -0.854149E-08  0.610E-04    9.28      32.2  T
speedup  0.96
cpu  time for SCC    0.01 s
wall time for SCC    0.01 s
speedup  0.94
cpu  time for grad    0.01 s
wall time for grad    0.01 s
 E :    -50.41637724  G :  0.033292    pred/act E change: -0.375D-02 -0.504D-02
Maxdispl :   0.2468   ||displ|| :   0.5428   Lambda : -0.595D-02
Largest |displ|/coords:  0.2468 (   9)  0.1973 (  13)  0.1646 (  18)
................................................................................
.............................. CYCLE    7 ......................................
................................................................................
   1    -50.6687223 -0.506687E+02  0.518E-01    9.37       0.0  T
   2    -50.6693643 -0.641973E-03  0.382E-01    9.38       1.0  T
   3    -50.6696022 -0.237904E-03  0.138E-01    9.39       1.0  T
   4    -50.6696492 -0.470396E-04  0.339E-02    9.40       1.0  T
   5    -50.6696529 -0.368744E-05  0.898E-03    9.40       2.2  T
   6    -50.6696530 -0.120883E-06  0.562E-03    9.40       3.5  T
   7    -50.6696531 -0.402245E-07  0.139E-03    9.40      14.1  T
speedup  0.97
cpu  time for SCC    0.01 s
wall time for SCC    0.01 s
speedup  1.02
cpu  time for grad    0.01 s
wall time for grad    0.01 s
 E :    -50.41938445  G :  0.048367    pred/act E change: -0.483D-02 -0.301D-02
Maxdispl :   0.1373   ||displ|| :   0.4100   Lambda : -0.518D-02
Largest |displ|/coords:  0.1373 (  18)  0.1307 (  15)  0.1241 (  14)
................................................................................
.............................. CYCLE    8 ......................................
................................................................................
   1    -50.6854345 -0.506854E+02  0.371E-01    9.42       0.0  T
   2    -50.6856416 -0.207041E-03  0.282E-01    9.42       1.0  T
   3    -50.6857203 -0.786955E-04  0.870E-02    9.40       1.0  T
   4    -50.6857455 -0.252158E-04  0.286E-02    9.41       1.0  T
   5    -50.6857471 -0.165729E-05  0.665E-03    9.41       2.9  T
   6    -50.6857472 -0.498111E-07  0.357E-03    9.41       5.5  T
   7    -50.6857472 -0.180783E-07  0.117E-03    9.41      16.8  T
speedup  0.97
cpu  time for SCC    0.01 s
wall time for SCC    0.01 s
speedup  1.02
cpu  time for grad    0.01 s
wall time for grad    0.01 s
 E :    -50.42179635  G :  0.046699    pred/act E change: -0.385D-02 -0.241D-02
Maxdispl :   0.1531   ||displ|| :   0.4314   Lambda : -0.554D-02
Largest |displ|/coords:  0.1531 (  20)  0.1374 (   6)  0.1280 (  39)
................................................................................
.............................. CYCLE    9 ......................................
................................................................................
   1    -50.6928012 -0.506928E+02  0.399E-01    9.27       0.0  T
   2    -50.6930084 -0.207161E-03  0.301E-01    9.19       1.0  T
   3    -50.6931271 -0.118715E-03  0.930E-02    9.02       1.0  T
   4    -50.6931543 -0.272122E-04  0.280E-02    9.04       1.0  T
   5    -50.6931552 -0.911583E-06  0.994E-03    9.05       2.0  T
   6    -50.6931554 -0.123247E-06  0.477E-03    9.05       4.1  T
   7    -50.6931554 -0.422875E-07  0.145E-03    9.05      13.6  T
speedup  0.98
cpu  time for SCC    0.01 s
wall time for SCC    0.01 s
speedup  1.01
cpu  time for grad    0.01 s
wall time for grad    0.01 s
 E :    -50.42307969  G :  0.057903    pred/act E change: -0.303D-02 -0.128D-02
Maxdispl :   0.1733   ||displ|| :   0.3632   Lambda : -0.124D-01
Largest |displ|/coords:  0.1733 (  19)  0.1149 (  25)  0.0943 (  24)
................................................................................
.............................. CYCLE   10 ......................................
................................................................................
   1    -50.6735115 -0.506735E+02  0.349E-01    9.22       0.0  T
   2    -50.6741015 -0.590036E-03  0.247E-01    9.23       1.0  T
   3    -50.6743450 -0.243455E-03  0.123E-01    9.22       1.0  T
   4    -50.6743774 -0.323986E-04  0.379E-02    9.20       1.0  T
   5    -50.6743796 -0.227765E-05  0.128E-02    9.20       1.5  T
   6    -50.6743800 -0.380481E-06  0.610E-03    9.20       3.2  T
   7    -50.6743801 -0.634670E-07  0.172E-03    9.20      11.4  T
   8    -50.6743801 -0.709340E-08  0.466E-04    9.20      42.1  T
speedup  1.13
cpu  time for SCC    0.01 s
wall time for SCC    0.01 s
speedup  1.02
cpu  time for grad    0.01 s
wall time for grad    0.01 s
 E :    -50.42266754  G :  0.042797    pred/act E change: -0.328D-02  0.412D-03
Maxdispl :   0.1542   ||displ|| :   0.2388   Lambda : -0.487D-02
Largest |displ|/coords:  0.1542 (   9)  0.0623 (   6)  0.0519 (  39)
................................................................................
.............................. CYCLE   11 ......................................
................................................................................
   1    -50.6863033 -0.506863E+02  0.298E-01    9.25       0.0  T
   2    -50.6864122 -0.108809E-03  0.224E-01    9.25       1.0  T
   3    -50.6864617 -0.495377E-04  0.657E-02    9.25       1.0  T
   4    -50.6864773 -0.156058E-04  0.194E-02    9.25       1.0  T
   5    -50.6864777 -0.398779E-06  0.626E-03    9.25       3.1  T
   6    -50.6864777 -0.343162E-07  0.317E-03    9.25       6.2  T
   7    -50.6864777 -0.144248E-07  0.831E-04    9.25      23.6  T
speedup  1.13
cpu  time for SCC    0.01 s
wall time for SCC    0.01 s
speedup  1.01
cpu  time for grad    0.01 s
wall time for grad    0.01 s
 E :    -50.42604120  G :  0.026579    pred/act E change: -0.701D-02 -0.337D-02
Maxdispl :   0.1666   ||displ|| :   0.4991   Lambda : -0.572D-02
Largest |displ|/coords:  0.1666 (  14)  0.1564 (  15)  0.1522 (  20)
................................................................................
.............................. CYCLE   12 ......................................
................................................................................
   1    -50.6927551 -0.506928E+02  0.514E-01    9.16       0.0  T
   2    -50.6931776 -0.422492E-03  0.379E-01    9.05       1.0  T
   3    -50.6934074 -0.229776E-03  0.124E-01    8.84       1.0  T
   4    -50.6934530 -0.456393E-04  0.329E-02    8.86       1.0  T
   5    -50.6934543 -0.123769E-05  0.120E-02    8.86       1.6  T
   6    -50.6934545 -0.290410E-06  0.590E-03    8.86       3.3  T
   7    -50.6934546 -0.527649E-07  0.205E-03    8.86       9.6  T
speedup  0.81
cpu  time for SCC    0.00 s
wall time for SCC    0.01 s
speedup  0.87
cpu  time for grad    0.01 s
wall time for grad    0.01 s
 E :    -50.42204750  G :  0.096131    pred/act E change: -0.257D-02  0.399D-02
Maxdispl :   0.1744   ||displ|| :   0.4674   Lambda : -0.272D-01
Largest |displ|/coords:  0.1744 (  14)  0.1638 (  19)  0.1300 (  20)
................................................................................
.............................. CYCLE   13 ......................................
................................................................................
   1    -50.6822103 -0.506822E+02  0.602E-01    9.14       0.0  T
   2    -50.6829264 -0.716075E-03  0.433E-01    9.19       1.0  T
   3    -50.6833242 -0.397810E-03  0.154E-01    9.20       1.0  T
   4    -50.6833842 -0.599543E-04  0.423E-02    9.19       1.0  T
   5    -50.6833876 -0.344329E-05  0.167E-02    9.19       1.2  T
   6    -50.6833880 -0.371221E-06  0.736E-03    9.19       2.7  T
   7    -50.6833881 -0.106133E-06  0.226E-03    9.19       8.7  T
   8    -50.6833881 -0.113306E-07  0.678E-04    9.19      28.9  T
speedup  1.00
cpu  time for SCC    0.01 s
wall time for SCC    0.01 s
speedup  0.97
cpu  time for grad    0.01 s
wall time for grad    0.01 s
 E :    -50.42268387  G :  0.076391    pred/act E change: -0.357D-02 -0.636D-03
Maxdispl :   0.1603   ||displ|| :   0.3883   Lambda : -0.139D-01
Largest |displ|/coords:  0.1603 (  14)  0.1071 (   1)  0.1045 (  20)
................................................................................
.............................. CYCLE   14 ......................................
................................................................................
   1    -50.6819848 -0.506820E+02  0.533E-01    9.17       0.0  T
   2    -50.6823003 -0.315459E-03  0.393E-01    9.15       1.0  T
   3    -50.6824774 -0.177114E-03  0.104E-01    9.12       1.0  T
   4    -50.6825142 -0.367892E-04  0.243E-02    9.14       1.0  T
   5    -50.6825150 -0.872717E-06  0.979E-03    9.14       2.0  T
   6    -50.6825153 -0.226540E-06  0.481E-03    9.14       4.1  T
   7    -50.6825153 -0.493033E-07  0.146E-03    9.14      13.4  T
speedup  1.00
cpu  time for SCC    0.01 s
wall time for SCC    0.01 s
speedup  0.96
cpu  time for grad    0.01 s
wall time for grad    0.01 s
 E :    -50.42539511  G :  0.062006    pred/act E change: -0.166D-01 -0.271D-02
Maxdispl :   0.1836   ||displ|| :   0.3987   Lambda : -0.104D-01
Largest |displ|/coords:  0.1836 (   6)  0.1225 (  14)  0.1207 (   1)
................................................................................
.............................. CYCLE   15 ......................................
................................................................................
   1    -50.6970215 -0.506970E+02  0.520E-01    9.21       0.0  T
   2    -50.6972121 -0.190608E-03  0.391E-01    9.18       1.0  T
   3    -50.6973430 -0.130820E-03  0.793E-02    9.09       1.0  T
   4    -50.6973693 -0.263769E-04  0.202E-02    9.11       1.0  T
   5    -50.6973699 -0.587848E-06  0.874E-03    9.11       2.2  T
   6    -50.6973700 -0.549484E-07  0.381E-03    9.11       5.1  T
   7    -50.6973700 -0.307774E-07  0.780E-04    9.11      25.1  T
speedup  0.98
cpu  time for SCC    0.01 s
wall time for SCC    0.01 s
speedup  0.95
cpu  time for grad    0.01 s
wall time for grad    0.01 s
 E :    -50.42613063  G :  0.064134    pred/act E change: -0.799D-02 -0.736D-03
Maxdispl :   0.1684   ||displ|| :   0.3742   Lambda : -0.950D-02
Largest |displ|/coords:  0.1684 (   9)  0.1299 (   7)  0.1075 (   3)
................................................................................
.............................. CYCLE   16 ......................................
................................................................................
   1    -50.6863299 -0.506863E+02  0.548E-01    9.15       0.0  T
   2    -50.6864885 -0.158622E-03  0.414E-01    9.17       1.0  T
   3    -50.6865985 -0.109925E-03  0.728E-02    9.18       1.0  T
   4    -50.6866222 -0.236873E-04  0.173E-02    9.18       1.1  T
   5    -50.6866226 -0.446263E-06  0.787E-03    9.18       2.5  T
   6    -50.6866227 -0.741958E-07  0.323E-03    9.18       6.1  T
   7    -50.6866227 -0.251478E-07  0.879E-04    9.18      22.3  T
speedup  0.94
cpu  time for SCC    0.01 s
wall time for SCC    0.01 s
speedup  1.01
cpu  time for grad    0.01 s
wall time for grad    0.01 s
 E :    -50.42728740  G :  0.041969    pred/act E change: -0.603D-02 -0.116D-02
Maxdispl :   0.0858   ||displ|| :   0.1596   Lambda : -0.255D-02
Largest |displ|/coords:  0.0858 (   6)  0.0619 (  12)  0.0401 (  11)
................................................................................
.............................. CYCLE   17 ......................................
................................................................................
   1    -50.6924169 -0.506924E+02  0.151E-01    9.20       0.0  T
   2    -50.6924388 -0.219625E-04  0.113E-01    9.18       1.0  T
   3    -50.6924529 -0.140926E-04  0.291E-02    9.14       1.0  T
   4    -50.6924558 -0.288963E-05  0.888E-03    9.15       2.2  T
   5    -50.6924559 -0.112940E-06  0.312E-03    9.15       6.3  T
   6    -50.6924559 -0.117576E-07  0.159E-03    9.15      12.4  T
speedup  1.09
cpu  time for SCC    0.01 s
wall time for SCC    0.01 s
speedup  1.00
cpu  time for grad    0.01 s
wall time for grad    0.01 s
 E :    -50.42890875  G :  0.013053    pred/act E change: -0.542D-02 -0.162D-02
Maxdispl :   0.1284   ||displ|| :   0.2054   Lambda : -0.712D-03
Largest |displ|/coords:  0.1284 (   6)  0.0710 (   8)  0.0625 (  12)
................................................................................
.............................. CYCLE   18 ......................................
................................................................................
   1    -50.6929153 -0.506929E+02  0.210E-01    9.11       0.0  T
   2    -50.6929257 -0.104109E-04  0.159E-01    9.10       1.0  T
   3    -50.6929342 -0.850570E-05  0.182E-02    9.06       1.1  T
   4    -50.6929357 -0.150044E-05  0.660E-03    9.07       3.0  T
   5    -50.6929357 -0.335495E-07  0.229E-03    9.07       8.5  T
   6    -50.6929357 -0.597286E-08  0.122E-03    9.07      16.0  T
speedup  0.93
cpu  time for SCC    0.00 s
wall time for SCC    0.01 s
speedup  0.99
cpu  time for grad    0.01 s
wall time for grad    0.01 s
 E :    -50.42938187  G :  0.013180    pred/act E change: -0.131D-02 -0.473D-03
Maxdispl :   0.1447   ||displ|| :   0.2539   Lambda : -0.692D-03
Largest |displ|/coords:  0.1447 (   6)  0.0761 (  12)  0.0724 (   5)
................................................................................
.............................. CYCLE   19 ......................................
................................................................................
   1    -50.6932789 -0.506933E+02  0.190E-01    9.09       0.0  T
   2    -50.6932900 -0.110917E-04  0.144E-01    9.08       1.0  T
   3    -50.6932986 -0.858180E-05  0.181E-02    9.04       1.1  T
   4    -50.6933002 -0.159883E-05  0.623E-03    9.05       3.1  T
   5    -50.6933002 -0.487971E-07  0.238E-03    9.05       8.2  T
   6    -50.6933002 -0.573019E-08  0.130E-03    9.05      15.1  T
speedup  0.94
cpu  time for SCC    0.01 s
wall time for SCC    0.01 s
speedup  1.01
cpu  time for grad    0.01 s
wall time for grad    0.01 s
 E :    -50.42989301  G :  0.020409    pred/act E change: -0.371D-03 -0.511D-03
Maxdispl :   0.2349   ||displ|| :   0.4261   Lambda : -0.121D-02
Largest |displ|/coords:  0.2349 (   6)  0.1418 (   2)  0.1363 (   4)
................................................................................
.............................. CYCLE   20 ......................................
................................................................................
   1    -50.6957818 -0.506958E+02  0.226E-01    9.05       0.0  T
   2    -50.6958039 -0.221213E-04  0.170E-01    9.03       1.0  T
   3    -50.6958195 -0.156607E-04  0.262E-02    8.98       1.0  T
   4    -50.6958228 -0.325985E-05  0.925E-03    8.98       2.1  T
   5    -50.6958229 -0.135533E-06  0.331E-03    8.99       5.9  T
   6    -50.6958229 -0.135753E-07  0.182E-03    8.99      10.8  T
speedup  1.11
cpu  time for SCC    0.01 s
wall time for SCC    0.01 s
speedup  1.00
cpu  time for grad    0.01 s
wall time for grad    0.01 s
 E :    -50.43084784  G :  0.020803    pred/act E change: -0.368D-03 -0.955D-03
Maxdispl :   0.2441   ||displ|| :   0.4874   Lambda : -0.137D-02
Largest |displ|/coords:  0.2441 (   6)  0.1787 (   9)  0.1624 (   3)
................................................................................
.............................. CYCLE   21 ......................................
................................................................................
   1    -50.6952179 -0.506952E+02  0.271E-01    8.95       0.0  T
   2    -50.6952543 -0.363843E-04  0.203E-01    8.93       1.0  T
   3    -50.6952777 -0.233943E-04  0.339E-02    8.87       1.0  T
   4    -50.6952830 -0.523505E-05  0.106E-02    8.87       1.8  T
   5    -50.6952832 -0.198896E-06  0.402E-03    8.88       4.9  T
   6    -50.6952832 -0.185312E-07  0.217E-03    8.88       9.0  T
speedup  0.93
cpu  time for SCC    0.00 s
wall time for SCC    0.01 s
speedup  1.01
cpu  time for grad    0.01 s
wall time for grad    0.01 s
 E :    -50.43176285  G :  0.021265    pred/act E change: -0.716D-03 -0.915D-03
Maxdispl :   0.1842   ||displ|| :   0.4230   Lambda : -0.129D-02
Largest |displ|/coords:  0.1842 (   6)  0.1762 (   9)  0.1656 (   3)
................................................................................
.............................. CYCLE   22 ......................................
................................................................................
   1    -50.6996717 -0.506997E+02  0.284E-01    8.90       0.0  T
   2    -50.6997205 -0.488345E-04  0.213E-01    8.88       1.0  T
   3    -50.6997481 -0.276147E-04  0.405E-02    8.83       1.0  T
   4    -50.6997552 -0.706177E-05  0.115E-02    8.83       1.7  T
   5    -50.6997555 -0.258052E-06  0.423E-03    8.83       4.6  T
   6    -50.6997555 -0.156924E-07  0.225E-03    8.83       8.7  T
speedup  1.09
cpu  time for SCC    0.01 s
wall time for SCC    0.01 s
speedup  1.00
cpu  time for grad    0.01 s
wall time for grad    0.01 s
 E :    -50.43232919  G :  0.030939    pred/act E change: -0.847D-03 -0.566D-03
Maxdispl :   0.1651   ||displ|| :   0.3513   Lambda : -0.160D-02
Largest |displ|/coords:  0.1651 (   2)  0.1410 (   3)  0.1313 (   6)
................................................................................
.............................. CYCLE   23 ......................................
................................................................................
   1    -50.7059025 -0.507059E+02  0.198E-01    8.90       0.0  T
   2    -50.7059591 -0.566115E-04  0.146E-01    8.88       1.0  T
   3    -50.7059882 -0.290873E-04  0.450E-02    8.85       1.0  T
   4    -50.7059935 -0.525297E-05  0.119E-02    8.85       1.7  T
   5    -50.7059939 -0.400453E-06  0.398E-03    8.85       4.9  T
   6    -50.7059939 -0.145610E-07  0.208E-03    8.85       9.4  T
speedup  0.89
cpu  time for SCC    0.00 s
wall time for SCC    0.01 s
speedup  0.98
cpu  time for grad    0.01 s
wall time for grad    0.01 s
 E :    -50.43312997  G :  0.026224    pred/act E change: -0.761D-03 -0.801D-03
Maxdispl :   0.2418   ||displ|| :   0.4944   Lambda : -0.240D-02
Largest |displ|/coords:  0.2418 (   9)  0.2085 (   6)  0.1236 (   8)
................................................................................
.............................. CYCLE   24 ......................................
................................................................................
   1    -50.6932984 -0.506933E+02  0.397E-01    8.80       0.0  T
   2    -50.6934187 -0.120279E-03  0.296E-01    8.77       1.0  T
   3    -50.6934855 -0.668703E-04  0.628E-02    8.71       1.0  T
   4    -50.6935020 -0.164577E-04  0.150E-02    8.72       1.3  T
   5    -50.6935023 -0.348757E-06  0.632E-03    8.72       3.1  T
   6    -50.6935024 -0.392533E-07  0.330E-03    8.72       5.9  T
   7    -50.6935024 -0.188244E-07  0.625E-04    8.72      31.4  T
speedup  0.97
cpu  time for SCC    0.01 s
wall time for SCC    0.01 s
speedup  1.01
cpu  time for grad    0.01 s
wall time for grad    0.01 s
 E :    -50.43276876  G :  0.050691    pred/act E change: -0.897D-03  0.361D-03
Maxdispl :   0.1719   ||displ|| :   0.3568   Lambda : -0.747D-02
Largest |displ|/coords:  0.1719 (   9)  0.1701 (   5)  0.0963 (   4)
................................................................................
.............................. CYCLE   25 ......................................
................................................................................
   1    -50.7168660 -0.507169E+02  0.386E-01    8.67       0.0  T
   2    -50.7170116 -0.145586E-03  0.287E-01    8.67       1.0  T
   3    -50.7171023 -0.907382E-04  0.717E-02    8.69       1.0  T
   4    -50.7171166 -0.142620E-04  0.166E-02    8.68       1.2  T
   5    -50.7171172 -0.623374E-06  0.693E-03    8.68       2.8  T
   6    -50.7171172 -0.126873E-07  0.348E-03    8.68       5.6  T
   7    -50.7171173 -0.208919E-07  0.529E-04    8.68      37.1  T
speedup  0.97
cpu  time for SCC    0.01 s
wall time for SCC    0.01 s
speedup  0.94
cpu  time for grad    0.01 s
wall time for grad    0.01 s
 E :    -50.43259276  G :  0.065189    pred/act E change: -0.149D-02  0.176D-03
Maxdispl :   0.1056   ||displ|| :   0.2927   Lambda : -0.771D-02
Largest |displ|/coords:  0.1056 (   5)  0.0893 (  13)  0.0827 (  18)

generating ANC from model Hessian ...
 Shifting diagonal of input Hessian by   4.975221948944245E-003
 Lowest  eigenvalues of input Hessian
   -0.000000   -0.000000   -0.000000    0.000000    0.000000    0.000000
    0.005000    0.005198    0.005232    0.005657    0.006192    0.006473
    0.006541    0.006811    0.007584    0.007775    0.009112    0.010279
 Highest eigenvalues
    1.363611    1.364807    1.377860    2.851912    3.402984    3.627292
 
cpu  time for ANC gen    0.01 s
wall time for ANC gen    0.01 s
................................................................................
.............................. CYCLE   26 ......................................
................................................................................
   1    -50.7006232 -0.507006E+02  0.347E-01    8.95       0.0  T
   2    -50.7007781 -0.154851E-03  0.254E-01    8.94       1.0  T
   3    -50.7008625 -0.844345E-04  0.718E-02    8.92       1.0  T
   4    -50.7008761 -0.135740E-04  0.163E-02    8.92       1.2  T
   5    -50.7008767 -0.646071E-06  0.624E-03    8.92       3.1  T
   6    -50.7008768 -0.342976E-07  0.366E-03    8.92       5.4  T
   7    -50.7008768 -0.153496E-07  0.648E-04    8.92      30.3  T
   8    -50.7008768 -0.832713E-09  0.178E-04    8.92     110.5  T
speedup  1.01
cpu  time for SCC    0.01 s
wall time for SCC    0.01 s
speedup  0.99
cpu  time for grad    0.01 s
wall time for grad    0.02 s
 E :    -50.43400199  G :  0.045634    pred/act E change:  0.000D+00 -0.141D-02
Maxdispl :   0.1095   ||displ|| :   0.2190   Lambda : -0.269D-02
Largest |displ|/coords:  0.1095 (  21)  0.0637 (   9)  0.0570 (   3)
................................................................................
.............................. CYCLE   27 ......................................
................................................................................
   1    -50.7081043 -0.507081E+02  0.117E-01    8.90       0.0  T
   2    -50.7081230 -0.187637E-04  0.865E-02    8.92       1.0  T
   3    -50.7081322 -0.913684E-05  0.261E-02    8.95       1.0  T
   4    -50.7081337 -0.154699E-05  0.809E-03    8.95       2.4  T
   5    -50.7081339 -0.148597E-06  0.211E-03    8.95       9.3  T
   6    -50.7081339 -0.458655E-08  0.127E-03    8.95      15.5  T
speedup  1.13
cpu  time for SCC    0.01 s
wall time for SCC    0.01 s
speedup  1.02
cpu  time for grad    0.01 s
wall time for grad    0.01 s
 E :    -50.43589446  G :  0.021095    pred/act E change:  0.000D+00 -0.189D-02
Maxdispl :   0.1225   ||displ|| :   0.2997   Lambda : -0.157D-02
Largest |displ|/coords:  0.1225 (  15)  0.1115 (  21)  0.1024 (   2)
................................................................................
.............................. CYCLE   28 ......................................
................................................................................
   1    -50.7123198 -0.507123E+02  0.212E-01    8.91       0.0  T
   2    -50.7123482 -0.283252E-04  0.156E-01    8.93       1.0  T
   3    -50.7123645 -0.162981E-04  0.292E-02    8.99       1.0  T
   4    -50.7123676 -0.318884E-05  0.101E-02    8.98       1.9  T
   5    -50.7123678 -0.163836E-06  0.304E-03    8.98       6.5  T
   6    -50.7123678 -0.103501E-07  0.168E-03    8.98      11.6  T
speedup  0.94
cpu  time for SCC    0.00 s
wall time for SCC    0.01 s
speedup  0.93
cpu  time for grad    0.01 s
wall time for grad    0.01 s
 E :    -50.43681621  G :  0.021532    pred/act E change: -0.141D-02 -0.922D-03
Maxdispl :   0.1372   ||displ|| :   0.3316   Lambda : -0.103D-02
Largest |displ|/coords:  0.1372 (   7)  0.1371 (   3)  0.1201 (   2)
................................................................................
.............................. CYCLE   29 ......................................
................................................................................
   1    -50.7116893 -0.507117E+02  0.231E-01    8.96       0.0  T
   2    -50.7117040 -0.146390E-04  0.174E-01    8.97       1.0  T
   3    -50.7117152 -0.112236E-04  0.218E-02    9.01       1.0  T
   4    -50.7117173 -0.209421E-05  0.779E-03    9.00       2.5  T
   5    -50.7117174 -0.757269E-07  0.274E-03    9.00       7.2  T
   6    -50.7117174 -0.676533E-08  0.149E-03    9.00      13.2  T
speedup  0.94
cpu  time for SCC    0.00 s
wall time for SCC    0.01 s
speedup  1.01
cpu  time for grad    0.01 s
wall time for grad    0.01 s
 E :    -50.43764496  G :  0.020409    pred/act E change: -0.855D-03 -0.829D-03
Maxdispl :   0.2811   ||displ|| :   0.6050   Lambda : -0.190D-02
Largest |displ|/coords:  0.2811 (   3)  0.1974 (   5)  0.1911 (   2)
................................................................................
.............................. CYCLE   30 ......................................
................................................................................
   1    -50.7037078 -0.507037E+02  0.470E-01    8.94       0.0  T
   2    -50.7037765 -0.687986E-04  0.353E-01    8.96       1.0  T
   3    -50.7038385 -0.619615E-04  0.473E-02    9.01       1.0  T
   4    -50.7038466 -0.804058E-05  0.152E-02    9.00       1.3  T
   5    -50.7038468 -0.246225E-06  0.635E-03    9.00       3.1  T
   6    -50.7038468 -0.524783E-07  0.301E-03    9.00       6.5  T
   7    -50.7038469 -0.183438E-07  0.692E-04    9.00      28.3  T
speedup  0.98
cpu  time for SCC    0.01 s
wall time for SCC    0.01 s
speedup  1.02
cpu  time for grad    0.01 s
wall time for grad    0.01 s
 E :    -50.43801406  G :  0.041034    pred/act E change: -0.569D-03 -0.369D-03
Maxdispl :   0.1644   ||displ|| :   0.3573   Lambda : -0.373D-02
Largest |displ|/coords:  0.1644 (  11)  0.1213 (   2)  0.1053 (   5)
................................................................................
.............................. CYCLE   31 ......................................
................................................................................
   1    -50.7101703 -0.507102E+02  0.401E-01    8.99       0.0  T
   2    -50.7102397 -0.693950E-04  0.305E-01    8.99       1.0  T
   3    -50.7103067 -0.669618E-04  0.457E-02    9.00       1.0  T
   4    -50.7103139 -0.718434E-05  0.113E-02    9.00       1.7  T
   5    -50.7103140 -0.140430E-06  0.591E-03    9.00       3.3  T
   6    -50.7103140 -0.340811E-07  0.243E-03    9.00       8.1  T
speedup  1.15
cpu  time for SCC    0.01 s
wall time for SCC    0.01 s
speedup  1.01
cpu  time for grad    0.01 s
wall time for grad    0.01 s
 E :    -50.43872846  G :  0.039302    pred/act E change: -0.130D-02 -0.714D-03
Maxdispl :   0.2891   ||displ|| :   0.3946   Lambda : -0.317D-02
Largest |displ|/coords:  0.2891 (   5)  0.1339 (  18)  0.0969 (   4)
................................................................................
.............................. CYCLE   32 ......................................
................................................................................
   1    -50.7207066 -0.507207E+02  0.442E-01    9.06       0.0  T
   2    -50.7207481 -0.414724E-04  0.334E-01    9.06       1.0  T
   3    -50.7207803 -0.321977E-04  0.348E-02    9.04       1.0  T
   4    -50.7207858 -0.551940E-05  0.117E-02    9.04       1.7  T
   5    -50.7207860 -0.200570E-06  0.458E-03    9.04       4.3  T
   6    -50.7207860 -0.864478E-08  0.232E-03    9.04       8.5  T
speedup  0.96
cpu  time for SCC    0.01 s
wall time for SCC    0.01 s
speedup  0.94
cpu  time for grad    0.01 s
wall time for grad    0.01 s
 E :    -50.43927616  G :  0.034709    pred/act E change: -0.210D-02 -0.548D-03
Maxdispl :   0.1366   ||displ|| :   0.2576   Lambda : -0.142D-02
Largest |displ|/coords:  0.1366 (   3)  0.1014 (  10)  0.0855 (   4)
................................................................................
.............................. CYCLE   33 ......................................
................................................................................
   1    -50.7187785 -0.507188E+02  0.141E-01    9.07       0.0  T
   2    -50.7187874 -0.885394E-05  0.106E-01    9.07       1.0  T
   3    -50.7187931 -0.571114E-05  0.187E-02    9.08       1.0  T
   4    -50.7187944 -0.129959E-05  0.671E-03    9.08       2.9  T
   5    -50.7187945 -0.968116E-07  0.213E-03    9.08       9.2  T
   6    -50.7187945 -0.409791E-08  0.127E-03    9.08      15.5  T
speedup  0.96
cpu  time for SCC    0.00 s
wall time for SCC    0.01 s
speedup  1.01
cpu  time for grad    0.01 s
wall time for grad    0.01 s
 E :    -50.44035587  G :  0.019151    pred/act E change: -0.183D-02 -0.108D-02
Maxdispl :   0.2473   ||displ|| :   0.5098   Lambda : -0.159D-02
Largest |displ|/coords:  0.2473 (   3)  0.2158 (   2)  0.1546 (   4)
................................................................................
.............................. CYCLE   34 ......................................
................................................................................
   1    -50.7135218 -0.507135E+02  0.295E-01    9.05       0.0  T
   2    -50.7135668 -0.449418E-04  0.221E-01    9.07       1.0  T
   3    -50.7135976 -0.307949E-04  0.396E-02    9.09       1.0  T
   4    -50.7136038 -0.618711E-05  0.149E-02    9.08       1.3  T
   5    -50.7136041 -0.376033E-06  0.497E-03    9.08       3.9  T
   6    -50.7136042 -0.345203E-07  0.281E-03    9.08       7.0  T
   7    -50.7136042 -0.146291E-07  0.685E-04    9.08      28.6  T
speedup  0.98
cpu  time for SCC    0.01 s
wall time for SCC    0.01 s
speedup  1.02
cpu  time for grad    0.01 s
wall time for grad    0.01 s
 E :    -50.44111609  G :  0.024298    pred/act E change: -0.757D-03 -0.760D-03
Maxdispl :   0.1570   ||displ|| :   0.3702   Lambda : -0.123D-02
Largest |displ|/coords:  0.1570 (  10)  0.1351 (   5)  0.1263 (   3)
................................................................................
.............................. CYCLE   35 ......................................
................................................................................
   1    -50.7199969 -0.507200E+02  0.184E-01    9.10       0.0  T
   2    -50.7200245 -0.276608E-04  0.138E-01    9.09       1.0  T
   3    -50.7200425 -0.179611E-04  0.301E-02    9.06       1.0  T
   4    -50.7200462 -0.376372E-05  0.113E-02    9.07       1.7  T
   5    -50.7200465 -0.215864E-06  0.358E-03    9.07       5.5  T
   6    -50.7200465 -0.193936E-07  0.194E-03    9.07      10.1  T
speedup  1.11
cpu  time for SCC    0.01 s
wall time for SCC    0.01 s
speedup  0.99
cpu  time for grad    0.01 s
wall time for grad    0.01 s
 E :    -50.44177994  G :  0.022942    pred/act E change: -0.100D-02 -0.664D-03
Maxdispl :   0.1637   ||displ|| :   0.4258   Lambda : -0.126D-02
Largest |displ|/coords:  0.1637 (   6)  0.1607 (   2)  0.1352 (   4)
................................................................................
.............................. CYCLE   36 ......................................
................................................................................
   1    -50.7210534 -0.507211E+02  0.259E-01    9.05       0.0  T
   2    -50.7211000 -0.465950E-04  0.195E-01    9.06       1.0  T
   3    -50.7211267 -0.267074E-04  0.377E-02    9.07       1.0  T
   4    -50.7211337 -0.705375E-05  0.153E-02    9.06       1.3  T
   5    -50.7211342 -0.486634E-06  0.453E-03    9.06       4.3  T
   6    -50.7211343 -0.287350E-07  0.256E-03    9.06       7.7  T
speedup  0.94
cpu  time for SCC    0.00 s
wall time for SCC    0.01 s
speedup  1.01
cpu  time for grad    0.01 s
wall time for grad    0.01 s
 E :    -50.44254768  G :  0.020494    pred/act E change: -0.699D-03 -0.768D-03
Maxdispl :   0.1848   ||displ|| :   0.4432   Lambda : -0.170D-02
Largest |displ|/coords:  0.1848 (   4)  0.1569 (  18)  0.1562 (   2)
................................................................................
.............................. CYCLE   37 ......................................
................................................................................
   1    -50.7328272 -0.507328E+02  0.353E-01    9.18       0.0  T
   2    -50.7329305 -0.103320E-03  0.267E-01    9.16       1.0  T
   3    -50.7329867 -0.561750E-04  0.537E-02    9.12       1.0  T
   4    -50.7330028 -0.161704E-04  0.203E-02    9.12       1.0  T
   5    -50.7330038 -0.925199E-06  0.621E-03    9.12       3.2  T
   6    -50.7330038 -0.394153E-07  0.357E-03    9.12       5.5  T
   7    -50.7330038 -0.189797E-07  0.832E-04    9.12      23.6  T
speedup  0.95
cpu  time for SCC    0.01 s
wall time for SCC    0.01 s
speedup  1.01
cpu  time for grad    0.01 s
wall time for grad    0.01 s
 E :    -50.44287526  G :  0.033657    pred/act E change: -0.746D-03 -0.328D-03
Maxdispl :   0.1984   ||displ|| :   0.3965   Lambda : -0.182D-02
Largest |displ|/coords:  0.1984 (   3)  0.1829 (   2)  0.1135 (  10)
................................................................................
.............................. CYCLE   38 ......................................
................................................................................
   1    -50.7298794 -0.507299E+02  0.241E-01    9.01       0.0  T
   2    -50.7299188 -0.394269E-04  0.181E-01    9.00       1.0  T
   3    -50.7299457 -0.268700E-04  0.350E-02    8.99       1.0  T
   4    -50.7299512 -0.548780E-05  0.148E-02    8.99       1.3  T
   5    -50.7299516 -0.376074E-06  0.450E-03    8.99       4.4  T
   6    -50.7299516 -0.322768E-07  0.254E-03    8.99       7.7  T
speedup  1.11
cpu  time for SCC    0.01 s
wall time for SCC    0.01 s
speedup  1.00
cpu  time for grad    0.01 s
wall time for grad    0.01 s
 E :    -50.44400766  G :  0.017514    pred/act E change: -0.101D-02 -0.113D-02
Maxdispl :   0.1947   ||displ|| :   0.4371   Lambda : -0.121D-02
Largest |displ|/coords:  0.1947 (   2)  0.1736 (   6)  0.1428 (   9)
................................................................................
.............................. CYCLE   39 ......................................
................................................................................
   1    -50.7263399 -0.507263E+02  0.276E-01    8.81       0.0  T
   2    -50.7264065 -0.666203E-04  0.208E-01    8.83       1.0  T
   3    -50.7264421 -0.355666E-04  0.467E-02    8.86       1.0  T
   4    -50.7264522 -0.100866E-04  0.185E-02    8.85       1.1  T
   5    -50.7264528 -0.610653E-06  0.525E-03    8.84       3.7  T
   6    -50.7264528 -0.415771E-07  0.295E-03    8.85       6.6  T
   7    -50.7264529 -0.126777E-07  0.916E-04    8.85      21.4  T
speedup  0.97
cpu  time for SCC    0.01 s
wall time for SCC    0.01 s
speedup  1.01
cpu  time for grad    0.01 s
wall time for grad    0.01 s
 E :    -50.44429514  G :  0.024789    pred/act E change: -0.106D-02 -0.287D-03
Maxdispl :   0.0888   ||displ|| :   0.2385   Lambda : -0.119D-02
Largest |displ|/coords:  0.0888 (  18)  0.0824 (   1)  0.0661 (  14)
................................................................................
.............................. CYCLE   40 ......................................
................................................................................
   1    -50.7353600 -0.507354E+02  0.180E-01    8.98       0.0  T
   2    -50.7353852 -0.251520E-04  0.135E-01    8.96       1.0  T
   3    -50.7353983 -0.131296E-04  0.281E-02    8.92       1.0  T
   4    -50.7354022 -0.391292E-05  0.867E-03    8.93       2.3  T
   5    -50.7354024 -0.116721E-06  0.327E-03    8.93       6.0  T
   6    -50.7354024 -0.101994E-07  0.189E-03    8.93      10.4  T
speedup  0.93
cpu  time for SCC    0.00 s
wall time for SCC    0.01 s
speedup  1.00
cpu  time for grad    0.01 s
wall time for grad    0.01 s
 E :    -50.44488346  G :  0.018330    pred/act E change: -0.720D-03 -0.588D-03
Maxdispl :   0.0935   ||displ|| :   0.1999   Lambda : -0.765D-03
Largest |displ|/coords:  0.0935 (  18)  0.0920 (   2)  0.0662 (  15)
................................................................................
.............................. CYCLE   41 ......................................
................................................................................
   1    -50.7379207 -0.507379E+02  0.195E-01    8.93       0.0  T
   2    -50.7379326 -0.118952E-04  0.147E-01    8.93       1.0  T
   3    -50.7379427 -0.101584E-04  0.190E-02    8.92       1.0  T
   4    -50.7379440 -0.129617E-05  0.684E-03    8.92       2.9  T
   5    -50.7379441 -0.681035E-07  0.246E-03    8.93       8.0  T
   6    -50.7379441 -0.524050E-08  0.131E-03    8.93      14.9  T
speedup  1.11
cpu  time for SCC    0.01 s
wall time for SCC    0.01 s
speedup  1.07
cpu  time for grad    0.01 s
wall time for grad    0.01 s
 E :    -50.44504819  G :  0.017625    pred/act E change: -0.627D-03 -0.165D-03
Maxdispl :   0.0558   ||displ|| :   0.1403   Lambda : -0.520D-03
Largest |displ|/coords:  0.0558 (   1)  0.0504 (   7)  0.0434 (   4)
................................................................................
.............................. CYCLE   42 ......................................
................................................................................
   1    -50.7400436 -0.507400E+02  0.115E-01    8.92       0.0  T
   2    -50.7400490 -0.541399E-05  0.858E-02    8.93       1.0  T
   3    -50.7400531 -0.409782E-05  0.134E-02    8.95       1.5  T
   4    -50.7400538 -0.670918E-06  0.456E-03    8.94       4.3  T
   5    -50.7400538 -0.248825E-07  0.156E-03    8.94      12.6  T
   6    -50.7400538 -0.312884E-08  0.839E-04    8.94      23.4  T
speedup  1.07
cpu  time for SCC    0.01 s
wall time for SCC    0.01 s
speedup  0.98
cpu  time for grad    0.01 s
wall time for grad    0.01 s
 E :    -50.44532232  G :  0.011758    pred/act E change: -0.398D-03 -0.274D-03
Maxdispl :   0.1545   ||displ|| :   0.3286   Lambda : -0.508D-03
Largest |displ|/coords:  0.1545 (   1)  0.1075 (   6)  0.1044 (  17)
................................................................................
.............................. CYCLE   43 ......................................
................................................................................
   1    -50.7326345 -0.507326E+02  0.198E-01    8.87       0.0  T
   2    -50.7326598 -0.252745E-04  0.149E-01    8.87       1.0  T
   3    -50.7326761 -0.162923E-04  0.288E-02    8.87       1.0  T
   4    -50.7326798 -0.368004E-05  0.112E-02    8.86       1.7  T
   5    -50.7326800 -0.214419E-06  0.377E-03    8.86       5.2  T
   6    -50.7326800 -0.207803E-07  0.207E-03    8.86       9.5  T
   7    -50.7326800 -0.850546E-08  0.527E-04    8.86      37.2  T
speedup  0.97
cpu  time for SCC    0.01 s
wall time for SCC    0.01 s
speedup  0.94
cpu  time for grad    0.01 s
wall time for grad    0.01 s
 E :    -50.44526660  G :  0.022330    pred/act E change: -0.265D-03  0.557D-04
Maxdispl :   0.0978   ||displ|| :   0.1772   Lambda : -0.643D-03
Largest |displ|/coords:  0.0978 (   3)  0.0591 (   2)  0.0505 (  10)
................................................................................
.............................. CYCLE   44 ......................................
................................................................................
   1    -50.7376159 -0.507376E+02  0.993E-02    8.88       0.0  T
   2    -50.7376238 -0.797729E-05  0.737E-02    8.88       1.0  T
   3    -50.7376287 -0.482738E-05  0.167E-02    8.89       1.2  T
   4    -50.7376296 -0.985458E-06  0.556E-03    8.90       3.5  T
   5    -50.7376297 -0.550146E-07  0.194E-03    8.90      10.1  T
speedup  0.89
cpu  time for SCC    0.00 s
wall time for SCC    0.00 s
speedup  0.99
cpu  time for grad    0.01 s
wall time for grad    0.01 s
 E :    -50.44560485  G :  0.008453    pred/act E change: -0.281D-03 -0.338D-03
Maxdispl :   0.0947   ||displ|| :   0.2002   Lambda : -0.378D-03
Largest |displ|/coords:  0.0947 (   8)  0.0866 (   1)  0.0579 (  17)
................................................................................
.............................. CYCLE   45 ......................................
................................................................................
   1    -50.7385389 -0.507385E+02  0.119E-01    8.91       0.0  T
   2    -50.7385435 -0.456026E-05  0.893E-02    8.91       1.0  T
   3    -50.7385473 -0.385780E-05  0.126E-02    8.91       1.6  T
   4    -50.7385479 -0.567716E-06  0.365E-03    8.91       5.4  T
   5    -50.7385479 -0.177379E-07  0.161E-03    8.91      12.2  T
   6    -50.7385479 -0.335700E-08  0.695E-04    8.91      28.2  T
speedup  1.13
cpu  time for SCC    0.01 s
wall time for SCC    0.01 s
speedup  1.00
cpu  time for grad    0.01 s
wall time for grad    0.01 s
 E :    -50.44561944  G :  0.017568    pred/act E change: -0.332D-03 -0.146D-04
Maxdispl :   0.0815   ||displ|| :   0.1163   Lambda : -0.393D-03
Largest |displ|/coords:  0.0815 (   1)  0.0411 (   4)  0.0333 (   6)
................................................................................
.............................. CYCLE   46 ......................................
................................................................................
   1    -50.7390013 -0.507390E+02  0.628E-02    8.91       0.0  T
   2    -50.7390049 -0.363310E-05  0.463E-02    8.91       1.0  T
   3    -50.7390069 -0.203403E-05  0.107E-02    8.91       1.8  T
   4    -50.7390073 -0.395627E-06  0.274E-03    8.91       7.1  T
   5    -50.7390073 -0.135243E-07  0.117E-03    8.91      16.8  T
speedup  0.89
cpu  time for SCC    0.00 s
wall time for SCC    0.00 s
speedup  0.98
cpu  time for grad    0.01 s
wall time for grad    0.01 s
 E :    -50.44587080  G :  0.006670    pred/act E change: -0.196D-03 -0.251D-03
Maxdispl :   0.1527   ||displ|| :   0.2261   Lambda : -0.228D-03
Largest |displ|/coords:  0.1527 (   1)  0.0776 (   4)  0.0659 (   8)
................................................................................
.............................. CYCLE   47 ......................................
................................................................................
   1    -50.7369662 -0.507370E+02  0.114E-01    8.87       0.0  T
   2    -50.7369703 -0.410103E-05  0.857E-02    8.87       1.0  T
   3    -50.7369735 -0.322067E-05  0.117E-02    8.87       1.7  T
   4    -50.7369741 -0.543557E-06  0.381E-03    8.87       5.1  T
   5    -50.7369741 -0.189863E-07  0.152E-03    8.87      12.9  T
   6    -50.7369741 -0.311726E-08  0.822E-04    8.87      23.8  T
speedup  1.13
cpu  time for SCC    0.01 s
wall time for SCC    0.01 s
speedup  1.01
cpu  time for grad    0.01 s
wall time for grad    0.01 s
 E :    -50.44600462  G :  0.008187    pred/act E change: -0.199D-03 -0.134D-03
Maxdispl :   0.2122   ||displ|| :   0.2955   Lambda : -0.259D-03
Largest |displ|/coords:  0.2122 (   1)  0.0948 (   4)  0.0932 (   8)
................................................................................
.............................. CYCLE   48 ......................................
................................................................................
   1    -50.7356087 -0.507356E+02  0.119E-01    8.88       0.0  T
   2    -50.7356127 -0.394849E-05  0.901E-02    8.89       1.0  T
   3    -50.7356171 -0.443254E-05  0.130E-02    8.89       1.5  T
   4    -50.7356175 -0.343912E-06  0.448E-03    8.89       4.4  T
   5    -50.7356175 -0.231651E-07  0.148E-03    8.89      13.3  T
   6    -50.7356175 -0.317630E-08  0.838E-04    8.89      23.4  T
speedup  0.94
cpu  time for SCC    0.00 s
wall time for SCC    0.01 s
speedup  1.01
cpu  time for grad    0.01 s
wall time for grad    0.01 s
 E :    -50.44610528  G :  0.009487    pred/act E change: -0.120D-03 -0.101D-03
Maxdispl :   0.0867   ||displ|| :   0.1621   Lambda : -0.171D-03
Largest |displ|/coords:  0.0867 (   1)  0.0763 (   4)  0.0644 (   8)
................................................................................
.............................. CYCLE   49 ......................................
................................................................................
   1    -50.7382064 -0.507382E+02  0.618E-02    8.90       0.0  T
   2    -50.7382092 -0.284224E-05  0.455E-02    8.90       1.0  T
   3    -50.7382110 -0.183850E-05  0.107E-02    8.89       1.8  T
   4    -50.7382114 -0.319981E-06  0.283E-03    8.89       6.9  T
   5    -50.7382114 -0.139742E-07  0.123E-03    8.89      16.0  T
speedup  1.04
cpu  time for SCC    0.00 s
wall time for SCC    0.00 s
speedup  0.97
cpu  time for grad    0.01 s
wall time for grad    0.01 s
 E :    -50.44617533  G :  0.007052    pred/act E change: -0.141D-03 -0.701D-04
Maxdispl :   0.0251   ||displ|| :   0.0671   Lambda : -0.127D-03
Largest |displ|/coords:  0.0251 (   4)  0.0233 (   3)  0.0226 (  34)
................................................................................
.............................. CYCLE   50 ......................................
................................................................................
   1    -50.7389403 -0.507389E+02  0.472E-02    8.91       0.0  T
   2    -50.7389424 -0.204613E-05  0.352E-02    8.91       1.0  T
   3    -50.7389438 -0.138056E-05  0.817E-03    8.92       2.4  T
   4    -50.7389440 -0.251299E-06  0.266E-03    8.92       7.4  T
   5    -50.7389440 -0.124531E-07  0.110E-03    8.92      17.9  T
speedup  0.89
cpu  time for SCC    0.00 s
wall time for SCC    0.00 s
speedup  0.99
cpu  time for grad    0.01 s
wall time for grad    0.01 s
 E :    -50.44622910  G :  0.004608    pred/act E change: -0.878D-04 -0.538D-04
Maxdispl :   0.0272   ||displ|| :   0.0637   Lambda : -0.621D-04
Largest |displ|/coords:  0.0272 (   1)  0.0267 (   4)  0.0196 (   6)
................................................................................
.............................. CYCLE   51 ......................................
................................................................................
   1    -50.7382353 -0.507382E+02  0.392E-02    8.94       0.0  T
   2    -50.7382358 -0.471696E-06  0.297E-02    8.94       1.0  T
   3    -50.7382362 -0.472419E-06  0.375E-03    8.94       5.2  T
   4    -50.7382363 -0.522569E-07  0.107E-03    8.94      18.3  T
   5    -50.7382363 -0.118002E-08  0.509E-04    8.94      38.5  T
speedup  1.09
cpu  time for SCC    0.00 s
wall time for SCC    0.00 s
speedup  1.06
cpu  time for grad    0.01 s
wall time for grad    0.01 s
 E :    -50.44627016  G :  0.004115    pred/act E change: -0.639D-04 -0.411D-04
Maxdispl :   0.0571   ||displ|| :   0.1227   Lambda : -0.809D-04
Largest |displ|/coords:  0.0571 (   1)  0.0524 (   4)  0.0393 (   5)
................................................................................
.............................. CYCLE   52 ......................................
................................................................................
   1    -50.7385780 -0.507386E+02  0.646E-02    8.93       0.0  T
   2    -50.7385792 -0.113344E-05  0.481E-02    8.93       1.0  T
   3    -50.7385802 -0.108856E-05  0.770E-03    8.92       2.5  T
   4    -50.7385804 -0.104992E-06  0.182E-03    8.92      10.8  T
   5    -50.7385804 -0.692069E-08  0.778E-04    8.92      25.2  T
speedup  1.09
cpu  time for SCC    0.00 s
wall time for SCC    0.00 s
speedup  0.98
cpu  time for grad    0.01 s
wall time for grad    0.01 s
 E :    -50.44631914  G :  0.004910    pred/act E change: -0.312D-04 -0.490D-04
Maxdispl :   0.0594   ||displ|| :   0.1346   Lambda : -0.618D-04
Largest |displ|/coords:  0.0594 (   1)  0.0582 (   4)  0.0546 (   6)

generating ANC from model Hessian ...
 Shifting diagonal of input Hessian by   4.926211773189805E-003
 Lowest  eigenvalues of input Hessian
   -0.000000   -0.000000   -0.000000    0.000000    0.000000    0.000000
    0.005000    0.005109    0.005287    0.005744    0.006071    0.006483
    0.006745    0.006898    0.007127    0.007921    0.008369    0.008686
 Highest eigenvalues
    1.392815    1.412365    1.417158    2.745397    3.249644    3.780232
 
cpu  time for ANC gen    0.01 s
wall time for ANC gen    0.01 s
................................................................................
.............................. CYCLE   53 ......................................
................................................................................
   1    -50.7382597 -0.507383E+02  0.664E-02    8.96       0.0  T
   2    -50.7382603 -0.598532E-06  0.500E-02    8.96       1.0  T
   3    -50.7382610 -0.652870E-06  0.465E-03    8.96       4.2  T
   4    -50.7382611 -0.548777E-07  0.177E-03    8.96      11.1  T
   5    -50.7382611 -0.403579E-08  0.661E-04    8.96      29.7  T
   6    -50.7382611 -0.679663E-09  0.350E-04    8.96      56.1  T
speedup  0.93
cpu  time for SCC    0.00 s
wall time for SCC    0.01 s
speedup  1.03
cpu  time for grad    0.01 s
wall time for grad    0.01 s
 E :    -50.44635387  G :  0.004941    pred/act E change:  0.000D+00 -0.347D-04
Maxdispl :   0.0355   ||displ|| :   0.0765   Lambda : -0.741D-04
Largest |displ|/coords:  0.0355 (   2)  0.0304 (  12)  0.0299 (   6)
................................................................................
.............................. CYCLE   54 ......................................
................................................................................
   1    -50.7390957 -0.507391E+02  0.586E-02    8.96       0.0  T
   2    -50.7390964 -0.713994E-06  0.445E-02    8.96       1.0  T
   3    -50.7390971 -0.703862E-06  0.444E-03    8.96       4.4  T
   4    -50.7390972 -0.806673E-07  0.141E-03    8.96      13.9  T
   5    -50.7390972 -0.227323E-08  0.582E-04    8.96      33.7  T
speedup  0.89
cpu  time for SCC    0.00 s
wall time for SCC    0.00 s
speedup  0.99
cpu  time for grad    0.01 s
wall time for grad    0.01 s
 E :    -50.44640940  G :  0.002432    pred/act E change:  0.000D+00 -0.555D-04
Maxdispl :   0.0883   ||displ|| :   0.1801   Lambda : -0.105D-03
Largest |displ|/coords:  0.0883 (   2)  0.0845 (  12)  0.0573 (   8)
................................................................................
.............................. CYCLE   55 ......................................
................................................................................
   1    -50.7395236 -0.507395E+02  0.125E-01    8.95       0.0  T
   2    -50.7395260 -0.242252E-05  0.941E-02    8.95       1.0  T
   3    -50.7395284 -0.245417E-05  0.835E-03    8.95       2.3  T
   4    -50.7395287 -0.260607E-06  0.325E-03    8.95       6.0  T
   5    -50.7395287 -0.117828E-07  0.120E-03    8.95      16.3  T
   6    -50.7395287 -0.169383E-08  0.614E-04    8.95      31.9  T
   7    -50.7395287 -0.950017E-09  0.125E-04    8.95     157.4  T
speedup  0.97
cpu  time for SCC    0.01 s
wall time for SCC    0.01 s
speedup  0.95
cpu  time for grad    0.01 s
wall time for grad    0.01 s
 E :    -50.44647986  G :  0.002936    pred/act E change: -0.373D-04 -0.705D-04
Maxdispl :   0.1251   ||displ|| :   0.2405   Lambda : -0.940D-04
Largest |displ|/coords:  0.1251 (   2)  0.0970 (  12)  0.0839 (   8)
................................................................................
.............................. CYCLE   56 ......................................
................................................................................
   1    -50.7381373 -0.507381E+02  0.160E-01    8.94       0.0  T
   2    -50.7381414 -0.413979E-05  0.121E-01    8.94       1.0  T
   3    -50.7381457 -0.435501E-05  0.113E-02    8.95       1.7  T
   4    -50.7381462 -0.420250E-06  0.412E-03    8.95       4.8  T
   5    -50.7381462 -0.213106E-07  0.167E-03    8.95      11.7  T
   6    -50.7381462 -0.297646E-08  0.790E-04    8.95      24.8  T
   7    -50.7381462 -0.181849E-08  0.144E-04    8.95     136.2  T
speedup  0.97
cpu  time for SCC    0.01 s
wall time for SCC    0.01 s
speedup  1.03
cpu  time for grad    0.01 s
wall time for grad    0.01 s
 E :    -50.44651826  G :  0.007926    pred/act E change: -0.543D-04 -0.384D-04
Maxdispl :   0.0691   ||displ|| :   0.1252   Lambda : -0.108D-03
Largest |displ|/coords:  0.0691 (   2)  0.0653 (   8)  0.0319 (  12)
................................................................................
.............................. CYCLE   57 ......................................
................................................................................
   1    -50.7384446 -0.507384E+02  0.669E-02    8.94       0.0  T
   2    -50.7384454 -0.785401E-06  0.504E-02    8.94       1.0  T
   3    -50.7384462 -0.748436E-06  0.477E-03    8.94       4.1  T
   4    -50.7384462 -0.803543E-07  0.162E-03    8.94      12.1  T
   5    -50.7384462 -0.325880E-08  0.633E-04    8.94      31.0  T
speedup  1.14
cpu  time for SCC    0.00 s
wall time for SCC    0.00 s
speedup  0.98
cpu  time for grad    0.01 s
wall time for grad    0.01 s
 E :    -50.44658539  G :  0.003387    pred/act E change: -0.497D-04 -0.671D-04
Maxdispl :   0.1416   ||displ|| :   0.2573   Lambda : -0.117D-03
Largest |displ|/coords:  0.1416 (   2)  0.1143 (   8)  0.0935 (  12)
................................................................................
.............................. CYCLE   58 ......................................
................................................................................
   1    -50.7372991 -0.507373E+02  0.151E-01    8.94       0.0  T
   2    -50.7373027 -0.361750E-05  0.114E-01    8.94       1.0  T
   3    -50.7373069 -0.426558E-05  0.912E-03    8.94       2.2  T
   4    -50.7373072 -0.288904E-06  0.369E-03    8.94       5.3  T
   5    -50.7373072 -0.155690E-07  0.149E-03    8.94      13.1  T
   6    -50.7373073 -0.316304E-08  0.713E-04    8.94      27.5  T
   7    -50.7373073 -0.148350E-08  0.125E-04    8.94     157.0  T
speedup  0.97
cpu  time for SCC    0.01 s
wall time for SCC    0.01 s
speedup  1.03
cpu  time for grad    0.01 s
wall time for grad    0.01 s
 E :    -50.44666075  G :  0.004518    pred/act E change: -0.550D-04 -0.754D-04
Maxdispl :   0.1666   ||displ|| :   0.2967   Lambda : -0.130D-03
Largest |displ|/coords:  0.1666 (   2)  0.1036 (   8)  0.1034 (   3)
................................................................................
.............................. CYCLE   59 ......................................
................................................................................
   1    -50.7365348 -0.507365E+02  0.168E-01    8.96       0.0  T
   2    -50.7365396 -0.479673E-05  0.127E-01    8.96       1.0  T
   3    -50.7365450 -0.536888E-05  0.110E-02    8.96       1.8  T
   4    -50.7365455 -0.450675E-06  0.469E-03    8.96       4.2  T
   5    -50.7365455 -0.305506E-07  0.174E-03    8.96      11.3  T
   6    -50.7365455 -0.378900E-08  0.904E-04    8.96      21.7  T
speedup  0.94
cpu  time for SCC    0.00 s
wall time for SCC    0.01 s
speedup  1.00
cpu  time for grad    0.01 s
wall time for grad    0.01 s
 E :    -50.44673051  G :  0.005961    pred/act E change: -0.623D-04 -0.698D-04
Maxdispl :   0.0505   ||displ|| :   0.1026   Lambda : -0.968D-04
Largest |displ|/coords:  0.0505 (   2)  0.0400 (   3)  0.0305 (  12)
................................................................................
.............................. CYCLE   60 ......................................
................................................................................
   1    -50.7393107 -0.507393E+02  0.529E-02    8.99       0.0  T
   2    -50.7393113 -0.607298E-06  0.392E-02    8.99       1.0  T
   3    -50.7393118 -0.479865E-06  0.539E-03    8.98       3.6  T
   4    -50.7393119 -0.664138E-07  0.158E-03    8.98      12.4  T
   5    -50.7393119 -0.359118E-08  0.500E-04    8.98      39.3  T
speedup  0.87
cpu  time for SCC    0.00 s
wall time for SCC    0.00 s
speedup  0.98
cpu  time for grad    0.01 s
wall time for grad    0.01 s
 E :    -50.44678025  G :  0.002837    pred/act E change: -0.707D-04 -0.497D-04
Maxdispl :   0.2094   ||displ|| :   0.3537   Lambda : -0.122D-03
Largest |displ|/coords:  0.2094 (   2)  0.1344 (  12)  0.1183 (   3)
................................................................................
.............................. CYCLE   61 ......................................
................................................................................
   1    -50.7362041 -0.507362E+02  0.215E-01    8.97       0.0  T
   2    -50.7362113 -0.721265E-05  0.162E-01    8.97       1.0  T
   3    -50.7362183 -0.699531E-05  0.149E-02    8.97       1.3  T
   4    -50.7362192 -0.826484E-06  0.452E-03    8.97       4.3  T
   5    -50.7362192 -0.208292E-07  0.242E-03    8.97       8.1  T
   6    -50.7362192 -0.915366E-08  0.106E-03    8.97      18.5  T
   7    -50.7362192 -0.184690E-08  0.200E-04    8.97      98.1  T
   8    -50.7362192 -0.989999E-10  0.626E-05    8.97     313.3  T
speedup  0.99
cpu  time for SCC    0.01 s
wall time for SCC    0.01 s
speedup  0.97
cpu  time for grad    0.01 s
wall time for grad    0.02 s
 E :    -50.44673696  G :  0.012495    pred/act E change: -0.489D-04  0.433D-04
Maxdispl :   0.0522   ||displ|| :   0.1169   Lambda : -0.264D-03
Largest |displ|/coords:  0.0522 (   4)  0.0483 (   2)  0.0417 (   5)
................................................................................
.............................. CYCLE   62 ......................................
................................................................................
   1    -50.7384933 -0.507385E+02  0.856E-02    8.98       0.0  T
   2    -50.7384962 -0.283752E-05  0.642E-02    8.98       1.0  T
   3    -50.7384980 -0.187377E-05  0.987E-03    8.97       2.0  T
   4    -50.7384985 -0.433425E-06  0.247E-03    8.97       7.9  T
   5    -50.7384985 -0.660905E-08  0.129E-03    8.97      15.2  T
speedup  0.85
cpu  time for SCC    0.00 s
wall time for SCC    0.00 s
speedup  0.97
cpu  time for grad    0.01 s
wall time for grad    0.01 s
 E :    -50.44684037  G :  0.004814    pred/act E change: -0.686D-04 -0.103D-03
Maxdispl :   0.0171   ||displ|| :   0.0576   Lambda : -0.700D-04
Largest |displ|/coords:  0.0171 (   2)  0.0170 (  13)  0.0169 (  14)
................................................................................
.............................. CYCLE   63 ......................................
................................................................................
   1    -50.7394787 -0.507395E+02  0.558E-02    8.98       0.0  T
   2    -50.7394799 -0.112407E-05  0.421E-02    8.97       1.0  T
   3    -50.7394806 -0.731160E-06  0.585E-03    8.97       3.4  T
   4    -50.7394808 -0.177190E-06  0.132E-03    8.97      14.8  T
   5    -50.7394808 -0.317511E-08  0.593E-04    8.97      33.1  T
speedup  0.87
cpu  time for SCC    0.00 s
wall time for SCC    0.00 s
speedup  0.96
cpu  time for grad    0.01 s
wall time for grad    0.01 s
 E :    -50.44686071  G :  0.003955    pred/act E change: -0.134D-03 -0.203D-04
Maxdispl :   0.0748   ||displ|| :   0.1316   Lambda : -0.469D-04
Largest |displ|/coords:  0.0748 (   2)  0.0485 (   3)  0.0425 (  12)
................................................................................
.............................. CYCLE   64 ......................................
................................................................................
   1    -50.7388429 -0.507388E+02  0.797E-02    8.97       0.0  T
   2    -50.7388440 -0.100223E-05  0.601E-02    8.97       1.0  T
   3    -50.7388450 -0.108087E-05  0.582E-03    8.97       3.4  T
   4    -50.7388451 -0.913441E-07  0.164E-03    8.97      12.0  T
   5    -50.7388451 -0.349678E-08  0.789E-04    8.97      24.9  T
   6    -50.7388451 -0.909317E-09  0.381E-04    8.97      51.4  T
speedup  0.93
cpu  time for SCC    0.00 s
wall time for SCC    0.01 s
speedup  0.95
[...]
   3    -50.7405817 -0.593149E-07  0.134E-03    9.02      14.7  T
   4    -50.7405817 -0.355038E-08  0.524E-04    9.02      37.4  T
   5    -50.7405817 -0.238906E-09  0.184E-04    9.02     106.4  T
speedup  1.09
cpu  time for SCC    0.00 s
wall time for SCC    0.00 s
speedup  0.99
cpu  time for grad    0.01 s
wall time for grad    0.01 s
 E :    -50.45423989  G :  0.000384    pred/act E change: -0.448D-06 -0.107D-05
Maxdispl :   0.0149   ||displ|| :   0.0260   Lambda : -0.111D-05
Largest |displ|/coords:  0.0149 (   3)  0.0098 (   7)  0.0071 (   6)

generating ANC from model Hessian ...
 Shifting diagonal of input Hessian by   4.848916704306615E-003
 Lowest  eigenvalues of input Hessian
   -0.000000   -0.000000   -0.000000   -0.000000    0.000000    0.000000
    0.005000    0.005108    0.005328    0.005676    0.006028    0.006390
    0.006636    0.007140    0.007649    0.008545    0.009217    0.009948
 Highest eigenvalues
    1.394887    1.412209    1.417976    2.805270    3.320142    3.684070
 
cpu  time for ANC gen    0.01 s
wall time for ANC gen    0.02 s
................................................................................
.............................. CYCLE  224 ......................................
................................................................................
   1    -50.7406163 -0.507406E+02  0.164E-02    9.02       0.0  T
   2    -50.7406163 -0.319314E-07  0.123E-02    9.02       1.6  T
   3    -50.7406163 -0.282301E-07  0.108E-03    9.02      18.1  T
   4    -50.7406163 -0.365513E-08  0.475E-04    9.02      41.2  T
   5    -50.7406163 -0.219131E-09  0.123E-04    9.02     159.1  T
speedup  0.89
cpu  time for SCC    0.00 s
wall time for SCC    0.00 s
speedup  0.99
cpu  time for grad    0.01 s
wall time for grad    0.01 s
 E :    -50.45424067  G :  0.000347    pred/act E change:  0.000D+00 -0.778D-06
Maxdispl :   0.0023   ||displ|| :   0.0048   Lambda : -0.343D-06
Largest |displ|/coords:  0.0023 (   1)  0.0018 (   8)  0.0017 (   3)
................................................................................
.............................. CYCLE  225 ......................................
................................................................................
   1    -50.7406140 -0.507406E+02  0.386E-03    9.02       0.0  T
   2    -50.7406140 -0.132286E-08  0.290E-03    9.02       6.8  T
   3    -50.7406140 -0.144052E-08  0.247E-04    9.02      79.4  T
   4    -50.7406140 -0.117183E-09  0.973E-05    9.02     201.6  T
speedup  1.03
cpu  time for SCC    0.00 s
wall time for SCC    0.00 s
speedup  0.95
cpu  time for grad    0.01 s
wall time for grad    0.01 s
 E :    -50.45424095  G :  0.000254    pred/act E change:  0.000D+00 -0.283D-06
Maxdispl :   0.0089   ||displ|| :   0.0157   Lambda : -0.754D-06
Largest |displ|/coords:  0.0089 (   1)  0.0060 (   3)  0.0044 (   4)
................................................................................
.............................. CYCLE  226 ......................................
................................................................................
   1    -50.7406065 -0.507406E+02  0.116E-02    9.02       0.0  T
   2    -50.7406065 -0.127941E-07  0.867E-03    9.02       2.3  T
   3    -50.7406065 -0.142459E-07  0.737E-04    9.02      26.6  T
   4    -50.7406065 -0.952916E-09  0.278E-04    9.02      70.6  T
speedup  1.05
cpu  time for SCC    0.00 s
wall time for SCC    0.00 s
speedup  1.05
cpu  time for grad    0.01 s
wall time for grad    0.01 s
 E :    -50.45424143  G :  0.000228    pred/act E change: -0.171D-06 -0.478D-06
Maxdispl :   0.0064   ||displ|| :   0.0106   Lambda : -0.266D-06
Largest |displ|/coords:  0.0064 (   1)  0.0044 (   3)  0.0035 (   2)
................................................................................
.............................. CYCLE  227 ......................................
................................................................................
   1    -50.7406001 -0.507406E+02  0.713E-03    9.02       0.0  T
   2    -50.7406001 -0.438576E-08  0.536E-03    9.02       3.7  T
   3    -50.7406001 -0.540074E-08  0.399E-04    9.02      49.2  T
   4    -50.7406001 -0.220155E-09  0.115E-04    9.02     171.2  T
speedup  0.81
cpu  time for SCC    0.00 s
wall time for SCC    0.00 s
speedup  0.98
cpu  time for grad    0.01 s
wall time for grad    0.01 s
 E :    -50.45424164  G :  0.000206    pred/act E change: -0.377D-06 -0.205D-06
Maxdispl :   0.0095   ||displ|| :   0.0157   Lambda : -0.289D-06
Largest |displ|/coords:  0.0095 (   1)  0.0069 (   3)  0.0058 (   2)
................................................................................
.............................. CYCLE  228 ......................................
................................................................................
   1    -50.7405862 -0.507406E+02  0.996E-03    9.02       0.0  T
   2    -50.7405862 -0.984255E-08  0.752E-03    9.02       2.6  T
   3    -50.7405862 -0.128702E-07  0.549E-04    9.02      35.7  T
   4    -50.7405862 -0.402437E-09  0.175E-04    9.02     111.8  T
speedup  1.05
cpu  time for SCC    0.00 s
wall time for SCC    0.00 s
speedup  0.97
cpu  time for grad    0.01 s
wall time for grad    0.01 s
 E :    -50.45424183  G :  0.000201    pred/act E change: -0.133D-06 -0.189D-06
Maxdispl :   0.0048   ||displ|| :   0.0086   Lambda : -0.143D-06
Largest |displ|/coords:  0.0048 (   1)  0.0043 (   3)  0.0035 (   2)
................................................................................
.............................. CYCLE  229 ......................................
................................................................................
   1    -50.7405820 -0.507406E+02  0.452E-03    9.02       0.0  T
   2    -50.7405820 -0.235483E-08  0.341E-03    9.02       5.7  T
   3    -50.7405820 -0.257824E-08  0.301E-04    9.02      65.2  T
   4    -50.7405820 -0.211521E-09  0.113E-04    9.02     173.5  T
speedup  1.05
cpu  time for SCC    0.00 s
wall time for SCC    0.00 s
speedup  1.05
cpu  time for grad    0.01 s
wall time for grad    0.01 s
 E :    -50.45424194  G :  0.000195    pred/act E change: -0.145D-06 -0.119D-06
Maxdispl :   0.0087   ||displ|| :   0.0166   Lambda : -0.250D-06
Largest |displ|/coords:  0.0087 (   3)  0.0087 (   1)  0.0070 (   2)
................................................................................
.............................. CYCLE  230 ......................................
................................................................................
   1    -50.7405700 -0.507406E+02  0.859E-03    9.02       0.0  T
   2    -50.7405701 -0.865195E-08  0.647E-03    9.02       3.0  T
   3    -50.7405701 -0.802918E-08  0.645E-04    9.02      30.4  T
   4    -50.7405701 -0.103616E-08  0.221E-04    9.02      88.6  T
speedup  0.79
cpu  time for SCC    0.00 s
wall time for SCC    0.00 s
speedup  0.97
cpu  time for grad    0.01 s
wall time for grad    0.01 s
 E :    -50.45424212  G :  0.000214    pred/act E change: -0.717D-07 -0.172D-06
Maxdispl :   0.0060   ||displ|| :   0.0104   Lambda : -0.134D-06
Largest |displ|/coords:  0.0060 (   3)  0.0044 (   1)  0.0041 (   2)
................................................................................
.............................. CYCLE  231 ......................................
................................................................................
   1    -50.7405661 -0.507406E+02  0.535E-03    9.02       0.0  T
   2    -50.7405661 -0.361477E-08  0.401E-03    9.02       4.9  T
   3    -50.7405661 -0.279034E-08  0.437E-04    9.02      44.9  T
   4    -50.7405661 -0.498446E-09  0.153E-04    9.02     127.8  T
speedup  1.03
cpu  time for SCC    0.00 s
wall time for SCC    0.00 s
speedup  0.96
cpu  time for grad    0.01 s
wall time for grad    0.01 s
 E :    -50.45424222  G :  0.000173    pred/act E change: -0.125D-06 -0.105D-06
Maxdispl :   0.0071   ||displ|| :   0.0122   Lambda : -0.130D-06
Largest |displ|/coords:  0.0071 (   3)  0.0046 (   2)  0.0046 (   1)
................................................................................
.............................. CYCLE  232 ......................................
................................................................................
   1    -50.7405626 -0.507406E+02  0.685E-03    9.02       0.0  T
   2    -50.7405626 -0.506508E-08  0.514E-03    9.02       3.8  T
   3    -50.7405626 -0.424929E-08  0.478E-04    9.02      41.0  T
   4    -50.7405626 -0.662197E-09  0.189E-04    9.02     103.7  T
speedup  0.79
cpu  time for SCC    0.00 s
wall time for SCC    0.00 s
speedup  0.96
cpu  time for grad    0.01 s
wall time for grad    0.01 s
 E :    -50.45424231  G :  0.000114    pred/act E change: -0.668D-07 -0.883D-07
Maxdispl :   0.0029   ||displ|| :   0.0050   Lambda : -0.565D-07
Largest |displ|/coords:  0.0029 (   3)  0.0019 (   4)  0.0018 (   7)

   *** GEOMETRY OPTIMIZATION CONVERGED AFTER 232 ITERATIONS ***

------------------------------------------------------------------------
 total energy gain (kcal):     -0.0010
------------------------------------------------------------------------
================
 final structure:
================
$coord
        1.54742745629268        0.62121105699676       -2.18739341904075      S 
       -1.12517094597029        0.89694931739322       -1.69674339600898      O 
        2.19183846091233       -2.17900372133452       -2.28934715864213      O 
        2.14788625323272        1.53989670444749       -4.86147976126817      O 
        3.13159550598562        1.93289849447417       -0.40743890066888      O 
        2.43108673404383       -0.24515333381516        4.25770046891381      O 
        3.26038085332893        0.59287136786447        2.85753165484781      H 
        1.13942422156318        5.77747557976180        2.45671048689784      O 
        2.49138723032090        6.38171295205519        3.50103729825628      H 
        1.90090803976692        4.61048364303974        1.25741991833452      H 
       -3.65551425418030       -3.19744992469033        3.22662018698225      O 
       -3.94858811098630       -3.73310575711105        4.93344995326478      H 
       -3.50474383203316       -1.37130606843646        3.27484016539407      H 
       -2.14720504912295        1.84234410529818        3.15095740748247      O 
       -1.99520650265010        1.55645586728763        1.33065567312222      H 
        0.74139381339119        0.50820125120551        4.30539583254911      H 
       -1.54947800796651        3.56493469546372        3.35923376741312      H 
        1.07971502742531       -4.26523484077518        1.73564839472260      O 
       -0.75647299961860       -4.13915649074762        2.00996146893998      H 
        1.70687942596424       -3.19054808944820       -0.56698994740503      H 
        1.81843215322637       -3.01474811172910        2.93341915768273      H 
       -1.52626603695673       -1.00837083829079       -6.68086996986912      N 
       -2.45025273575685       -0.68970763987728       -5.02835484613373      H 
       -1.08320089680997       -2.86462162690788       -6.78599489395374      H 
       -2.66129403338774       -0.54998002198887       -8.14884240765215      H 
        0.81503826771831        0.62295141104057       -5.93712715298408      H 
$end
 
 Bond Distances (Angstroems)
 ---------------------------
S1-O2=1.4453         S1-O3=1.5215         S1-O4=1.5296         S1-O5=1.4394         O2-S1=1.4453         O3-S1=1.5215         
O3-H20=1.0877        O4-S1=1.5296         O4-H26=1.0281        O5-S1=1.4394         O6-H7=0.9686         O6-H16=0.9793        
H7-O6=0.9686         O8-H9=0.9589         O8-H10=0.9729        H9-O8=0.9589         H10-O8=0.9729        O11-H12=0.9593       
O11-H13=0.9700       H12-O11=0.9593       H13-O11=0.9700       O14-H15=0.9784       O14-H17=0.9711       H15-O14=0.9784       
H16-O6=0.9793        H17-O14=0.9711       O18-H19=0.9847       O18-H21=0.9962       H19-O18=0.9847       H20-O3=1.0877        
H21-O18=0.9962       N22-H23=1.0160       N22-H24=1.0114       N22-H25=1.0115       H23-N22=1.0160       H24-N22=1.0114       
H25-N22=1.0115       H26-O4=1.0281        
 N  H  Rav=1.0129 sigma=0.0021  Rmin=1.0114  Rmax=1.0160     3
 O  H  Rav=0.9879 sigma=0.0350  Rmin=0.9589  Rmax=1.0877    12
 S  O  Rav=1.4839 sigma=0.0418  Rmin=1.4394  Rmax=1.5296     4
 
 selected bond angles (degree)
 --------------------
O3-S1-O2=108.91                O4-S1-O2=109.72                O4-S1-O3=103.31                O5-S1-O2=113.81                
O5-S1-O3=111.24                O5-S1-O4=109.34                H20-O3-S1=113.37               H26-O4-S1=102.69               
H16-O6-H7=104.30               H10-O8-H9=106.18               
 
 selected dihedral angles (degree)
 ---------------------------------
H20-O3-S1-O2=302.00           H20-O3-S1-O4=185.42           H20-O3-S1-O5= 68.23           H26-O4-S1-O2=310.66           
H26-O4-S1-O3= 66.66           H26-O4-S1-O5=185.19           
 
 CMA Distance (Angstroems)
 ---------------------------
R(CMA):  2.2183

========================================================================
 FINAL SINGLEPOINT CALCULATION ON OPTIMIZED GEOMETRY
========================================================================

 Ncao       : 65
 Nao        : 64
 Nshell     : 38
 Nel        : 80
 T(el)      :   300.0
 intcut     :    25.0
 scfconv/Eh :  0.100E-05
   qconv/e  :  0.100E-03
 intneglect :  0.100E-07
 broydamp   :      0.250
 iter      E             dE          RMSdq      gap      omega  full diag
   1    -50.7405626 -0.507406E+02  0.629E-05    9.02       0.0  T
   2    -50.7405626 -0.319034E-11  0.394E-05    9.02     497.2  T
   3    -50.7405626 -0.152056E-11  0.895E-06    9.02    2192.3  T
speedup  1.07
cpu  time for SCC    0.00 s
wall time for SCC    0.00 s

   *** convergence criteria satisfied after 3 iterations ***

          eigenvalues
 #    :          28         29         30         31         32         33         34         35
 occ. :        2.000      2.000      2.000      2.000      2.000      2.000      2.000      2.000
 eps  :       -13.696    -13.568    -13.132    -12.755    -12.687    -12.596    -12.342    -12.331
 #    :          36         37         38         39         40         41         42         43
 occ. :        2.000      2.000      2.000      2.000      2.000      0.000      0.000      0.000
 eps  :       -12.277    -11.965    -11.894    -11.832    -11.800     -2.779     -0.724     -0.471
 #    :          44         45         46         47         48         49         50         51
 occ. :        0.000      0.000      0.000      0.000      0.000      0.000      0.000      0.000
 eps  :         0.302      0.480      0.818      1.997      2.824      3.907      4.517      4.994


   #   Z            q   n(s)   n(p)   n(d)      C6AA      α(0)
   1  16 S      1.721  1.580  1.764  0.935    88.295    15.815
   2   8 O     -0.738  1.767  4.971  0.000    29.756     7.314
   3   8 O     -0.657  1.768  4.889  0.000    26.589     6.960
   4   8 O     -0.599  1.752  4.848  0.000    25.140     6.768
   5   8 O     -0.706  1.753  4.953  0.000    28.872     7.204
   6   8 O     -0.626  1.757  4.869  0.000    25.807     6.856
   7   1 H      0.307  0.693  0.000  0.000     0.700     1.315
   8   8 O     -0.606  1.740  4.866  0.000    25.327     6.792
   9   1 H      0.286  0.714  0.000  0.000     0.764     1.373
  10   1 H      0.313  0.687  0.000  0.000     0.683     1.298
  11   8 O     -0.598  1.744  4.854  0.000    25.130     6.766
  12   1 H      0.291  0.709  0.000  0.000     0.747     1.358
  13   1 H      0.332  0.668  0.000  0.000     0.632     1.249
  14   8 O     -0.644  1.751  4.893  0.000    26.264     6.917
  15   1 H      0.319  0.681  0.000  0.000     0.666     1.282
  16   1 H      0.322  0.678  0.000  0.000     0.659     1.275
  17   1 H      0.323  0.677  0.000  0.000     0.657     1.273
  18   8 O     -0.606  1.767  4.840  0.000    25.283     6.789
  19   1 H      0.342  0.658  0.000  0.000     0.607     1.224
  20   1 H      0.399  0.601  0.000  0.000     0.479     1.083
  21   1 H      0.344  0.656  0.000  0.000     0.603     1.220
  22   7 N     -0.442  1.350  4.092  0.000    31.571     8.345
  23   1 H      0.196  0.804  0.000  0.000     1.124     1.661
  24   1 H      0.180  0.820  0.000  0.000     1.211     1.724
  25   1 H      0.180  0.820  0.000  0.000     1.215     1.727
  26   1 H      0.365  0.635  0.000  0.000     0.545     1.154

 Mol. C6AA /au·bohr⁶  :       5452.014069
 Mol. C8AA /au·bohr⁸  :     117725.022622
 Mol. α(0) /au        :        106.742210

 
 Wiberg/Mayer (AO) data. WBOs > 0.1 written file <wbo>
 largest (>0.05) Wiberg bond orders for each atom
           total WBO             WBO to atom ...
     1  S   4.813    O    5 1.370    O    2 1.327    O    3 1.046    O    4 1.026
     2  O   1.721    S    1 1.327    O    5 0.118    O    3 0.095    O    4 0.087    H   15 0.051
     3  O   1.925    S    1 1.046    H   20 0.560    O    2 0.095    O    5 0.093    O   18 0.068    O    4 0.057
     4  O   1.995    S    1 1.026    H   26 0.674    O    2 0.087    O    5 0.074    N   22 0.060    O    3 0.057
     5  O   1.757    S    1 1.370    O    2 0.118    O    3 0.093    O    4 0.074
     6  O   1.889    H    7 0.874    H   16 0.840    H   21 0.088
     7  H   0.906    O    6 0.874
     8  O   1.843    H    9 0.915    H   10 0.861
     9  H   0.918    O    8 0.915
    10  H   0.902    O    8 0.861
    11  O   1.878    H   12 0.913    H   13 0.859    H   19 0.061
    12  H   0.915    O   11 0.913
    13  H   0.890    O   11 0.859
    14  O   1.857    H   17 0.855    H   15 0.842    H   16 0.053
    15  H   0.898    O   14 0.842    O    2 0.051
    16  H   0.896    O    6 0.840    O   14 0.053
    17  H   0.896    O   14 0.855
    18  O   2.025    H   19 0.819    H   21 0.792    H   20 0.263    O    3 0.068
    19  H   0.883    O   18 0.819    O   11 0.061
    20  H   0.841    O    3 0.560    O   18 0.263
    21  H   0.882    O   18 0.792    O    6 0.088
    22  N   3.126    H   24 0.966    H   25 0.964    H   23 0.946    H   26 0.177    O    4 0.060
    23  H   0.961    N   22 0.946
    24  H   0.967    N   22 0.966
    25  H   0.968    N   22 0.964
    26  H   0.867    O    4 0.674    N   22 0.177
 MOs/occ written to file <molden.input>
 
molecular dipole:
                 x           y           z       tot (Debye)
 q only:       -0.783      -0.570      -0.698
   full:       -0.890      -0.349      -0.941       3.409
molecular quadrupole (traceless):
                xx          xy          yy          xz          yz          zz
 q only:       -6.835       4.224      -6.614       4.106       3.178      13.449
  q+dip:       -5.818       7.270      -8.797       5.639       5.514      14.615
   full:       -6.375       7.278      -8.836       5.602       5.574      15.212

SCC energy    :     -50.7405626
rep           :       0.2860644
ES            :       0.2351691
AES           :      -0.0570142
AXC           :      -0.0080684
disp          :      -0.0191913
XB            :       0.0000000
fix           :       0.0000000
total E       :     -50.4542423
atomizationE  :       4.9845465     3127.85
(atE without considering molecular charge,
 total energy contains solvation terms)
H-L gap (eV)  :          9.0217
optimized geometry written to: xtbopt.xyz


------------------------------------------------------------------------
 * finished run on 2019/09/16 at 11:38:16.647     
------------------------------------------------------------------------
 total:
 * wall-time:     0 d,  0 h,  0 min,  4.863 sec
 *  cpu-time:     0 d,  0 h,  0 min,  4.783 sec
 * ratio c/w:     0.984 speedup
 SCF:
 * wall-time:     0 d,  0 h,  0 min,  0.140 sec
 *  cpu-time:     0 d,  0 h,  0 min,  0.137 sec
 * ratio c/w:     0.981 speedup
 ANC optimizer:
 * wall-time:     0 d,  0 h,  0 min,  4.700 sec
 *  cpu-time:     0 d,  0 h,  0 min,  4.624 sec
 * ratio c/w:     0.984 speedup

