      -----------------------------------------------------------      
     |                   =====================                   |     
     |                           x T B                           |     
     |                   =====================                   |     
     |                         S. Grimme                         |     
     |          Mulliken Center for Theoretical Chemistry        |     
     |                    University of Bonn                     |     
     |                 Version 6.0.1 (SAW181210)                 |     
      -----------------------------------------------------------      

   This program is distributed in the hope that it will be useful,
   but WITHOUT ANY WARRANTY; without even the implied warranty of
   MERCHANTABILITY or FITNESS FOR A PARTICULAR PURPOSE.
   
   FOR NON-COMMERCIAL, ACADEMIA USE ONLY.
   
   Cite this work as:
   S. Grimme, C. Bannwarth, P. Shushkov, J. Comput. Theory Chem., 2017,
   13, 1989-2009.
   C. Bannwarth, S. Ehlert and S. Grimme., ChemRxiv, 2018, preprint.
   http://doi.org/10.26434/chemrxiv.7246238.v1
   
   for sTDA-xTB:
   S. Grimme and C. Bannwarth, J. Chem. Phys., 2016, 145, 054103.
   
   in the mass-spec context:
   V. Asgeirsson, C. Bauer and S. Grimme, Chem. Sci., 2017, 8, 4879.
   
   if GBSA is used:
   P. Shushkov, F. März and S. Grimme, unpublished.
   
   for ANC optimizer:
   S. Grimme, unpublished.
   Rational Function algorithm used in ANCopt:
   F. Eckert, P. Pulay, H.-J. Werner, J. Comput. Chem., 1997, 18, 1473.
   
   with help from (in alphabetical order)
   C. Bannwarth, F. Bohle, G. Brandenburg, E. Caldeweyher, M. Checinski,
   S. Dohm, S. Ehlert, S. Ehrlich, F. März, H. Neugebauer, J. Pisarek,
   P. Pracht, P. Shushkov, and S. Spicher.
   
 * started run on 2019/09/16 at 12:40:44.577     
========================================================================
 # omp threads = 1
========================================================================
number of atoms            : 26
number of electrons        : 80
charge                     : 0
spin                       : .0
first test random number   : .8403

########################################################################
# WARNING! Please study the warnings concerning your input carefully
#  - XTBPATH is not set, using XTBHOME instead
#  - the use of '-opt' is discouraged, please use '--opt' next time
#  - the use of '-chrg' is discouraged, please use '--chrg' next time
#  - the use of '-uhf' is discouraged, please use '--uhf' next time
########################################################################

           ------------------------------------------------- 
          |                 G F N 2 - x T B                 |
          | Geometry, Frequencies, Noncovalent interactions |
          |            JCTC 2018 parametrisation            |
           ------------------------------------------------- 
      method parameters     
 k(s)        :  1.8500
 k(p)        :  2.2300
 k(d)        :  2.2300
 k(f)        :  2.0000
 kEN (H0ij)  : -2.0000
 D4 a1       :  0.5200
 D4 a2       :  5.0000
 D4 s6       :  1.0000
 D4 s8       :  2.7000
 D4 s9       :  5.0000
 alphaj      :  2.0000


            Z     q(EN)     CN     RAES       Cart. coordinates
     1  S   6.0    0.61    4.51    4.58    -4.25716    -0.15682    -2.76497
     2  O   6.0   -0.31    1.23    1.80    -3.10467     1.98164    -1.34128
     3  O   6.0   -0.30    1.19    1.80    -5.02504    -2.17891    -0.96230
     4  O   6.0   -0.27    2.12    1.84    -2.40407    -1.17609    -4.56488
     5  O   6.0   -0.25    2.08    1.84    -6.48958     0.74768    -4.14724
     6  H   1.0    0.14    1.22    1.47    -6.25210     0.47612    -5.92514
     7  H   1.0    0.18    1.37    1.53    -0.94538    -1.76720    -3.66271
     8  O   6.0   -0.39    1.61    1.81     1.09179    -2.97605    -2.02808
     9  H   1.0    0.17    0.95    1.42     2.06410    -4.11149    -3.14573
    10  O   6.0   -0.39    1.64    1.81     0.65494    -0.28920     4.35392
    11  H   1.0    0.17    0.94    1.42     0.94122    -0.30274     6.19826
    12  O   6.0   -0.36    1.48    1.80     3.84307     4.46828     0.16003
    13  H   1.0    0.18    0.94    1.42     4.91625     5.84747    -0.49561
    14  O   6.0   -0.23    2.94    2.64    -0.10480     3.67816     2.19171
    15  H   1.0    0.16    1.05    1.44    -1.39933     3.35939     0.88310
    16  H   1.0    0.16    1.18    1.46     0.13799     2.20218     3.31089
    17  H   1.0    0.17    1.22    1.47     1.50698     4.26689     1.45207
    18  O   6.0   -0.23    2.94    2.64    -1.17275    -3.60982     1.85340
    19  H   1.0    0.16    1.19    1.46    -0.12136    -3.64538     0.30965
    20  H   1.0    0.16    1.20    1.46    -0.54160    -2.37208     3.10227
    21  H   1.0    0.15    1.02    1.43    -2.98094    -3.34757     1.46204
    22  N   5.0   -0.15    4.00    2.87     3.92849    -0.21889     0.75212
    23  H   1.0    0.12    1.12    1.45     2.99291    -1.19258    -0.64826
    24  H   1.0    0.13    1.17    1.46     4.08053     1.65414     0.24902
    25  H   1.0    0.12    1.11    1.44     2.93452    -0.36423     2.41805
    26  H   1.0    0.08    0.99    1.43     5.70599    -0.97287     0.98965

  Z AO/shell   Hii/eV     exponent
  1     Wed Apr 25 08:07:45 CEST 2018   EN: 2.200 GM2: 0.406  GM3: 0.0800  RAES: 1.40
     1s    -10.707211    1.230000
  7     Wed Apr 25 08:07:45 CEST 2018   EN: 3.040 GM2: 0.461  GM3:-0.0640  RAES: 1.90
     2s    -16.686243    2.339881
     2p    -12.523956    2.014332
  8     Wed Apr 25 08:07:45 CEST 2018   EN: 3.440 GM2: 0.452  GM3:-0.0517  RAES: 1.80
     2s    -20.229985    2.439742
     2p    -15.503117    2.137023
 16     Tue Apr 24 11:44:34 CEST 2018   EN: 2.580 GM2: 0.340  GM3:-0.0502  RAES: 3.10
     3s    -20.029654    1.981333
     3p    -11.377694    2.025643
     3d     -0.420282    1.702555
 no old-style atom pair restraining (fixing) potential

molecular fragmentation (1/2 indicates fragments):
11111112222222222222222222
# atoms in fragment 1/2:     7    19
 fragment masses (1/2) :       98.07      107.11
CMA distance (Bohr)    :   6.897
constraining FC (au)   :  0.0500
           ------------------------------------------------- 
          |        Self-Consistent Charge Iterations        |
           ------------------------------------------------- 

 Ncao       : 65
 Nao        : 64
 Nshell     : 38
 Nel        : 80
 T(el)      :   300.0
 intcut     :    25.0
 scfconv/Eh :  0.100E-05
   qconv/e  :  0.100E-03
 intneglect :  0.100E-07
 broydamp   :      0.250
 iter      E             dE          RMSdq      gap      omega  full diag
   1    -50.4857531 -0.504858E+02  0.714E+00   10.25       0.0  T
   2    -50.5448811 -0.591281E-01  0.517E+00    8.83       1.0  T
   3    -50.5890968 -0.442156E-01  0.144E+00    4.42       1.0  T
   4    -50.5957038 -0.660698E-02  0.636E-01    4.71       1.0  T
   5    -50.5964064 -0.702621E-03  0.380E-01    4.55       1.0  T
   6    -50.5971455 -0.739141E-03  0.165E-01    4.70       1.0  T
   7    -50.5973277 -0.182140E-03  0.552E-02    4.76       1.0  T
   8    -50.5973415 -0.138573E-04  0.362E-02    4.75       1.0  T
   9    -50.5973502 -0.863806E-05  0.112E-02    4.76       1.8  T
  10    -50.5973510 -0.815767E-06  0.249E-03    4.77       7.9  T
  11    -50.5973510 -0.241615E-07  0.131E-03    4.77      14.9  T
  12    -50.5973510 -0.490392E-08  0.391E-04    4.77      50.1  T
  13    -50.5973510 -0.839080E-09  0.135E-04    4.77     145.1  T
speedup  0.99
cpu  time for SCC    0.01 s
wall time for SCC    0.02 s

   *** convergence criteria satisfied after 13 iterations ***

          eigenvalues
 #    :          28         29         30         31         32         33         34         35
 occ. :        2.000      2.000      2.000      2.000      2.000      2.000      2.000      2.000
 eps  :       -12.861    -12.855    -12.667    -12.501    -12.398    -12.080    -10.884    -10.603
 #    :          36         37         38         39         40         41         42         43
 occ. :        2.000      2.000      2.000      2.000      2.000      0.000      0.000      0.000
 eps  :       -10.375    -10.229     -9.999     -8.270     -7.912     -3.143     -1.777     -0.592
 #    :          44         45         46         47         48         49         50         51
 occ. :        0.000      0.000      0.000      0.000      0.000      0.000      0.000      0.000
 eps  :        -0.089      0.055      1.829      2.318      3.454      3.574      4.181      5.264


   #   Z            q   n(s)   n(p)   n(d)      C6AA      α(0)
   1  16 S      1.715  1.572  1.771  0.942    88.425    15.827
   2   8 O     -0.714  1.762  4.952  0.000    29.101     7.233
   3   8 O     -0.718  1.769  4.949  0.000    29.204     7.245
   4   8 O     -0.600  1.725  4.875  0.000    25.144     6.769
   5   8 O     -0.535  1.718  4.817  0.000    23.662     6.567
   6   1 H      0.381  0.619  0.000  0.000     0.514     1.122
   7   1 H      0.416  0.584  0.000  0.000     0.449     1.048
   8   8 O     -0.862  1.836  5.026  0.000    33.506     7.761
   9   1 H      0.210  0.790  0.000  0.000     1.070     1.625
  10   8 O     -0.847  1.822  5.024  0.000    32.986     7.702
  11   1 H      0.203  0.797  0.000  0.000     1.103     1.650
  12   8 O     -0.904  1.815  5.089  0.000    34.858     7.917
  13   1 H      0.166  0.834  0.000  0.000     1.313     1.800
  14   8 O     -0.483  1.670  4.813  0.000    22.479     6.403
  15   1 H      0.380  0.620  0.000  0.000     0.523     1.137
  16   1 H      0.392  0.608  0.000  0.000     0.494     1.102
  17   1 H      0.405  0.595  0.000  0.000     0.469     1.071
  18   8 O     -0.477  1.665  4.812  0.000    22.347     6.385
  19   1 H      0.398  0.602  0.000  0.000     0.482     1.087
  20   1 H      0.401  0.599  0.000  0.000     0.477     1.082
  21   1 H      0.375  0.625  0.000  0.000     0.534     1.149
  22   7 N     -0.356  1.284  4.071  0.000    29.143     8.018
  23   1 H      0.276  0.724  0.000  0.000     0.789     1.392
  24   1 H      0.302  0.698  0.000  0.000     0.706     1.315
  25   1 H      0.284  0.716  0.000  0.000     0.763     1.368
  26   1 H      0.193  0.807  0.000  0.000     1.144     1.676

 Mol. C6AA /au·bohr⁶  :       5558.687440
 Mol. C8AA /au·bohr⁸  :     120184.119101
 Mol. α(0) /au        :        107.451710

 
 Wiberg/Mayer (AO) data. WBOs > 0.1 written file <wbo>
 largest (>0.05) Wiberg bond orders for each atom
           total WBO             WBO to atom ...
     1  S   4.812    O    2 1.334    O    3 1.332    O    4 1.077    O    5 1.022
     2  O   1.708    S    1 1.334    O    3 0.134    O    4 0.092    O    5 0.071    H   15 0.054
     3  O   1.704    S    1 1.332    O    2 0.134    O    4 0.094    O    5 0.072
     4  O   2.006    S    1 1.077    H    7 0.638    O    3 0.094    O    2 0.092    O    5 0.050
     5  O   2.059    S    1 1.022    H    6 0.831    O    3 0.072    O    2 0.071    O    4 0.050
     6  H   0.855    O    5 0.831
     7  H   0.827    O    4 0.638    O    8 0.170
     8  O   1.597    H    9 0.946    H   19 0.177    H    7 0.170    H   23 0.121    N   22 0.059    O   18 0.056
     9  H   0.956    O    8 0.946
    10  O   1.612    H   11 0.947    H   20 0.191    H   16 0.173    H   25 0.114    O   18 0.060    O   14 0.058    N   22 0.055
    11  H   0.959    O   10 0.947
    12  O   1.424    H   13 0.945    H   17 0.195    H   24 0.152    N   22 0.064    O   14 0.058
    13  H   0.972    O   12 0.945
    14  O   2.256    H   15 0.792    H   16 0.668    H   17 0.633    O   12 0.058    O   10 0.058
    15  H   0.856    O   14 0.792    O    2 0.054
    16  H   0.846    O   14 0.668    O   10 0.173
    17  H   0.836    O   14 0.633    O   12 0.195
    18  O   2.260    H   21 0.807    H   19 0.658    H   20 0.643    O   10 0.060    O    8 0.056
    19  H   0.841    O   18 0.658    O    8 0.177
    20  H   0.839    O   18 0.643    O   10 0.191
    21  H   0.860    O   18 0.807
    22  N   3.507    H   26 0.958    H   25 0.801    H   23 0.799    H   24 0.750    O   12 0.064    O    8 0.059    O   10 0.055
    23  H   0.924    N   22 0.799    O    8 0.121
    24  H   0.909    N   22 0.750    O   12 0.152
    25  H   0.919    N   22 0.801    O   10 0.114
    26  H   0.963    N   22 0.958
 MOs/occ written to file <molden.input>
 
molecular dipole:
                 x           y           z       tot (Debye)
 q only:       -0.908      -1.437      -0.782
   full:       -0.720      -1.463      -1.517       5.662
molecular quadrupole (traceless):
                xx          xy          yy          xz          yz          zz
 q only:        1.736     -11.945     -12.210      11.853      -1.825      10.474
  q+dip:        2.111     -10.874     -16.184      15.658      -1.603      14.073
   full:        2.379     -11.217     -16.697      15.650      -1.580      14.317

SCC energy    :     -50.5973510
rep           :       0.2812017
ES            :       0.3326052
AES           :      -0.0652397
AXC           :      -0.0077236
disp          :      -0.0187040
XB            :       0.0000000
fix           :       0.0000000
total E       :     -50.3158194
atomizationE  :       4.8461235     3040.99
(atE without considering molecular charge,
 total energy contains solvation terms)
H-L gap (eV)  :          4.7689
           ------------------------------------------------- 
          |                 ===============                 |
          |                   A N C O P T                   |
          |                 ===============                 |
          |          Approximate Normal Coordinate          |
          |           Rational Function Optimizer           |
           ------------------------------------------------- 
dumping coords to <xtbopt.coord> and <xtbopt.log>
 optlevel               2
 Maxcycle             520
 Maxmicro              25
 Econv         1.000000000000000E-007
 Gconv         2.000000000000000E-004
 Maxdispl       1.00000000000000     
 Hlow          5.000000000000000E-003
 S6             20.0000000000000     
 Nvar               72

generating ANC from model Hessian ...
 Shifting diagonal of input Hessian by   4.856899921051630E-003
 Lowest  eigenvalues of input Hessian
   -0.000000   -0.000000   -0.000000   -0.000000    0.000000    0.000000
    0.005000    0.005089    0.006380    0.007191    0.007305    0.008024
    0.008741    0.009347    0.010389    0.011981    0.014684    0.015825
 Highest eigenvalues
    1.573874    1.599037    1.603865    3.216051    3.414554    3.458885
 
cpu  time for ANC gen    0.02 s
wall time for ANC gen    0.02 s
................................................................................
.............................. CYCLE    1 ......................................
................................................................................
   1    -50.5973510 -0.505974E+02  0.573E-05    4.77       0.0  T
   2    -50.5973510 -0.827782E-11  0.427E-05    4.77     459.5  T
   3    -50.5973510 -0.711253E-11  0.197E-05    4.77     994.6  T
speedup  0.59
cpu  time for SCC    0.00 s
wall time for SCC    0.00 s
speedup  0.93
cpu  time for grad    0.01 s
wall time for grad    0.01 s
 E :    -50.31581935  G :  0.276411    pred/act E change:  0.000D+00  0.213D-07
Maxdispl :   0.1155   ||displ|| :   0.2587   Lambda : -0.518D-01
Largest |displ|/coords:  0.1155 (  55)  0.0735 (  52)  0.0610 (  40)
................................................................................
.............................. CYCLE    2 ......................................
................................................................................
   1    -50.6147918 -0.506148E+02  0.328E-01    5.00       0.0  T
   2    -50.6152352 -0.443346E-03  0.247E-01    5.14       1.0  T
   3    -50.6154252 -0.190054E-03  0.113E-01    5.39       1.0  T
   4    -50.6154402 -0.149328E-04  0.294E-02    5.44       1.0  T
   5    -50.6154414 -0.121500E-05  0.685E-03    5.43       2.9  T
   6    -50.6154415 -0.100994E-06  0.366E-03    5.43       5.4  T
   7    -50.6154415 -0.250480E-07  0.102E-03    5.43      19.3  T
speedup  0.94
cpu  time for SCC    0.01 s
wall time for SCC    0.01 s
speedup  0.99
cpu  time for grad    0.01 s
wall time for grad    0.01 s
 E :    -50.35647093  G :  0.170823    pred/act E change:  0.000D+00 -0.407D-01
Maxdispl :   0.0838   ||displ|| :   0.2672   Lambda : -0.246D-01
Largest |displ|/coords:  0.0838 (  55)  0.0815 (  14)  0.0702 (  28)
................................................................................
.............................. CYCLE    3 ......................................
................................................................................
   1    -50.6254549 -0.506255E+02  0.302E-01    5.60       0.0  T
   2    -50.6259441 -0.489208E-03  0.222E-01    5.78       1.0  T
   3    -50.6261440 -0.199921E-03  0.112E-01    6.03       1.0  T
   4    -50.6261532 -0.918598E-05  0.287E-02    6.10       1.0  T
   5    -50.6261546 -0.142437E-05  0.619E-03    6.09       3.2  T
   6    -50.6261547 -0.785590E-07  0.345E-03    6.10       5.7  T
   7    -50.6261547 -0.230593E-07  0.104E-03    6.09      18.8  T
speedup  0.92
cpu  time for SCC    0.01 s
wall time for SCC    0.01 s
speedup  0.98
cpu  time for grad    0.01 s
wall time for grad    0.01 s
 E :    -50.37672186  G :  0.111653    pred/act E change: -0.276D-01 -0.203D-01
Maxdispl :   0.1256   ||displ|| :   0.3006   Lambda : -0.142D-01
Largest |displ|/coords:  0.1256 (  10)  0.1098 (  14)  0.0732 (   7)
................................................................................
.............................. CYCLE    4 ......................................
................................................................................
   1    -50.6314087 -0.506314E+02  0.320E-01    6.19       0.0  T
   2    -50.6318923 -0.483555E-03  0.231E-01    6.38       1.0  T
   3    -50.6320966 -0.204332E-03  0.105E-01    6.66       1.0  T
   4    -50.6321078 -0.112172E-04  0.294E-02    6.72       1.0  T
   5    -50.6321098 -0.194268E-05  0.658E-03    6.71       3.0  T
   6    -50.6321099 -0.813053E-07  0.372E-03    6.71       5.3  T
   7    -50.6321099 -0.253222E-07  0.121E-03    6.71      16.2  T
speedup  0.95
cpu  time for SCC    0.01 s
wall time for SCC    0.01 s
speedup  0.99
cpu  time for grad    0.01 s
wall time for grad    0.01 s
 E :    -50.38878598  G :  0.076903    pred/act E change: -0.132D-01 -0.121D-01
Maxdispl :   0.1622   ||displ|| :   0.3688   Lambda : -0.975D-02
Largest |displ|/coords:  0.1622 (   7)  0.1585 (  10)  0.1109 (  14)
................................................................................
.............................. CYCLE    5 ......................................
................................................................................
   1    -50.6328151 -0.506328E+02  0.432E-01    6.71       0.0  T
   2    -50.6333484 -0.533384E-03  0.311E-01    6.93       1.0  T
   3    -50.6335807 -0.232239E-03  0.110E-01    7.32       1.0  T
   4    -50.6336088 -0.280888E-04  0.299E-02    7.32       1.0  T
   5    -50.6336114 -0.258696E-05  0.740E-03    7.30       2.6  T
   6    -50.6336115 -0.111952E-06  0.444E-03    7.30       4.4  T
   7    -50.6336115 -0.318104E-07  0.138E-03    7.30      14.3  T
speedup  0.95
cpu  time for SCC    0.01 s
wall time for SCC    0.01 s
speedup  0.99
cpu  time for grad    0.01 s
wall time for grad    0.01 s
 E :    -50.39722366  G :  0.068999    pred/act E change: -0.774D-02 -0.844D-02
Maxdispl :   0.1181   ||displ|| :   0.3040   Lambda : -0.792D-02
Largest |displ|/coords:  0.1181 (   9)  0.0854 (  10)  0.0827 (   5)
................................................................................
.............................. CYCLE    6 ......................................
................................................................................
   1    -50.6424033 -0.506424E+02  0.244E-01    7.39       0.0  T
   2    -50.6426522 -0.248861E-03  0.177E-01    7.52       1.0  T
   3    -50.6427659 -0.113684E-03  0.715E-02    7.76       1.0  T
   4    -50.6427773 -0.113985E-04  0.202E-02    7.79       1.0  T
   5    -50.6427781 -0.868074E-06  0.617E-03    7.79       3.2  T
   6    -50.6427782 -0.591274E-07  0.312E-03    7.78       6.3  T
   7    -50.6427782 -0.144574E-07  0.902E-04    7.78      21.7  T
speedup  0.95
cpu  time for SCC    0.01 s
wall time for SCC    0.01 s
speedup  0.99
cpu  time for grad    0.01 s
wall time for grad    0.01 s
 E :    -50.40354838  G :  0.058125    pred/act E change: -0.554D-02 -0.632D-02
Maxdispl :   0.1592   ||displ|| :   0.3868   Lambda : -0.815D-02
Largest |displ|/coords:  0.1592 (   7)  0.1511 (  10)  0.1299 (   3)
................................................................................
.............................. CYCLE    7 ......................................
................................................................................
   1    -50.6392027 -0.506392E+02  0.488E-01    7.70       0.0  T
   2    -50.6398700 -0.667296E-03  0.344E-01    7.94       1.0  T
   3    -50.6401646 -0.294636E-03  0.120E-01    8.25       1.0  T
   4    -50.6402007 -0.360348E-04  0.263E-02    8.26       1.0  T
   5    -50.6402023 -0.164503E-05  0.954E-03    8.25       2.1  T
   6    -50.6402026 -0.316701E-06  0.545E-03    8.25       3.6  T
   7    -50.6402027 -0.421074E-07  0.141E-03    8.25      13.9  T
speedup  0.95
cpu  time for SCC    0.01 s
wall time for SCC    0.01 s
speedup  0.99
cpu  time for grad    0.01 s
wall time for grad    0.01 s
 E :    -50.40845164  G :  0.082709    pred/act E change: -0.433D-02 -0.490D-02
Maxdispl :   0.1484   ||displ|| :   0.3107   Lambda : -0.111D-01
Largest |displ|/coords:  0.1484 (   1)  0.1284 (   9)  0.1010 (   8)
................................................................................
.............................. CYCLE    8 ......................................
................................................................................
   1    -50.6596331 -0.506596E+02  0.381E-01    8.35       0.0  T
   2    -50.6597882 -0.155104E-03  0.285E-01    8.38       1.0  T
   3    -50.6598890 -0.100768E-03  0.652E-02    8.44       1.0  T
   4    -50.6599065 -0.175675E-04  0.215E-02    8.46       1.0  T
   5    -50.6599073 -0.741272E-06  0.710E-03    8.46       2.8  T
   6    -50.6599073 -0.605721E-07  0.341E-03    8.46       5.8  T
   7    -50.6599074 -0.280545E-07  0.921E-04    8.46      21.3  T
speedup  0.94
cpu  time for SCC    0.01 s
wall time for SCC    0.01 s
speedup  0.99
cpu  time for grad    0.01 s
wall time for grad    0.01 s
 E :    -50.41395399  G :  0.066239    pred/act E change: -0.469D-02 -0.550D-02
Maxdispl :   0.1293   ||displ|| :   0.3062   Lambda : -0.829D-02
Largest |displ|/coords:  0.1293 (   3)  0.0948 (  10)  0.0885 (  14)
................................................................................
.............................. CYCLE    9 ......................................
................................................................................
   1    -50.6624814 -0.506625E+02  0.313E-01    8.51       0.0  T
   2    -50.6627697 -0.288303E-03  0.223E-01    8.58       1.0  T
   3    -50.6629177 -0.147920E-03  0.802E-02    8.70       1.0  T
   4    -50.6629355 -0.178724E-04  0.197E-02    8.72       1.0  T
   5    -50.6629364 -0.922555E-06  0.709E-03    8.72       2.8  T
   6    -50.6629365 -0.797767E-07  0.411E-03    8.71       4.8  T
   7    -50.6629365 -0.169553E-07  0.919E-04    8.71      21.3  T
speedup  0.94
cpu  time for SCC    0.01 s
wall time for SCC    0.01 s
speedup  0.99
cpu  time for grad    0.01 s
wall time for grad    0.01 s
 E :    -50.42059605  G :  0.068983    pred/act E change: -0.611D-02 -0.664D-02
Maxdispl :   0.0864   ||displ|| :   0.2175   Lambda : -0.669D-02
Largest |displ|/coords:  0.0864 (   1)  0.0672 (  22)  0.0632 (  49)
................................................................................
.............................. CYCLE   10 ......................................
................................................................................
   1    -50.6788140 -0.506788E+02  0.166E-01    8.82       0.0  T
   2    -50.6789264 -0.112456E-03  0.122E-01    8.85       1.0  T
   3    -50.6789907 -0.643287E-04  0.529E-02    8.92       1.0  T
   4    -50.6789988 -0.805710E-05  0.166E-02    8.94       1.2  T
   5    -50.6789994 -0.625309E-06  0.554E-03    8.94       3.5  T
   6    -50.6789995 -0.379815E-07  0.250E-03    8.94       7.8  T
speedup  1.09
cpu  time for SCC    0.01 s
wall time for SCC    0.01 s
speedup  1.05
cpu  time for grad    0.01 s
wall time for grad    0.01 s
 E :    -50.42668352  G :  0.062770    pred/act E change: -0.453D-02 -0.609D-02
Maxdispl :   0.0762   ||displ|| :   0.2374   Lambda : -0.667D-02
Largest |displ|/coords:  0.0762 (   3)  0.0698 (  22)  0.0682 (  49)
................................................................................
.............................. CYCLE   11 ......................................
................................................................................
   1    -50.6902291 -0.506902E+02  0.182E-01    8.99       0.0  T
   2    -50.6903285 -0.993530E-04  0.134E-01    8.99       1.0  T
   3    -50.6903865 -0.580386E-04  0.506E-02    8.99       1.0  T
   4    -50.6903950 -0.843890E-05  0.138E-02    8.98       1.4  T
   5    -50.6903954 -0.423476E-06  0.543E-03    8.98       3.6  T
   6    -50.6903954 -0.285270E-07  0.256E-03    8.98       7.7  T
speedup  1.09
cpu  time for SCC    0.01 s
wall time for SCC    0.01 s
speedup  1.05
cpu  time for grad    0.01 s
wall time for grad    0.01 s
 E :    -50.43256521  G :  0.057235    pred/act E change: -0.350D-02 -0.588D-02
Maxdispl :   0.0674   ||displ|| :   0.2220   Lambda : -0.627D-02
Largest |displ|/coords:  0.0674 (  22)  0.0645 (  26)  0.0606 (  49)
................................................................................
.............................. CYCLE   12 ......................................
................................................................................
   1    -50.7073083 -0.507073E+02  0.159E-01    9.01       0.0  T
   2    -50.7073726 -0.643057E-04  0.118E-01    9.01       1.0  T
   3    -50.7074151 -0.424370E-04  0.426E-02    8.99       1.0  T
   4    -50.7074210 -0.592926E-05  0.119E-02    8.99       1.7  T
   5    -50.7074213 -0.311351E-06  0.409E-03    8.99       4.8  T
   6    -50.7074213 -0.175962E-07  0.200E-03    8.99       9.8  T
speedup  1.07
cpu  time for SCC    0.01 s
wall time for SCC    0.01 s
speedup  1.04
cpu  time for grad    0.01 s
wall time for grad    0.01 s
 E :    -50.43758059  G :  0.044861    pred/act E change: -0.352D-02 -0.502D-02
Maxdispl :   0.1746   ||displ|| :   0.5112   Lambda : -0.125D-01
Largest |displ|/coords:  0.1746 (  26)  0.1513 (  49)  0.1463 (  69)
................................................................................
.............................. CYCLE   13 ......................................
................................................................................
   1    -50.7350691 -0.507351E+02  0.367E-01    9.09       0.0  T
   2    -50.7354075 -0.338404E-03  0.269E-01    9.06       1.0  T
   3    -50.7356089 -0.201445E-03  0.978E-02    9.00       1.0  T
   4    -50.7356370 -0.280273E-04  0.262E-02    8.99       1.0  T
   5    -50.7356385 -0.151890E-05  0.943E-03    9.00       2.1  T
   6    -50.7356386 -0.712887E-07  0.464E-03    9.00       4.2  T
   7    -50.7356386 -0.491187E-07  0.129E-03    9.00      15.2  T
speedup  1.08
cpu  time for SCC    0.01 s
wall time for SCC    0.01 s
speedup  1.06
cpu  time for grad    0.01 s
wall time for grad    0.01 s
 E :    -50.44253915  G :  0.062031    pred/act E change: -0.329D-02 -0.496D-02
Maxdispl :   0.0999   ||displ|| :   0.2692   Lambda : -0.765D-02
Largest |displ|/coords:  0.0999 (  14)  0.0990 (  17)  0.0881 (   4)
................................................................................
.............................. CYCLE   14 ......................................
................................................................................
   1    -50.7161955 -0.507162E+02  0.229E-01    8.94       0.0  T
   2    -50.7163125 -0.117015E-03  0.168E-01    8.95       1.0  T
   3    -50.7163873 -0.747651E-04  0.559E-02    8.97       1.0  T
   4    -50.7163965 -0.929321E-05  0.181E-02    8.98       1.1  T
   5    -50.7163971 -0.592087E-06  0.634E-03    8.98       3.1  T
   6    -50.7163972 -0.550804E-07  0.303E-03    8.98       6.5  T
   7    -50.7163972 -0.103271E-07  0.765E-04    8.98      25.6  T
speedup  0.97
cpu  time for SCC    0.01 s
wall time for SCC    0.01 s
speedup  1.01
cpu  time for grad    0.01 s
wall time for grad    0.01 s
 E :    -50.44384171  G :  0.042725    pred/act E change: -0.786D-02 -0.130D-02
Maxdispl :   0.0739   ||displ|| :   0.2206   Lambda : -0.407D-02
Largest |displ|/coords:  0.0739 (   2)  0.0723 (   5)  0.0671 (  15)
................................................................................
.............................. CYCLE   15 ......................................
................................................................................
   1    -50.7282705 -0.507283E+02  0.171E-01    9.02       0.0  T
   2    -50.7283105 -0.399269E-04  0.128E-01    9.01       1.0  T
   3    -50.7283374 -0.269741E-04  0.374E-02    8.99       1.0  T
   4    -50.7283415 -0.407251E-05  0.125E-02    8.98       1.6  T
   5    -50.7283419 -0.346007E-06  0.401E-03    8.98       4.9  T
   6    -50.7283419 -0.181858E-07  0.207E-03    8.98       9.5  T
speedup  1.11
cpu  time for SCC    0.01 s
wall time for SCC    0.01 s
speedup  0.98
cpu  time for grad    0.01 s
wall time for grad    0.01 s
 E :    -50.44590614  G :  0.029594    pred/act E change: -0.410D-02 -0.206D-02
Maxdispl :   0.1161   ||displ|| :   0.2567   Lambda : -0.249D-02
Largest |displ|/coords:  0.1161 (  22)  0.0825 (   4)  0.0744 (  26)
................................................................................
.............................. CYCLE   16 ......................................
................................................................................
   1    -50.7328666 -0.507329E+02  0.179E-01    9.01       0.0  T
   2    -50.7329323 -0.656746E-04  0.132E-01    8.99       1.0  T
   3    -50.7329755 -0.431677E-04  0.431E-02    8.95       1.0  T
   4    -50.7329819 -0.641053E-05  0.108E-02    8.95       1.8  T
   5    -50.7329821 -0.224615E-06  0.409E-03    8.95       4.8  T
   6    -50.7329821 -0.115136E-07  0.207E-03    8.95       9.5  T
speedup  0.91
cpu  time for SCC    0.01 s
wall time for SCC    0.01 s
speedup  0.98
cpu  time for grad    0.01 s
wall time for grad    0.01 s
 E :    -50.44656922  G :  0.027368    pred/act E change: -0.214D-02 -0.663D-03
Maxdispl :   0.1062   ||displ|| :   0.2026   Lambda : -0.169D-02
Largest |displ|/coords:  0.1062 (   2)  0.0645 (  13)  0.0627 (  27)
................................................................................
.............................. CYCLE   17 ......................................
................................................................................
   1    -50.7327634 -0.507328E+02  0.115E-01    8.96       0.0  T
   2    -50.7327769 -0.135237E-04  0.867E-02    8.96       1.0  T
   3    -50.7327870 -0.101368E-04  0.201E-02    8.96       1.0  T
   4    -50.7327885 -0.148215E-05  0.839E-03    8.96       2.3  T
   5    -50.7327886 -0.106966E-06  0.231E-03    8.96       8.5  T
   6    -50.7327886 -0.718905E-08  0.121E-03    8.96      16.2  T
speedup  0.91
cpu  time for SCC    0.00 s
wall time for SCC    0.01 s
speedup  0.91
cpu  time for grad    0.01 s
wall time for grad    0.01 s
 E :    -50.44737022  G :  0.020253    pred/act E change: -0.133D-02 -0.801D-03
Maxdispl :   0.1577   ||displ|| :   0.2269   Lambda : -0.116D-02
Largest |displ|/coords:  0.1577 (   2)  0.0900 (   4)  0.0571 (  21)
................................................................................
.............................. CYCLE   18 ......................................
................................................................................
   1    -50.7320310 -0.507320E+02  0.123E-01    8.97       0.0  T
   2    -50.7320415 -0.104917E-04  0.921E-02    8.97       1.0  T
   3    -50.7320484 -0.691197E-05  0.198E-02    8.97       1.0  T
   4    -50.7320496 -0.124058E-05  0.731E-03    8.97       2.7  T
   5    -50.7320497 -0.987191E-07  0.194E-03    8.97      10.1  T
   6    -50.7320497 -0.421112E-08  0.114E-03    8.97      17.1  T
speedup  0.93
cpu  time for SCC    0.01 s
wall time for SCC    0.01 s
speedup  0.99
cpu  time for grad    0.01 s
wall time for grad    0.01 s
 E :    -50.44777986  G :  0.021516    pred/act E change: -0.880D-03 -0.410D-03
Maxdispl :   0.0630   ||displ|| :   0.1515   Lambda : -0.610D-03
Largest |displ|/coords:  0.0630 (   2)  0.0602 (   4)  0.0529 (   5)
................................................................................
.............................. CYCLE   19 ......................................
................................................................................
   1    -50.7319956 -0.507320E+02  0.883E-02    8.97       0.0  T
   2    -50.7320006 -0.496394E-05  0.659E-02    8.97       1.0  T
   3    -50.7320041 -0.351468E-05  0.126E-02    8.97       1.6  T
   4    -50.7320047 -0.581544E-06  0.441E-03    8.97       4.5  T
   5    -50.7320047 -0.318781E-07  0.142E-03    8.97      13.8  T
speedup  1.14
cpu  time for SCC    0.00 s
wall time for SCC    0.00 s
speedup  1.00
cpu  time for grad    0.01 s
wall time for grad    0.01 s
 E :    -50.44809904  G :  0.015138    pred/act E change: -0.610D-03 -0.319D-03
Maxdispl :   0.1189   ||displ|| :   0.1984   Lambda : -0.580D-03
Largest |displ|/coords:  0.1189 (   2)  0.0842 (   4)  0.0470 (  13)
................................................................................
.............................. CYCLE   20 ......................................
................................................................................
   1    -50.7340145 -0.507340E+02  0.112E-01    8.99       0.0  T
   2    -50.7340231 -0.864835E-05  0.830E-02    8.99       1.0  T
   3    -50.7340283 -0.515407E-05  0.168E-02    8.98       1.2  T
   4    -50.7340293 -0.107376E-05  0.549E-03    8.98       3.6  T
   5    -50.7340294 -0.672228E-07  0.178E-03    8.98      11.0  T
   6    -50.7340294 -0.357519E-08  0.105E-03    8.98      18.6  T
speedup  0.93
cpu  time for SCC    0.00 s
wall time for SCC    0.01 s
speedup  0.99
cpu  time for grad    0.01 s
wall time for grad    0.01 s
 E :    -50.44830108  G :  0.012049    pred/act E change: -0.312D-03 -0.202D-03
Maxdispl :   0.0974   ||displ|| :   0.1433   Lambda : -0.373D-03
Largest |displ|/coords:  0.0974 (   2)  0.0582 (  11)  0.0397 (   4)
................................................................................
.............................. CYCLE   21 ......................................
................................................................................
   1    -50.7334702 -0.507335E+02  0.760E-02    8.97       0.0  T
   2    -50.7334731 -0.286517E-05  0.572E-02    8.97       1.0  T
   3    -50.7334758 -0.271925E-05  0.957E-03    8.98       2.0  T
   4    -50.7334761 -0.308252E-06  0.368E-03    8.98       5.3  T
   5    -50.7334761 -0.217480E-07  0.119E-03    8.98      16.5  T
   6    -50.7334762 -0.252960E-08  0.605E-04    8.98      32.4  T
speedup  1.09
cpu  time for SCC    0.01 s
wall time for SCC    0.01 s
speedup  1.06
cpu  time for grad    0.01 s
wall time for grad    0.01 s
 E :    -50.44849267  G :  0.008339    pred/act E change: -0.302D-03 -0.192D-03
Maxdispl :   0.1009   ||displ|| :   0.1450   Lambda : -0.269D-03
Largest |displ|/coords:  0.1009 (   2)  0.0425 (  13)  0.0421 (  11)
................................................................................
.............................. CYCLE   22 ......................................
................................................................................
   1    -50.7327704 -0.507328E+02  0.899E-02    8.98       0.0  T
   2    -50.7327740 -0.357719E-05  0.677E-02    8.98       1.0  T
   3    -50.7327761 -0.211340E-05  0.110E-02    8.99       1.8  T
   4    -50.7327767 -0.556194E-06  0.387E-03    8.99       5.1  T
   5    -50.7327767 -0.352420E-07  0.113E-03    8.99      17.4  T
   6    -50.7327767 -0.133527E-08  0.638E-04    8.99      30.8  T
speedup  1.09
cpu  time for SCC    0.01 s
wall time for SCC    0.01 s
speedup  0.98
cpu  time for grad    0.01 s
wall time for grad    0.01 s
 E :    -50.44865343  G :  0.007211    pred/act E change: -0.190D-03 -0.161D-03
Maxdispl :   0.0871   ||displ|| :   0.1382   Lambda : -0.155D-03
Largest |displ|/coords:  0.0871 (   2)  0.0501 (  13)  0.0370 (   4)
................................................................................
.............................. CYCLE   23 ......................................
................................................................................
   1    -50.7337510 -0.507338E+02  0.892E-02    8.99       0.0  T
   2    -50.7337527 -0.170386E-05  0.671E-02    8.99       1.0  T
   3    -50.7337537 -0.107596E-05  0.783E-03    9.00       2.5  T
   4    -50.7337540 -0.268774E-06  0.261E-03    9.00       7.5  T
   5    -50.7337540 -0.136164E-07  0.758E-04    9.00      25.9  T
speedup  1.11
cpu  time for SCC    0.00 s
wall time for SCC    0.00 s
speedup  0.98
cpu  time for grad    0.01 s
wall time for grad    0.01 s
 E :    -50.44876283  G :  0.006249    pred/act E change: -0.138D-03 -0.109D-03
Maxdispl :   0.1168   ||displ|| :   0.2017   Lambda : -0.179D-03
Largest |displ|/coords:  0.1168 (   2)  0.0765 (  13)  0.0520 (   1)
................................................................................
.............................. CYCLE   24 ......................................
................................................................................
   1    -50.7332100 -0.507332E+02  0.145E-01    9.00       0.0  T
   2    -50.7332124 -0.245337E-05  0.109E-01    9.00       1.0  T
   3    -50.7332148 -0.242150E-05  0.105E-02    9.00       1.9  T
   4    -50.7332151 -0.246455E-06  0.349E-03    9.00       5.6  T
   5    -50.7332151 -0.117010E-07  0.112E-03    9.00      17.5  T
   6    -50.7332151 -0.110939E-08  0.575E-04    9.00      34.1  T
speedup  0.93
cpu  time for SCC    0.01 s
wall time for SCC    0.01 s
speedup  0.99
cpu  time for grad    0.01 s
wall time for grad    0.01 s
 E :    -50.44886886  G :  0.007072    pred/act E change: -0.788D-04 -0.106D-03
Maxdispl :   0.0446   ||displ|| :   0.1068   Lambda : -0.121D-03
Largest |displ|/coords:  0.0446 (  14)  0.0437 (  13)  0.0305 (  11)
................................................................................
.............................. CYCLE   25 ......................................
................................................................................
   1    -50.7344539 -0.507345E+02  0.940E-02    9.00       0.0  T
   2    -50.7344552 -0.128665E-05  0.703E-02    9.00       1.0  T
   3    -50.7344563 -0.105432E-05  0.890E-03    9.00       2.2  T
   4    -50.7344564 -0.149014E-06  0.280E-03    9.00       7.0  T
   5    -50.7344564 -0.893903E-08  0.744E-04    9.00      26.4  T
speedup  0.87
cpu  time for SCC    0.00 s
wall time for SCC    0.00 s
speedup  0.96
cpu  time for grad    0.01 s
wall time for grad    0.01 s
 E :    -50.44895250  G :  0.005607    pred/act E change: -0.934D-04 -0.836D-04
Maxdispl :   0.0623   ||displ|| :   0.1290   Lambda : -0.139D-03
Largest |displ|/coords:  0.0623 (  14)  0.0431 (  13)  0.0374 (  19)

generating ANC from model Hessian ...
 Shifting diagonal of input Hessian by   5.033310411170946E-003
 Lowest  eigenvalues of input Hessian
    0.005000   -0.000000   -0.000000   -0.000000   -0.000000    0.000000
    0.000000    0.005426    0.005892    0.005978    0.006345    0.007061
    0.008177    0.008860    0.009618    0.010119    0.011213    0.012961
 Highest eigenvalues
    1.402747    1.411750    1.442048    2.542367    3.505565    3.587572
 
cpu  time for ANC gen    0.02 s
wall time for ANC gen    0.02 s
................................................................................
.............................. CYCLE   26 ......................................
................................................................................
   1    -50.7349444 -0.507349E+02  0.117E-01    9.01       0.0  T
   2    -50.7349463 -0.193501E-05  0.875E-02    9.01       1.0  T
   3    -50.7349479 -0.162187E-05  0.111E-02    9.01       1.8  T
   4    -50.7349481 -0.204757E-06  0.334E-03    9.01       5.9  T
   5    -50.7349481 -0.138517E-07  0.887E-04    9.01      22.1  T
   6    -50.7349481 -0.874472E-09  0.538E-04    9.01      36.4  T
speedup  0.93
cpu  time for SCC    0.00 s
wall time for SCC    0.01 s
speedup  0.96
cpu  time for grad    0.01 s
wall time for grad    0.01 s
 E :    -50.44905193  G :  0.006808    pred/act E change:  0.000D+00 -0.994D-04
Maxdispl :   0.0724   ||displ|| :   0.1279   Lambda : -0.227D-03
Largest |displ|/coords:  0.0724 (   3)  0.0522 (   6)  0.0428 (  10)
................................................................................
.............................. CYCLE   27 ......................................
................................................................................
   1    -50.7347898 -0.507348E+02  0.996E-02    9.01       0.0  T
   2    -50.7347921 -0.225417E-05  0.746E-02    9.01       1.0  T
   3    -50.7347936 -0.149925E-05  0.944E-03    9.01       2.1  T
   4    -50.7347939 -0.351337E-06  0.307E-03    9.01       6.4  T
   5    -50.7347939 -0.139134E-07  0.949E-04    9.01      20.7  T
   6    -50.7347939 -0.115983E-08  0.521E-04    9.01      37.6  T
speedup  0.94
cpu  time for SCC    0.01 s
wall time for SCC    0.01 s
speedup  1.00
cpu  time for grad    0.01 s
wall time for grad    0.01 s
 E :    -50.44919984  G :  0.004594    pred/act E change:  0.000D+00 -0.148D-03
Maxdispl :   0.0708   ||displ|| :   0.1816   Lambda : -0.241D-03
Largest |displ|/coords:  0.0708 (   9)  0.0657 (   7)  0.0558 (   1)
................................................................................
.............................. CYCLE   28 ......................................
................................................................................
   1    -50.7338327 -0.507338E+02  0.180E-01    9.01       0.0  T
   2    -50.7338400 -0.730214E-05  0.135E-01    9.01       1.0  T
   3    -50.7338450 -0.496512E-05  0.177E-02    9.01       1.1  T
   4    -50.7338461 -0.104899E-05  0.469E-03    9.01       4.2  T
   5    -50.7338461 -0.302206E-07  0.141E-03    9.01      13.9  T
   6    -50.7338461 -0.263201E-08  0.702E-04    9.01      27.9  T
speedup  1.13
cpu  time for SCC    0.01 s
wall time for SCC    0.01 s
speedup  1.00
cpu  time for grad    0.01 s
wall time for grad    0.01 s
 E :    -50.44934793  G :  0.005083    pred/act E change: -0.115D-03 -0.148D-03
Maxdispl :   0.0815   ||displ|| :   0.2044   Lambda : -0.184D-03
Largest |displ|/coords:  0.0815 (   7)  0.0740 (   8)  0.0663 (   3)
................................................................................
.............................. CYCLE   29 ......................................
................................................................................
   1    -50.7321449 -0.507321E+02  0.186E-01    9.00       0.0  T
   2    -50.7321506 -0.570706E-05  0.139E-01    9.00       1.0  T
   3    -50.7321553 -0.468006E-05  0.174E-02    9.01       1.1  T
   4    -50.7321560 -0.697192E-06  0.519E-03    9.01       3.8  T
   5    -50.7321560 -0.332781E-07  0.140E-03    9.01      14.1  T
   6    -50.7321560 -0.296250E-08  0.781E-04    9.01      25.1  T
speedup  0.91
cpu  time for SCC    0.00 s
wall time for SCC    0.01 s
speedup  0.98
cpu  time for grad    0.01 s
wall time for grad    0.01 s
 E :    -50.44947214  G :  0.008758    pred/act E change: -0.124D-03 -0.124D-03
Maxdispl :   0.1197   ||displ|| :   0.2234   Lambda : -0.216D-03
Largest |displ|/coords:  0.1197 (   7)  0.0690 (   8)  0.0674 (   9)
................................................................................
.............................. CYCLE   30 ......................................
................................................................................
   1    -50.7315267 -0.507315E+02  0.192E-01    8.99       0.0  T
   2    -50.7315319 -0.516646E-05  0.144E-01    8.99       1.0  T
   3    -50.7315371 -0.521958E-05  0.183E-02    8.99       1.1  T
   4    -50.7315376 -0.448702E-06  0.564E-03    8.99       3.5  T
   5    -50.7315376 -0.394700E-07  0.130E-03    8.99      15.1  T
   6    -50.7315376 -0.230121E-08  0.776E-04    8.99      25.3  T
speedup  0.93
cpu  time for SCC    0.00 s
wall time for SCC    0.01 s
speedup  0.99
cpu  time for grad    0.01 s
wall time for grad    0.01 s
 E :    -50.44959078  G :  0.010541    pred/act E change: -0.960D-04 -0.119D-03
Maxdispl :   0.0744   ||displ|| :   0.1472   Lambda : -0.160D-03
Largest |displ|/coords:  0.0744 (   1)  0.0522 (  11)  0.0430 (   6)
................................................................................
.............................. CYCLE   31 ......................................
................................................................................
   1    -50.7322226 -0.507322E+02  0.112E-01    9.00       0.0  T
   2    -50.7322245 -0.186739E-05  0.839E-02    9.00       1.0  T
   3    -50.7322264 -0.187227E-05  0.102E-02    9.00       1.9  T
   4    -50.7322265 -0.173768E-06  0.334E-03    9.00       5.9  T
   5    -50.7322266 -0.139916E-07  0.852E-04    9.00      23.0  T
   6    -50.7322266 -0.713804E-09  0.540E-04    9.00      36.3  T
speedup  1.11
cpu  time for SCC    0.01 s
wall time for SCC    0.01 s
speedup  1.05
cpu  time for grad    0.01 s
wall time for grad    0.01 s
 E :    -50.44972091  G :  0.009658    pred/act E change: -0.114D-03 -0.130D-03
Maxdispl :   0.1765   ||displ|| :   0.3539   Lambda : -0.387D-03
Largest |displ|/coords:  0.1765 (   1)  0.1236 (   7)  0.0974 (   6)
................................................................................
.............................. CYCLE   32 ......................................
................................................................................
   1    -50.7340507 -0.507341E+02  0.250E-01    9.05       0.0  T
   2    -50.7340601 -0.942036E-05  0.187E-01    9.05       1.0  T
   3    -50.7340693 -0.917239E-05  0.237E-02    9.05       1.0  T
   4    -50.7340702 -0.929549E-06  0.779E-03    9.05       2.5  T
   5    -50.7340703 -0.646486E-07  0.202E-03    9.05       9.7  T
   6    -50.7340703 -0.371352E-08  0.117E-03    9.05      16.7  T
speedup  1.11
cpu  time for SCC    0.01 s
wall time for SCC    0.01 s
speedup  0.97
cpu  time for grad    0.01 s
wall time for grad    0.01 s
 E :    -50.45000061  G :  0.008999    pred/act E change: -0.816D-04 -0.280D-03
Maxdispl :   0.2021   ||displ|| :   0.4493   Lambda : -0.368D-03
Largest |displ|/coords:  0.2021 (   1)  0.1939 (   7)  0.1344 (   6)
................................................................................
.............................. CYCLE   33 ......................................
................................................................................
   1    -50.7326586 -0.507327E+02  0.329E-01    8.99       0.0  T
   2    -50.7326741 -0.155302E-04  0.245E-01    9.00       1.0  T
   3    -50.7326899 -0.157740E-04  0.334E-02    9.00       1.0  T
   4    -50.7326912 -0.133625E-05  0.101E-02    9.00       1.9  T
   5    -50.7326914 -0.127925E-06  0.238E-03    9.00       8.2  T
   6    -50.7326914 -0.618536E-08  0.145E-03    9.00      13.5  T
speedup  1.11
cpu  time for SCC    0.01 s
wall time for SCC    0.01 s
speedup  0.99
cpu  time for grad    0.01 s
wall time for grad    0.01 s
 E :    -50.45025737  G :  0.013380    pred/act E change: -0.218D-03 -0.257D-03
Maxdispl :   0.1771   ||displ|| :   0.4277   Lambda : -0.754D-03
Largest |displ|/coords:  0.1771 (   1)  0.1386 (   7)  0.1295 (  26)
................................................................................
.............................. CYCLE   34 ......................................
................................................................................
   1    -50.7434066 -0.507434E+02  0.252E-01    9.12       0.0  T
   2    -50.7434411 -0.344490E-04  0.186E-01    9.12       1.0  T
   3    -50.7434595 -0.184479E-04  0.384E-02    9.12       1.0  T
   4    -50.7434641 -0.459414E-05  0.115E-02    9.11       1.7  T
   5    -50.7434643 -0.198473E-06  0.306E-03    9.11       6.4  T
   6    -50.7434643 -0.863677E-08  0.171E-03    9.11      11.5  T
   7    -50.7434643 -0.540916E-08  0.560E-04    9.11      35.0  T
speedup  0.97
cpu  time for SCC    0.01 s
wall time for SCC    0.01 s
speedup  1.01
cpu  time for grad    0.01 s
wall time for grad    0.01 s
 E :    -50.45001911  G :  0.035126    pred/act E change: -0.221D-03  0.238D-03
Maxdispl :   0.1265   ||displ|| :   0.2635   Lambda : -0.151D-02
Largest |displ|/coords:  0.1265 (   1)  0.0970 (   3)  0.0773 (   7)
................................................................................
.............................. CYCLE   35 ......................................
................................................................................
   1    -50.7356464 -0.507356E+02  0.255E-01    9.04       0.0  T
   2    -50.7356746 -0.282938E-04  0.190E-01    9.04       1.0  T
   3    -50.7356939 -0.192684E-04  0.331E-02    9.04       1.0  T
   4    -50.7356975 -0.355410E-05  0.642E-03    9.04       3.1  T
   5    -50.7356975 -0.645206E-07  0.311E-03    9.04       6.3  T
   6    -50.7356975 -0.156355E-07  0.154E-03    9.04      12.7  T
speedup  1.11
cpu  time for SCC    0.01 s
wall time for SCC    0.01 s
speedup  0.99
cpu  time for grad    0.01 s
wall time for grad    0.01 s
 E :    -50.45072916  G :  0.013489    pred/act E change: -0.446D-03 -0.710D-03
Maxdispl :   0.0523   ||displ|| :   0.1224   Lambda : -0.412D-03
Largest |displ|/coords:  0.0523 (   7)  0.0503 (   3)  0.0468 (   8)
................................................................................
.............................. CYCLE   36 ......................................
................................................................................
   1    -50.7353572 -0.507354E+02  0.978E-02    9.00       0.0  T
   2    -50.7353615 -0.432477E-05  0.727E-02    9.00       1.0  T
   3    -50.7353642 -0.268709E-05  0.149E-02    9.00       1.3  T
   4    -50.7353647 -0.514059E-06  0.389E-03    9.00       5.0  T
   5    -50.7353647 -0.279619E-07  0.104E-03    9.00      18.9  T
   6    -50.7353647 -0.936339E-09  0.578E-04    9.00      33.9  T
speedup  0.93
cpu  time for SCC    0.00 s
wall time for SCC    0.01 s
speedup  0.99
cpu  time for grad    0.01 s
wall time for grad    0.01 s
 E :    -50.45092615  G :  0.012335    pred/act E change: -0.808D-03 -0.197D-03
Maxdispl :   0.0692   ||displ|| :   0.1504   Lambda : -0.382D-03
Largest |displ|/coords:  0.0692 (   5)  0.0506 (   4)  0.0452 (   3)
................................................................................
.............................. CYCLE   37 ......................................
................................................................................
   1    -50.7374068 -0.507374E+02  0.102E-01    9.06       0.0  T
   2    -50.7374104 -0.361072E-05  0.754E-02    9.06       1.0  T
   3    -50.7374132 -0.281207E-05  0.140E-02    9.06       1.4  T
   4    -50.7374136 -0.384228E-06  0.372E-03    9.06       5.3  T
   5    -50.7374136 -0.259812E-07  0.123E-03    9.06      15.9  T
   6    -50.7374136 -0.218866E-08  0.724E-04    9.06      27.1  T
speedup  0.91
cpu  time for SCC    0.00 s
wall time for SCC    0.01 s
speedup  0.98
cpu  time for grad    0.01 s
wall time for grad    0.01 s
 E :    -50.45118089  G :  0.009824    pred/act E change: -0.209D-03 -0.255D-03
Maxdispl :   0.2204   ||displ|| :   0.5272   Lambda : -0.659D-03
Largest |displ|/coords:  0.2204 (   1)  0.1775 (   3)  0.1610 (   5)
................................................................................
.............................. CYCLE   38 ......................................
................................................................................
   1    -50.7372484 -0.507372E+02  0.341E-01    9.02       0.0  T
   2    -50.7372682 -0.197799E-04  0.255E-01    9.02       1.0  T
   3    -50.7372900 -0.217810E-04  0.330E-02    9.02       1.0  T
   4    -50.7372916 -0.159038E-05  0.871E-03    9.02       2.3  T
   5    -50.7372917 -0.144825E-06  0.328E-03    9.02       6.0  T
   6    -50.7372917 -0.176267E-07  0.179E-03    9.02      10.9  T
   7    -50.7372918 -0.370270E-08  0.452E-04    9.02      43.3  T
speedup  0.91
cpu  time for SCC    0.01 s
wall time for SCC    0.01 s
speedup  0.97
cpu  time for grad    0.01 s
wall time for grad    0.01 s
 E :    -50.45155658  G :  0.014900    pred/act E change: -0.195D-03 -0.376D-03
Maxdispl :   0.1310   ||displ|| :   0.3225   Lambda : -0.776D-03
Largest |displ|/coords:  0.1310 (   3)  0.1001 (   2)  0.0938 (   5)
................................................................................
.............................. CYCLE   39 ......................................
................................................................................
   1    -50.7457681 -0.507458E+02  0.225E-01    9.33       0.0  T
   2    -50.7457913 -0.232244E-04  0.158E-01    9.32       1.0  T
   3    -50.7458046 -0.132948E-04  0.363E-02    9.31       1.0  T
   4    -50.7458064 -0.178633E-05  0.124E-02    9.31       1.6  T
   5    -50.7458066 -0.233443E-06  0.262E-03    9.31       7.5  T
   6    -50.7458066 -0.954647E-08  0.170E-03    9.31      11.5  T
speedup  0.93
cpu  time for SCC    0.01 s
wall time for SCC    0.01 s
speedup  0.98
cpu  time for grad    0.01 s
wall time for grad    0.01 s
 E :    -50.45119410  G :  0.030114    pred/act E change: -0.421D-03  0.362D-03
Maxdispl :   0.1577   ||displ|| :   0.3090   Lambda : -0.177D-02
Largest |displ|/coords:  0.1577 (   7)  0.1079 (   4)  0.0864 (   1)
................................................................................
.............................. CYCLE   40 ......................................
................................................................................
   1    -50.7373158 -0.507373E+02  0.278E-01    9.07       0.0  T
   2    -50.7373415 -0.256987E-04  0.201E-01    9.07       1.0  T
   3    -50.7373570 -0.155242E-04  0.449E-02    9.08       1.0  T
   4    -50.7373596 -0.253128E-05  0.118E-02    9.08       1.7  T
   5    -50.7373598 -0.235005E-06  0.247E-03    9.08       7.9  T
   6    -50.7373598 -0.826404E-08  0.157E-03    9.08      12.5  T
speedup  0.93
cpu  time for SCC    0.00 s
wall time for SCC    0.01 s
speedup  0.98
cpu  time for grad    0.01 s
wall time for grad    0.01 s
 E :    -50.45199202  G :  0.015189    pred/act E change: -0.429D-03 -0.798D-03
Maxdispl :   0.1273   ||displ|| :   0.2456   Lambda : -0.743D-03
Largest |displ|/coords:  0.1273 (   9)  0.0977 (   2)  0.0739 (   3)
................................................................................
.............................. CYCLE   41 ......................................
................................................................................
   1    -50.7429131 -0.507429E+02  0.178E-01    9.09       0.0  T
   2    -50.7429250 -0.119106E-04  0.133E-01    9.09       1.0  T
   3    -50.7429329 -0.782810E-05  0.231E-02    9.08       1.0  T
   4    -50.7429345 -0.166592E-05  0.726E-03    9.09       2.7  T
   5    -50.7429346 -0.107297E-06  0.250E-03    9.09       7.8  T
   6    -50.7429346 -0.586549E-08  0.136E-03    9.09      14.4  T
speedup  1.09
cpu  time for SCC    0.01 s
wall time for SCC    0.01 s
speedup  1.05
cpu  time for grad    0.01 s
wall time for grad    0.01 s
 E :    -50.45198775  G :  0.020299    pred/act E change: -0.968D-03  0.427D-05
Maxdispl :   0.1330   ||displ|| :   0.3170   Lambda : -0.692D-03
Largest |displ|/coords:  0.1330 (   6)  0.1299 (   1)  0.1287 (   3)
................................................................................
.............................. CYCLE   42 ......................................
................................................................................
   1    -50.7392013 -0.507392E+02  0.204E-01    9.09       0.0  T
   2    -50.7392117 -0.103287E-04  0.153E-01    9.09       1.0  T
   3    -50.7392206 -0.889411E-05  0.194E-02    9.09       1.0  T
   4    -50.7392219 -0.133670E-05  0.709E-03    9.09       2.8  T
   5    -50.7392220 -0.749346E-07  0.232E-03    9.09       8.5  T
   6    -50.7392220 -0.537323E-08  0.129E-03    9.09      15.2  T
speedup  1.11
cpu  time for SCC    0.01 s
wall time for SCC    0.01 s
speedup  1.06
cpu  time for grad    0.01 s
wall time for grad    0.01 s
 E :    -50.45236655  G :  0.012095    pred/act E change: -0.394D-03 -0.379D-03
Maxdispl :   0.1043   ||displ|| :   0.1935   Lambda : -0.500D-03
Largest |displ|/coords:  0.1043 (   2)  0.0792 (   8)  0.0590 (  11)
................................................................................
.............................. CYCLE   43 ......................................
................................................................................
   1    -50.7410830 -0.507411E+02  0.110E-01    9.17       0.0  T
   2    -50.7410894 -0.639536E-05  0.825E-02    9.17       1.0  T
   3    -50.7410936 -0.418481E-05  0.151E-02    9.16       1.3  T
   4    -50.7410944 -0.872823E-06  0.483E-03    9.16       4.1  T
   5    -50.7410945 -0.504002E-07  0.159E-03    9.16      12.3  T
   6    -50.7410945 -0.266088E-08  0.843E-04    9.16      23.3  T
speedup  1.11
cpu  time for SCC    0.01 s
wall time for SCC    0.01 s
speedup  1.05
cpu  time for grad    0.01 s
wall time for grad    0.01 s
 E :    -50.45251594  G :  0.011900    pred/act E change: -0.381D-03 -0.149D-03
Maxdispl :   0.1308   ||displ|| :   0.2569   Lambda : -0.337D-03
Largest |displ|/coords:  0.1308 (   2)  0.0999 (   5)  0.0675 (   1)
................................................................................
.............................. CYCLE   44 ......................................
................................................................................
   1    -50.7403100 -0.507403E+02  0.142E-01    9.13       0.0  T
   2    -50.7403152 -0.524317E-05  0.107E-01    9.13       1.0  T
   3    -50.7403203 -0.501404E-05  0.144E-02    9.13       1.4  T
   4    -50.7403209 -0.631258E-06  0.437E-03    9.13       4.5  T
   5    -50.7403209 -0.275282E-07  0.156E-03    9.13      12.5  T
   6    -50.7403209 -0.335518E-08  0.802E-04    9.13      24.4  T
speedup  1.09
cpu  time for SCC    0.01 s
wall time for SCC    0.01 s
speedup  1.03
cpu  time for grad    0.01 s
wall time for grad    0.01 s
 E :    -50.45273372  G :  0.008824    pred/act E change: -0.259D-03 -0.218D-03
Maxdispl :   0.1495   ||displ|| :   0.2477   Lambda : -0.419D-03
Largest |displ|/coords:  0.1495 (   2)  0.1130 (   9)  0.0738 (   4)
................................................................................
.............................. CYCLE   45 ......................................
................................................................................
   1    -50.7441986 -0.507442E+02  0.123E-01    9.23       0.0  T
   2    -50.7442035 -0.490884E-05  0.912E-02    9.23       1.0  T
   3    -50.7442073 -0.377592E-05  0.147E-02    9.22       1.3  T
   4    -50.7442078 -0.518954E-06  0.349E-03    9.22       5.6  T
   5    -50.7442078 -0.300459E-07  0.150E-03    9.22      13.1  T
   6    -50.7442079 -0.403571E-08  0.758E-04    9.22      25.9  T
speedup  1.09
cpu  time for SCC    0.01 s
wall time for SCC    0.01 s
speedup  1.04
cpu  time for grad    0.01 s
wall time for grad    0.01 s
 E :    -50.45279432  G :  0.014202    pred/act E change: -0.179D-03 -0.606D-04
Maxdispl :   0.1376   ||displ|| :   0.2725   Lambda : -0.373D-03
Largest |displ|/coords:  0.1376 (   2)  0.0844 (   6)  0.0822 (   5)
................................................................................
.............................. CYCLE   46 ......................................
................................................................................
   1    -50.7424033 -0.507424E+02  0.168E-01    9.14       0.0  T
   2    -50.7424100 -0.669532E-05  0.125E-01    9.14       1.0  T
   3    -50.7424157 -0.574620E-05  0.198E-02    9.14       1.0  T
   4    -50.7424164 -0.723495E-06  0.465E-03    9.14       4.2  T
   5    -50.7424165 -0.397788E-07  0.148E-03    9.14      13.2  T
   6    -50.7424165 -0.314599E-08  0.847E-04    9.14      23.1  T
speedup  1.11
cpu  time for SCC    0.01 s
wall time for SCC    0.01 s
speedup  1.04
cpu  time for grad    0.01 s
wall time for grad    0.01 s
 E :    -50.45295364  G :  0.011536    pred/act E change: -0.222D-03 -0.159D-03
Maxdispl :   0.0578   ||displ|| :   0.1098   Lambda : -0.274D-03
Largest |displ|/coords:  0.0578 (   2)  0.0434 (   3)  0.0304 (  19)
................................................................................
.............................. CYCLE   47 ......................................
................................................................................
   1    -50.7435617 -0.507436E+02  0.689E-02    9.21       0.0  T
   2    -50.7435643 -0.267010E-05  0.511E-02    9.21       1.0  T
   3    -50.7435656 -0.130892E-05  0.108E-02    9.21       1.8  T
   4    -50.7435660 -0.328497E-06  0.290E-03    9.21       6.8  T
   5    -50.7435660 -0.204849E-07  0.871E-04    9.21      22.5  T
speedup  0.87
cpu  time for SCC    0.00 s
wall time for SCC    0.00 s
speedup  0.96
cpu  time for grad    0.01 s
wall time for grad    0.01 s
 E :    -50.45301511  G :  0.009106    pred/act E change: -0.200D-03 -0.615D-04
Maxdispl :   0.0500   ||displ|| :   0.0984   Lambda : -0.164D-03
Largest |displ|/coords:  0.0500 (   4)  0.0454 (   2)  0.0440 (   9)
................................................................................
.............................. CYCLE   48 ......................................
................................................................................
   1    -50.7439180 -0.507439E+02  0.435E-02    9.22       0.0  T
   2    -50.7439184 -0.404700E-06  0.326E-02    9.22       1.0  T
   3    -50.7439187 -0.313218E-06  0.370E-03    9.22       5.3  T
   4    -50.7439188 -0.488818E-07  0.132E-03    9.22      14.8  T
   5    -50.7439188 -0.203201E-08  0.376E-04    9.22      52.2  T
speedup  0.89
cpu  time for SCC    0.00 s
wall time for SCC    0.00 s
speedup  0.97
cpu  time for grad    0.01 s
wall time for grad    0.01 s
 E :    -50.45312595  G :  0.004362    pred/act E change: -0.139D-03 -0.111D-03
Maxdispl :   0.1521   ||displ|| :   0.2459   Lambda : -0.142D-03
Largest |displ|/coords:  0.1521 (   2)  0.0951 (   9)  0.0771 (   4)
................................................................................
.............................. CYCLE   49 ......................................
................................................................................
   1    -50.7438084 -0.507438E+02  0.113E-01    9.20       0.0  T
   2    -50.7438104 -0.199175E-05  0.851E-02    9.20       1.0  T
   3    -50.7438125 -0.208951E-05  0.974E-03    9.20       2.0  T
   4    -50.7438127 -0.179924E-06  0.281E-03    9.20       7.0  T
   5    -50.7438127 -0.133421E-07  0.101E-03    9.20      19.4  T
speedup  0.91
cpu  time for SCC    0.00 s
wall time for SCC    0.00 s
speedup  0.98
cpu  time for grad    0.01 s
wall time for grad    0.01 s
 E :    -50.45321430  G :  0.006845    pred/act E change: -0.829D-04 -0.884D-04
Maxdispl :   0.1820   ||displ|| :   0.3039   Lambda : -0.159D-03
Largest |displ|/coords:  0.1820 (   2)  0.1157 (   4)  0.1137 (   9)
................................................................................
.............................. CYCLE   50 ......................................
................................................................................
   1    -50.7439105 -0.507439E+02  0.126E-01    9.20       0.0  T
   2    -50.7439127 -0.221189E-05  0.945E-02    9.20       1.0  T
   3    -50.7439146 -0.185774E-05  0.972E-03    9.20       2.0  T
   4    -50.7439148 -0.271522E-06  0.445E-03    9.20       4.4  T
   5    -50.7439149 -0.159906E-07  0.920E-04    9.20      21.3  T
   6    -50.7439149 -0.101738E-08  0.618E-04    9.20      31.7  T
speedup  0.94
cpu  time for SCC    0.01 s
wall time for SCC    0.01 s
speedup  0.99
cpu  time for grad    0.01 s
wall time for grad    0.01 s
 E :    -50.45331785  G :  0.007815    pred/act E change: -0.751D-04 -0.104D-03
Maxdispl :   0.1709   ||displ|| :   0.3409   Lambda : -0.191D-03
Largest |displ|/coords:  0.1709 (   2)  0.1495 (   4)  0.1405 (   3)
................................................................................
.............................. CYCLE   51 ......................................
................................................................................
   1    -50.7455726 -0.507456E+02  0.138E-01    9.23       0.0  T
   2    -50.7455756 -0.303099E-05  0.104E-01    9.23       1.0  T
   3    -50.7455773 -0.167043E-05  0.109E-02    9.23       1.8  T
   4    -50.7455778 -0.537851E-06  0.454E-03    9.23       4.3  T
   5    -50.7455779 -0.199136E-07  0.985E-04    9.23      19.9  T
   6    -50.7455779 -0.781156E-09  0.611E-04    9.23      32.1  T
speedup  1.11
cpu  time for SCC    0.01 s
wall time for SCC    0.01 s
speedup  1.04
cpu  time for grad    0.01 s
wall time for grad    0.01 s
 E :    -50.45344991  G :  0.008340    pred/act E change: -0.868D-04 -0.132D-03
Maxdispl :   0.2864   ||displ|| :   0.5055   Lambda : -0.293D-03
Largest |displ|/coords:  0.2864 (   2)  0.1877 (   9)  0.1404 (   1)
................................................................................
.............................. CYCLE   52 ......................................
................................................................................
   1    -50.7432199 -0.507432E+02  0.233E-01    9.18       0.0  T
   2    -50.7432284 -0.854982E-05  0.175E-01    9.18       1.0  T
   3    -50.7432358 -0.738445E-05  0.198E-02    9.19       1.0  T
   4    -50.7432368 -0.995671E-06  0.873E-03    9.19       2.2  T
   5    -50.7432369 -0.601617E-07  0.184E-03    9.19      10.6  T
   6    -50.7432369 -0.295596E-08  0.125E-03    9.19      15.7  T
speedup  1.11
cpu  time for SCC    0.01 s
wall time for SCC    0.01 s
speedup  1.05
cpu  time for grad    0.01 s
wall time for grad    0.01 s
 E :    -50.45366697  G :  0.009435    pred/act E change: -0.107D-03 -0.217D-03
Maxdispl :   0.1978   ||displ|| :   0.4446   Lambda : -0.468D-03
Largest |displ|/coords:  0.1978 (   1)  0.1596 (   2)  0.1511 (   9)

generating ANC from model Hessian ...
 Shifting diagonal of input Hessian by   4.943914726345962E-003
 Lowest  eigenvalues of input Hessian
   -0.000000   -0.000000   -0.000000    0.000000    0.000000    0.000000
    0.005000    0.005350    0.005942    0.006192    0.006342    0.007536
    0.007582    0.007727    0.008024    0.009413    0.010012    0.010923
 Highest eigenvalues
    1.387473    1.410847    1.469781    2.549001    3.517818    3.607639
 
cpu  time for ANC gen    0.02 s
wall time for ANC gen    0.02 s
................................................................................
.............................. CYCLE   53 ......................................
................................................................................
   1    -50.7440381 -0.507440E+02  0.226E-01    9.16       0.0  T
   2    -50.7440497 -0.115699E-04  0.170E-01    9.16       1.0  T
   3    -50.7440560 -0.628577E-05  0.235E-02    9.16       1.0  T
   4    -50.7440579 -0.196323E-05  0.882E-03    9.16       2.2  T
   5    -50.7440580 -0.792059E-07  0.206E-03    9.16       9.5  T
   6    -50.7440580 -0.368377E-08  0.124E-03    9.16      15.8  T
   7    -50.7440580 -0.266945E-08  0.400E-04    9.16      49.1  T
   8    -50.7440580 -0.457035E-09  0.128E-04    9.16     153.0  T
speedup  1.11
cpu  time for SCC    0.01 s
wall time for SCC    0.01 s
speedup  1.02
cpu  time for grad    0.02 s
wall time for grad    0.02 s
 E :    -50.45394580  G :  0.017503    pred/act E change:  0.000D+00 -0.279D-03
Maxdispl :   0.1495   ||displ|| :   0.2421   Lambda : -0.961D-03
Largest |displ|/coords:  0.1495 (  10)  0.0738 (   3)  0.0682 (  12)
................................................................................
.............................. CYCLE   54 ......................................
................................................................................
   1    -50.7445650 -0.507446E+02  0.179E-01    9.17       0.0  T
   2    -50.7445722 -0.716533E-05  0.135E-01    9.17       1.0  T
   3    -50.7445780 -0.574171E-05  0.155E-02    9.18       1.3  T
   4    -50.7445789 -0.951189E-06  0.601E-03    9.18       3.3  T
   5    -50.7445790 -0.583464E-07  0.204E-03    9.18       9.6  T
   6    -50.7445790 -0.458762E-08  0.119E-03    9.18      16.5  T
speedup  0.93
cpu  time for SCC    0.00 s
wall time for SCC    0.01 s
speedup  0.98
cpu  time for grad    0.01 s
wall time for grad    0.01 s
 E :    -50.45460246  G :  0.009373    pred/act E change:  0.000D+00 -0.657D-03
Maxdispl :   0.2328   ||displ|| :   0.3978   Lambda : -0.103D-02
Largest |displ|/coords:  0.2328 (  10)  0.1461 (   1)  0.1449 (  12)
................................................................................
.............................. CYCLE   55 ......................................
................................................................................
   1    -50.7433261 -0.507433E+02  0.281E-01    9.16       0.0  T
   2    -50.7433372 -0.111253E-04  0.211E-01    9.16       1.0  T
   3    -50.7433489 -0.117187E-04  0.213E-02    9.16       1.0  T
   4    -50.7433499 -0.931727E-06  0.749E-03    9.16       2.6  T
   5    -50.7433499 -0.604827E-07  0.266E-03    9.16       7.4  T
   6    -50.7433499 -0.788705E-08  0.139E-03    9.16      14.1  T
speedup  0.94
cpu  time for SCC    0.00 s
wall time for SCC    0.01 s
speedup  0.98
cpu  time for grad    0.01 s
wall time for grad    0.01 s
 E :    -50.45541603  G :  0.010702    pred/act E change: -0.509D-03 -0.814D-03
Maxdispl :   0.3592   ||displ|| :   0.6466   Lambda : -0.152D-02
Largest |displ|/coords:  0.3592 (  10)  0.2603 (   1)  0.2273 (  12)
................................................................................
.............................. CYCLE   56 ......................................
................................................................................
   1    -50.7379426 -0.507379E+02  0.381E-01    9.07       0.0  T
   2    -50.7379614 -0.187766E-04  0.285E-01    9.07       1.0  T
   3    -50.7379773 -0.158821E-04  0.293E-02    9.09       1.0  T
   4    -50.7379795 -0.226538E-05  0.118E-02    9.09       1.7  T
   5    -50.7379797 -0.153372E-06  0.351E-03    9.09       5.6  T
   6    -50.7379797 -0.143329E-07  0.203E-03    9.09       9.7  T
   7    -50.7379797 -0.792519E-08  0.511E-04    9.09      38.4  T
speedup  1.13
cpu  time for SCC    0.01 s
wall time for SCC    0.01 s
speedup  1.06
cpu  time for grad    0.01 s
wall time for grad    0.01 s
 E :    -50.45638305  G :  0.028197    pred/act E change: -0.594D-03 -0.967D-03
Maxdispl :   0.1690   ||displ|| :   0.3795   Lambda : -0.169D-02
Largest |displ|/coords:  0.1690 (   1)  0.1321 (  12)  0.1261 (  18)
................................................................................
.............................. CYCLE   57 ......................................
................................................................................
   1    -50.7449388 -0.507449E+02  0.131E-01    9.11       0.0  T
   2    -50.7449567 -0.179103E-04  0.958E-02    9.11       1.0  T
   3    -50.7449639 -0.720766E-05  0.248E-02    9.12       1.0  T
   4    -50.7449659 -0.206886E-05  0.717E-03    9.12       2.7  T
   5    -50.7449661 -0.120920E-06  0.225E-03    9.12       8.7  T
   6    -50.7449661 -0.541793E-08  0.121E-03    9.12      16.2  T
speedup  1.11
cpu  time for SCC    0.01 s
wall time for SCC    0.01 s
speedup  0.98
cpu  time for grad    0.01 s
wall time for grad    0.01 s
 E :    -50.45744774  G :  0.025879    pred/act E change: -0.108D-02 -0.106D-02
Maxdispl :   0.2030   ||displ|| :   0.5168   Lambda : -0.247D-02
Largest |displ|/coords:  0.2030 (   1)  0.2008 (  12)  0.1760 (   6)
................................................................................
.............................. CYCLE   58 ......................................
................................................................................
   1    -50.7508934 -0.507509E+02  0.329E-01    9.22       0.0  T
   2    -50.7509455 -0.520886E-04  0.248E-01    9.22       1.0  T
   3    -50.7509776 -0.320744E-04  0.407E-02    9.22       1.0  T
   4    -50.7509856 -0.802688E-05  0.993E-03    9.22       2.0  T
   5    -50.7509859 -0.240806E-06  0.428E-03    9.22       4.6  T
   6    -50.7509859 -0.158796E-07  0.230E-03    9.22       8.5  T
speedup  0.94
cpu  time for SCC    0.00 s
wall time for SCC    0.01 s
speedup  0.98
cpu  time for grad    0.01 s
wall time for grad    0.01 s
 E :    -50.45760005  G :  0.034139    pred/act E change: -0.965D-03 -0.152D-03
Maxdispl :   0.1389   ||displ|| :   0.2726   Lambda : -0.262D-02
Largest |displ|/coords:  0.1389 (   6)  0.1238 (  10)  0.0834 (   1)
................................................................................
.............................. CYCLE   59 ......................................
................................................................................
   1    -50.7486150 -0.507486E+02  0.182E-01    9.15       0.0  T
   2    -50.7486301 -0.151251E-04  0.137E-01    9.15       1.0  T
   3    -50.7486421 -0.119617E-04  0.225E-02    9.15       1.0  T
   4    -50.7486439 -0.182541E-05  0.618E-03    9.15       3.2  T
   5    -50.7486439 -0.661147E-07  0.285E-03    9.15       6.9  T
   6    -50.7486440 -0.759266E-08  0.137E-03    9.15      14.3  T
speedup  0.91
cpu  time for SCC    0.00 s
wall time for SCC    0.01 s
speedup  0.97
cpu  time for grad    0.01 s
wall time for grad    0.01 s
 E :    -50.45889230  G :  0.012734    pred/act E change: -0.157D-02 -0.129D-02
Maxdispl :   0.0905   ||displ|| :   0.1779   Lambda : -0.593D-03
Largest |displ|/coords:  0.0905 (   1)  0.0585 (  15)  0.0531 (   8)
................................................................................
.............................. CYCLE   60 ......................................
................................................................................
   1    -50.7520233 -0.507520E+02  0.107E-01    9.18       0.0  T
   2    -50.7520308 -0.752694E-05  0.799E-02    9.18       1.0  T
   3    -50.7520333 -0.241973E-05  0.163E-02    9.17       1.2  T
   4    -50.7520346 -0.137303E-05  0.346E-03    9.17       5.7  T
   5    -50.7520347 -0.225916E-07  0.146E-03    9.17      13.5  T
   6    -50.7520347 -0.383503E-08  0.646E-04    9.17      30.4  T
speedup  0.93
cpu  time for SCC    0.00 s
wall time for SCC    0.01 s
speedup  0.97
cpu  time for grad    0.01 s
wall time for grad    0.01 s
 E :    -50.45917224  G :  0.009348    pred/act E change: -0.141D-02 -0.280D-03
Maxdispl :   0.2677   ||displ|| :   0.5132   Lambda : -0.877D-03
Largest |displ|/coords:  0.2677 (   1)  0.2434 (  10)  0.1704 (  15)
................................................................................
.............................. CYCLE   61 ......................................
................................................................................
   1    -50.7460427 -0.507460E+02  0.254E-01    9.08       0.0  T
   2    -50.7460587 -0.159568E-04  0.190E-01    9.08       1.0  T
   3    -50.7460712 -0.125497E-04  0.235E-02    9.08       1.0  T
   4    -50.7460733 -0.203561E-05  0.828E-03    9.08       2.4  T
   5    -50.7460734 -0.106165E-06  0.307E-03    9.08       6.4  T
   6    -50.7460734 -0.128886E-07  0.171E-03    9.08      11.5  T
   7    -50.7460734 -0.575061E-08  0.388E-04    9.08      50.5  T
speedup  0.97
cpu  time for SCC    0.01 s
wall time for SCC    0.01 s
speedup  0.99
cpu  time for grad    0.01 s
wall time for grad    0.01 s
 E :    -50.45938925  G :  0.022333    pred/act E change: -0.306D-03 -0.217D-03
Maxdispl :   0.0685   ||displ|| :   0.1669   Lambda : -0.992D-03
Largest |displ|/coords:  0.0685 (  13)  0.0617 (   9)  0.0574 (   6)
................................................................................
.............................. CYCLE   62 ......................................
................................................................................
   1    -50.7530938 -0.507531E+02  0.951E-02    9.15       0.0  T
   2    -50.7530970 -0.313872E-05  0.703E-02    9.14       1.0  T
   3    -50.7530989 -0.191837E-05  0.122E-02    9.14       1.6  T
   4    -50.7530993 -0.391616E-06  0.455E-03    9.14       4.3  T
   5    -50.7530993 -0.194369E-07  0.102E-03    9.14      19.2  T
speedup  0.89
cpu  time for SCC    0.00 s
wall time for SCC    0.00 s
speedup  0.97
cpu  time for grad    0.01 s
wall time for grad    0.01 s
 E :    -50.45981122  G :  0.012220    pred/act E change: -0.554D-03 -0.422D-03
Maxdispl :   0.0972   ||displ|| :   0.2288   Lambda : -0.484D-03
Largest |displ|/coords:  0.0972 (   7)  0.0962 (  10)  0.0699 (  12)
................................................................................
.............................. CYCLE   63 ......................................
................................................................................
   1    -50.7528377 -0.507528E+02  0.131E-01    9.13       0.0  T
   2    -50.7528422 -0.450056E-05  0.975E-02    9.13       1.0  T
   3    -50.7528453 -0.309367E-05  0.130E-02    9.14       1.5  T
   4    -50.7528460 -0.717525E-06  0.410E-03    9.14       4.8  T
   5    -50.7528460 -0.268029E-07  0.155E-03    9.14      12.6  T
   6    -50.7528460 -0.383618E-08  0.779E-04    9.14      25.2  T
speedup  0.91
cpu  time for SCC    0.00 s
wall time for SCC    0.01 s
speedup  0.97
cpu  time for grad    0.01 s
wall time for grad    0.01 s
 E :    -50.46005101  G :  0.010969    pred/act E change: -0.510D-03 -0.240D-03
Maxdispl :   0.1183   ||displ|| :   0.2708   Lambda : -0.471D-03
Largest |displ|/coords:  0.1183 (   7)  0.1060 (   6)  0.0836 (   9)
................................................................................
.............................. CYCLE   64 ......................................
................................................................................
   1    -50.7529675 -0.507530E+02  0.144E-01    9.12       0.0  T
   2    -50.7529723 -0.482099E-05  0.107E-01    9.12       1.0  T
   3    -50.7529768 -0.446411E-05  0.151E-02    9.12       1.3  T
   4    -50.7529772 -0.430078E-06  0.566E-03    9.12       3.5  T
   5    -50.7529773 -0.411156E-07  0.148E-03    9.12      13.3  T
   6    -50.7529773 -0.234800E-08  0.921E-04    9.12      21.3  T
speedup  0.91
cpu  time for SCC    0.00 s
wall time for SCC    0.01 s
speedup  0.97
cpu  time for grad    0.01 s
wall time for grad    0.01 s
 E :    -50.46037992  G :  0.009997    pred/act E change: -0.254D-03 -0.329D-03
Maxdispl :   0.1686   ||displ|| :   0.4022   Lambda : -0.493D-03
Largest |displ|/coords:  0.1686 (   6)  0.1679 (  10)  0.1620 (   7)
................................................................................
.............................. CYCLE   65 ......................................
[...]
   4    -50.7594483 -0.129953E-07  0.608E-04    9.24      32.3  T
   5    -50.7594483 -0.248733E-09  0.927E-05    9.24     211.6  T
speedup  1.09
cpu  time for SCC    0.00 s
wall time for SCC    0.00 s
speedup  1.00
cpu  time for grad    0.01 s
wall time for grad    0.01 s
 E :    -50.46421395  G :  0.000558    pred/act E change: -0.109D-04 -0.130D-05
Maxdispl :   0.0602   ||displ|| :   0.1245   Lambda : -0.784D-05
Largest |displ|/coords:  0.0602 (  37)  0.0469 (   1)  0.0386 (   6)

generating ANC from model Hessian ...
 Shifting diagonal of input Hessian by   5.095588721539739E-003
 Lowest  eigenvalues of input Hessian
    0.005000   -0.000000    0.000000    0.000000    0.000000    0.000000
    0.000000    0.005427    0.005828    0.006616    0.007124    0.007654
    0.008770    0.009272    0.009691    0.010000    0.010985    0.011156
 Highest eigenvalues
    1.400913    1.401569    1.468505    2.593139    3.453263    3.640729
 
cpu  time for ANC gen    0.02 s
wall time for ANC gen    0.02 s
................................................................................
.............................. CYCLE  147 ......................................
................................................................................
   1    -50.7588456 -0.507588E+02  0.114E-01    9.24       0.0  T
   2    -50.7588484 -0.277585E-05  0.861E-02    9.24       1.0  T
   3    -50.7588495 -0.112002E-05  0.111E-02    9.24       1.8  T
   4    -50.7588501 -0.574376E-06  0.377E-03    9.24       5.2  T
   5    -50.7588501 -0.110937E-07  0.710E-04    9.24      27.6  T
   6    -50.7588501 -0.368431E-09  0.442E-04    9.24      44.4  T
speedup  0.94
cpu  time for SCC    0.00 s
wall time for SCC    0.01 s
speedup  0.96
cpu  time for grad    0.01 s
wall time for grad    0.01 s
 E :    -50.46421184  G :  0.003782    pred/act E change:  0.000D+00  0.211D-05
Maxdispl :   0.0029   ||displ|| :   0.0078   Lambda : -0.119D-04
Largest |displ|/coords:  0.0029 (   8)  0.0024 (   6)  0.0024 (  67)
................................................................................
.............................. CYCLE  148 ......................................
................................................................................
   1    -50.7592940 -0.507593E+02  0.731E-03    9.24       0.0  T
   2    -50.7592941 -0.101462E-06  0.517E-03    9.24       3.8  T
   3    -50.7592941 -0.391808E-07  0.220E-03    9.24       8.9  T
   4    -50.7592941 -0.795526E-08  0.590E-04    9.24      33.2  T
   5    -50.7592941 -0.619977E-09  0.172E-04    9.24     114.0  T
speedup  0.91
cpu  time for SCC    0.00 s
wall time for SCC    0.00 s
speedup  0.94
cpu  time for grad    0.01 s
wall time for grad    0.01 s
 E :    -50.46421939  G :  0.001005    pred/act E change:  0.000D+00 -0.756D-05
Maxdispl :   0.0050   ||displ|| :   0.0099   Lambda : -0.210D-05
Largest |displ|/coords:  0.0050 (   7)  0.0045 (  14)  0.0032 (   2)
................................................................................
.............................. CYCLE  149 ......................................
................................................................................
   1    -50.7594854 -0.507595E+02  0.895E-03    9.24       0.0  T
   2    -50.7594854 -0.262911E-07  0.673E-03    9.24       2.9  T
   3    -50.7594854 -0.146845E-07  0.110E-03    9.24      17.8  T
   4    -50.7594854 -0.453674E-08  0.359E-04    9.24      54.6  T
   5    -50.7594854 -0.155332E-09  0.905E-05    9.24     216.6  T
speedup  1.14
cpu  time for SCC    0.00 s
wall time for SCC    0.00 s
speedup  1.02
cpu  time for grad    0.01 s
wall time for grad    0.01 s
 E :    -50.46422020  G :  0.000408    pred/act E change: -0.597D-05 -0.803D-06
Maxdispl :   0.0029   ||displ|| :   0.0072   Lambda : -0.933D-06
Largest |displ|/coords:  0.0029 (  12)  0.0029 (   8)  0.0028 (  15)
................................................................................
.............................. CYCLE  150 ......................................
................................................................................
   1    -50.7595258 -0.507595E+02  0.671E-03    9.24       0.0  T
   2    -50.7595258 -0.958754E-08  0.506E-03    9.24       3.9  T
   3    -50.7595258 -0.578618E-08  0.681E-04    9.24      28.8  T
   4    -50.7595258 -0.167885E-08  0.173E-04    9.24     113.6  T
speedup  1.08
cpu  time for SCC    0.00 s
wall time for SCC    0.00 s
speedup  1.08
cpu  time for grad    0.01 s
wall time for grad    0.01 s
 E :    -50.46422062  G :  0.000524    pred/act E change: -0.105D-05 -0.426D-06
Maxdispl :   0.0020   ||displ|| :   0.0045   Lambda : -0.376D-06
Largest |displ|/coords:  0.0020 (   8)  0.0019 (  15)  0.0019 (   2)
................................................................................
.............................. CYCLE  151 ......................................
................................................................................
   1    -50.7594892 -0.507595E+02  0.357E-03    9.24       0.0  T
   2    -50.7594892 -0.235561E-08  0.270E-03    9.24       7.3  T
   3    -50.7594892 -0.176482E-08  0.261E-04    9.24      75.3  T
   4    -50.7594892 -0.348834E-09  0.111E-04    9.24     176.5  T
speedup  1.11
cpu  time for SCC    0.00 s
wall time for SCC    0.00 s
speedup  1.01
cpu  time for grad    0.01 s
wall time for grad    0.01 s
 E :    -50.46422093  G :  0.000243    pred/act E change: -0.467D-06 -0.309D-06
Maxdispl :   0.0076   ||displ|| :   0.0170   Lambda : -0.789D-06
Largest |displ|/coords:  0.0076 (   8)  0.0072 (   2)  0.0071 (  15)
................................................................................
.............................. CYCLE  152 ......................................
................................................................................
   1    -50.7594496 -0.507594E+02  0.134E-02    9.24       0.0  T
   2    -50.7594497 -0.273085E-07  0.101E-02    9.24       1.9  T
   3    -50.7594497 -0.228377E-07  0.935E-04    9.24      21.0  T
   4    -50.7594497 -0.356638E-08  0.381E-04    9.24      51.5  T
speedup  1.11
cpu  time for SCC    0.00 s
wall time for SCC    0.00 s
speedup  1.01
cpu  time for grad    0.01 s
wall time for grad    0.01 s
 E :    -50.46422140  G :  0.000246    pred/act E change: -0.188D-06 -0.471D-06
Maxdispl :   0.0031   ||displ|| :   0.0069   Lambda : -0.148D-06
Largest |displ|/coords:  0.0031 (   2)  0.0031 (  15)  0.0028 (   8)
................................................................................
.............................. CYCLE  153 ......................................
................................................................................
   1    -50.7594569 -0.507595E+02  0.528E-03    9.24       0.0  T
   2    -50.7594569 -0.403684E-08  0.398E-03    9.24       4.9  T
   3    -50.7594569 -0.386326E-08  0.385E-04    9.24      51.0  T
   4    -50.7594569 -0.437154E-09  0.161E-04    9.24     121.7  T
speedup  1.03
cpu  time for SCC    0.00 s
wall time for SCC    0.00 s
speedup  0.98
cpu  time for grad    0.01 s
wall time for grad    0.01 s
 E :    -50.46422153  G :  0.000226    pred/act E change: -0.395D-06 -0.132D-06
Maxdispl :   0.0072   ||displ|| :   0.0162   Lambda : -0.322D-06
Largest |displ|/coords:  0.0072 (   2)  0.0072 (  15)  0.0063 (   8)
................................................................................
.............................. CYCLE  154 ......................................
................................................................................
   1    -50.7594714 -0.507595E+02  0.122E-02    9.24       0.0  T
   2    -50.7594714 -0.202561E-07  0.920E-03    9.24       2.1  T
   3    -50.7594714 -0.216480E-07  0.836E-04    9.24      23.5  T
   4    -50.7594714 -0.171694E-08  0.363E-04    9.24      54.0  T
speedup  1.08
cpu  time for SCC    0.00 s
wall time for SCC    0.00 s
speedup  0.99
cpu  time for grad    0.01 s
wall time for grad    0.01 s
 E :    -50.46422173  G :  0.000158    pred/act E change: -0.742D-07 -0.193D-06
Maxdispl :   0.0021   ||displ|| :   0.0042   Lambda : -0.114D-06
Largest |displ|/coords:  0.0021 (   6)  0.0017 (   3)  0.0015 (   2)
................................................................................
.............................. CYCLE  155 ......................................
................................................................................
   1    -50.7594783 -0.507595E+02  0.267E-03    9.24       0.0  T
   2    -50.7594783 -0.110312E-08  0.200E-03    9.24       9.8  T
   3    -50.7594783 -0.111086E-08  0.246E-04    9.24      79.6  T
   4    -50.7594783 -0.935003E-10  0.721E-05    9.24     272.0  T
speedup  1.05
cpu  time for SCC    0.00 s
wall time for SCC    0.00 s
speedup  0.99
cpu  time for grad    0.01 s
wall time for grad    0.01 s
 E :    -50.46422182  G :  0.000123    pred/act E change: -0.161D-06 -0.978D-07
Maxdispl :   0.0059   ||displ|| :   0.0107   Lambda : -0.206D-06
Largest |displ|/coords:  0.0059 (   6)  0.0042 (   2)  0.0027 (  15)

   *** GEOMETRY OPTIMIZATION CONVERGED AFTER 155 ITERATIONS ***

------------------------------------------------------------------------
 total energy gain (kcal):     -0.0063
------------------------------------------------------------------------
================
 final structure:
================
$coord
       -3.34203145989616       -0.26574790270105       -2.79264502275699      S 
       -1.80693328116193        1.55693102389347       -1.38539109285159      O 
       -5.12732972409905       -1.60283348161005       -1.21647844493463      O 
       -1.73597149478581       -1.89804520658870       -4.29978495175523      O 
       -5.01681070156482        1.35366473525576       -4.68302176965125      O 
       -6.65314107695701        0.71537632441423       -4.29790830701760      H 
        0.64021522088508       -3.37475858627749       -3.19785154035524      H 
        2.03981909692562       -4.24198947037036       -2.29374400799671      O 
        2.42417998571911       -5.71167467044522       -3.27862437322338      H 
        0.64148932380057       -0.65268344719644        4.66475546018972      O 
        0.96377872005268       -1.45654397370811        6.25356195851739      H 
        4.23391464580882        5.01259182028028        0.68363396061763      O 
        4.12179886376094        6.34827422867959       -0.53269211465692      H 
       -0.33660570636250        4.32059654079370        2.74914339631158      O 
       -1.23334033959160        3.68112779139236        1.28195474572429      H 
       -0.20407863353764        2.88833779484957        3.87551809551182      H 
        2.62462970276476        5.04622802047371        1.63109054589789      H 
       -1.64849464286163       -3.80734611890721        1.63107440708062      O 
       -0.41992461927012       -4.32716862260789        0.37928901640571      H 
       -0.45331991186521       -1.82910395630254        3.68880154631502      H 
       -3.08409486451012       -3.10603008800202        0.69787592775994      H 
        2.74518814829427        0.24848185597892        0.07073903503795      N 
        0.94650337737556        0.73948073178122       -0.67692026180540      H 
        3.87314120427091        1.85621580988074       -0.02568880777788      H 
        2.42689372079696       -0.18070648319325        1.95816563383004      H 
        3.38052444597396       -1.31267468862541       -0.88485307221660      H 
$end
 
 Bond Distances (Angstroems)
 ---------------------------
S1-O2=1.4645         S1-O3=1.4453         S1-O4=1.4507         S1-O5=1.5876         O2-S1=1.4645         O3-S1=1.4453         
O4-S1=1.4507         O5-S1=1.5876         O5-H6=0.9515         H6-O5=0.9515         H7-O8=0.9940         O8-H7=0.9940         
O8-H9=0.9580         H9-O8=0.9580         O10-H11=0.9576       O10-H20=0.9949       H11-O10=0.9576       O12-H13=0.9578       
O12-H17=0.9884       H13-O12=0.9578       O14-H15=0.9708       O14-H16=0.9668       H15-O14=0.9708       H16-O14=0.9668       
H17-O12=0.9884       O18-H19=0.9681       O18-H21=0.9791       H19-O18=0.9681       H20-O10=0.9949       H21-O18=0.9791       
N22-H23=1.0630       N22-H24=1.0405       N22-H25=1.0380       N22-H26=1.0253       H23-N22=1.0630       H24-N22=1.0405       
H25-N22=1.0380       H26-N22=1.0253       
 N  H  Rav=1.0417 sigma=0.0136  Rmin=1.0253  Rmax=1.0630     4
 O  H  Rav=0.9716 sigma=0.0148  Rmin=0.9515  Rmax=0.9949    11
 S  O  Rav=1.4870 sigma=0.0585  Rmin=1.4453  Rmax=1.5876     4
 
 selected bond angles (degree)
 --------------------
O3-S1-O2=113.05                O4-S1-O2=110.29                O4-S1-O3=114.13                O5-S1-O2=105.93                
O5-S1-O3=105.25                O5-S1-O4=107.58                H6-O5-S1=100.45                H9-O8-H7=105.73                
H20-O10-H11=106.35             
 
 selected dihedral angles (degree)
 ---------------------------------
H6-O5-S1-O2=232.18            H6-O5-S1-O3=352.17            H6-O5-S1-O4=114.23            
 
 CMA Distance (Angstroems)
 ---------------------------
R(CMA):  3.2894

========================================================================
 FINAL SINGLEPOINT CALCULATION ON OPTIMIZED GEOMETRY
========================================================================

 Ncao       : 65
 Nao        : 64
 Nshell     : 38
 Nel        : 80
 T(el)      :   300.0
 intcut     :    25.0
 scfconv/Eh :  0.100E-05
   qconv/e  :  0.100E-03
 intneglect :  0.100E-07
 broydamp   :      0.250
 iter      E             dE          RMSdq      gap      omega  full diag
   1    -50.7594783 -0.507595E+02  0.317E-05    9.24       0.0  T
   2    -50.7594783 -0.667910E-12  0.206E-05    9.24     950.7  T
   3    -50.7594783 -0.476064E-12  0.441E-06    9.24    4448.1  T
speedup  1.07
cpu  time for SCC    0.00 s
wall time for SCC    0.00 s

   *** convergence criteria satisfied after 3 iterations ***

          eigenvalues
 #    :          28         29         30         31         32         33         34         35
 occ. :        2.000      2.000      2.000      2.000      2.000      2.000      2.000      2.000
 eps  :       -13.414    -13.262    -12.470    -12.364    -12.317    -12.173    -12.160    -12.080
 #    :          36         37         38         39         40         41         42         43
 occ. :        2.000      2.000      2.000      2.000      2.000      0.000      0.000      0.000
 eps  :       -11.883    -11.853    -11.810    -11.783    -11.620     -2.378     -0.977     -0.343
 #    :          44         45         46         47         48         49         50         51
 occ. :        0.000      0.000      0.000      0.000      0.000      0.000      0.000      0.000
 eps  :         0.893      1.113      1.571      1.876      3.080      3.791      4.709      5.034


   #   Z            q   n(s)   n(p)   n(d)      C6AA      α(0)
   1  16 S      1.665  1.586  1.794  0.955    89.569    15.929
   2   8 O     -0.740  1.757  4.982  0.000    29.811     7.320
   3   8 O     -0.739  1.776  4.964  0.000    29.800     7.319
   4   8 O     -0.733  1.767  4.966  0.000    29.620     7.297
   5   8 O     -0.589  1.750  4.839  0.000    24.905     6.737
   6   1 H      0.348  0.652  0.000  0.000     0.583     1.194
   7   1 H      0.336  0.664  0.000  0.000     0.624     1.240
   8   8 O     -0.637  1.745  4.892  0.000    26.100     6.895
   9   1 H      0.285  0.715  0.000  0.000     0.766     1.375
  10   8 O     -0.627  1.744  4.883  0.000    25.857     6.863
  11   1 H      0.284  0.716  0.000  0.000     0.770     1.378
  12   8 O     -0.613  1.747  4.866  0.000    25.508     6.816
  13   1 H      0.282  0.718  0.000  0.000     0.779     1.386
  14   8 O     -0.615  1.751  4.864  0.000    25.544     6.821
  15   1 H      0.319  0.681  0.000  0.000     0.667     1.283
  16   1 H      0.313  0.687  0.000  0.000     0.684     1.299
  17   1 H      0.335  0.665  0.000  0.000     0.626     1.243
  18   8 O     -0.634  1.747  4.887  0.000    26.026     6.885
  19   1 H      0.311  0.689  0.000  0.000     0.688     1.303
  20   1 H      0.342  0.658  0.000  0.000     0.609     1.226
  21   1 H      0.318  0.682  0.000  0.000     0.670     1.286
  22   7 N     -0.349  1.271  4.078  0.000    28.966     7.993
  23   1 H      0.298  0.702  0.000  0.000     0.719     1.328
  24   1 H      0.286  0.714  0.000  0.000     0.756     1.362
  25   1 H      0.288  0.712  0.000  0.000     0.751     1.358
  26   1 H      0.269  0.731  0.000  0.000     0.814     1.413

 Mol. C6AA /au·bohr⁶  :       5445.751102
 Mol. C8AA /au·bohr⁸  :     117913.645055
 Mol. α(0) /au        :        106.552054

 
 Wiberg/Mayer (AO) data. WBOs > 0.1 written file <wbo>
 largest (>0.05) Wiberg bond orders for each atom
           total WBO             WBO to atom ...
     1  S   4.864    O    3 1.337    O    4 1.324    O    2 1.265    O    5 0.893
     2  O   1.739    S    1 1.265    O    4 0.110    H   23 0.108    O    3 0.107    O    5 0.063
     3  O   1.728    S    1 1.337    O    4 0.113    O    2 0.107    O    5 0.078    H   21 0.058
     4  O   1.733    S    1 1.324    O    3 0.113    O    2 0.110    H    7 0.082    O    5 0.069
     5  O   1.973    S    1 0.893    H    6 0.861    O    3 0.078    O    4 0.069    O    2 0.063
     6  H   0.878    O    5 0.861
     7  H   0.887    O    8 0.799    O    4 0.082
     8  O   1.845    H    9 0.910    H    7 0.799
     9  H   0.918    O    8 0.910
    10  O   1.869    H   11 0.910    H   20 0.796    H   25 0.062
    11  H   0.919    O   10 0.910
    12  O   1.874    H   13 0.916    H   17 0.819    H   24 0.069
    13  H   0.921    O   12 0.916
    14  O   1.879    H   16 0.879    H   15 0.866    H   17 0.068
    15  H   0.898    O   14 0.866
    16  H   0.902    O   14 0.879
    17  H   0.888    O   12 0.819    O   14 0.068
    18  O   1.876    H   19 0.870    H   21 0.834    H   20 0.085
    19  H   0.903    O   18 0.870
    20  H   0.883    O   10 0.796    O   18 0.085
    21  H   0.899    O   18 0.834    O    3 0.058
    22  N   3.533    H   26 0.889    H   25 0.849    H   24 0.845    H   23 0.793
    23  H   0.911    N   22 0.793    O    2 0.108
    24  H   0.918    N   22 0.845    O   12 0.069
    25  H   0.917    N   22 0.849    O   10 0.062
    26  H   0.928    N   22 0.889
 MOs/occ written to file <molden.input>
 
molecular dipole:
                 x           y           z       tot (Debye)
 q only:        1.966      -0.091       0.558
   full:        1.182      -0.390      -0.061       3.167
molecular quadrupole (traceless):
                xx          xy          yy          xz          yz          zz
 q only:        1.858      -4.830      -0.679      -1.338      -2.936      -1.179
  q+dip:        1.410      -5.889      -1.568       0.236      -3.330       0.158
   full:        1.595      -6.239      -1.858       0.703      -3.721       0.263

SCC energy    :     -50.7594783
rep           :       0.2949481
ES            :       0.2690451
AES           :      -0.0777848
AXC           :      -0.0084153
disp          :      -0.0188051
XB            :       0.0000000
fix           :       0.0000000
total E       :     -50.4642218
atomizationE  :       4.9945260     3134.11
(atE without considering molecular charge,
 total energy contains solvation terms)
H-L gap (eV)  :          9.2419
optimized geometry written to: xtbopt.xyz


------------------------------------------------------------------------
 * finished run on 2019/09/16 at 12:40:48.786     
------------------------------------------------------------------------
 total:
 * wall-time:     0 d,  0 h,  0 min,  4.207 sec
 *  cpu-time:     0 d,  0 h,  0 min,  3.336 sec
 * ratio c/w:     0.793 speedup
 SCF:
 * wall-time:     0 d,  0 h,  0 min,  0.869 sec
 *  cpu-time:     0 d,  0 h,  0 min,  0.145 sec
 * ratio c/w:     0.167 speedup
 ANC optimizer:
 * wall-time:     0 d,  0 h,  0 min,  3.312 sec
 *  cpu-time:     0 d,  0 h,  0 min,  3.170 sec
 * ratio c/w:     0.957 speedup

