      -----------------------------------------------------------      
     |                   =====================                   |     
     |                           x T B                           |     
     |                   =====================                   |     
     |                         S. Grimme                         |     
     |          Mulliken Center for Theoretical Chemistry        |     
     |                    University of Bonn                     |     
     |                 Version 6.0.1 (SAW181210)                 |     
      -----------------------------------------------------------      

   This program is distributed in the hope that it will be useful,
   but WITHOUT ANY WARRANTY; without even the implied warranty of
   MERCHANTABILITY or FITNESS FOR A PARTICULAR PURPOSE.
   
   FOR NON-COMMERCIAL, ACADEMIA USE ONLY.
   
   Cite this work as:
   S. Grimme, C. Bannwarth, P. Shushkov, J. Comput. Theory Chem., 2017,
   13, 1989-2009.
   C. Bannwarth, S. Ehlert and S. Grimme., ChemRxiv, 2018, preprint.
   http://doi.org/10.26434/chemrxiv.7246238.v1
   
   for sTDA-xTB:
   S. Grimme and C. Bannwarth, J. Chem. Phys., 2016, 145, 054103.
   
   in the mass-spec context:
   V. Asgeirsson, C. Bauer and S. Grimme, Chem. Sci., 2017, 8, 4879.
   
   if GBSA is used:
   P. Shushkov, F. März and S. Grimme, unpublished.
   
   for ANC optimizer:
   S. Grimme, unpublished.
   Rational Function algorithm used in ANCopt:
   F. Eckert, P. Pulay, H.-J. Werner, J. Comput. Chem., 1997, 18, 1473.
   
   with help from (in alphabetical order)
   C. Bannwarth, F. Bohle, G. Brandenburg, E. Caldeweyher, M. Checinski,
   S. Dohm, S. Ehlert, S. Ehrlich, F. März, H. Neugebauer, J. Pisarek,
   P. Pracht, P. Shushkov, and S. Spicher.
   
 * started run on 2019/09/16 at 11:45:49.485     
========================================================================
 # omp threads = 1
========================================================================
number of atoms            : 26
number of electrons        : 80
charge                     : 0
spin                       : .0
first test random number   : .7821

########################################################################
# WARNING! Please study the warnings concerning your input carefully
#  - XTBPATH is not set, using XTBHOME instead
#  - the use of '-opt' is discouraged, please use '--opt' next time
#  - the use of '-chrg' is discouraged, please use '--chrg' next time
#  - the use of '-uhf' is discouraged, please use '--uhf' next time
########################################################################

           ------------------------------------------------- 
          |                 G F N 2 - x T B                 |
          | Geometry, Frequencies, Noncovalent interactions |
          |            JCTC 2018 parametrisation            |
           ------------------------------------------------- 
      method parameters     
 k(s)        :  1.8500
 k(p)        :  2.2300
 k(d)        :  2.2300
 k(f)        :  2.0000
 kEN (H0ij)  : -2.0000
 D4 a1       :  0.5200
 D4 a2       :  5.0000
 D4 s6       :  1.0000
 D4 s8       :  2.7000
 D4 s9       :  5.0000
 alphaj      :  2.0000


            Z     q(EN)     CN     RAES       Cart. coordinates
     1  S   6.0    0.68    4.07    3.81     1.46217     0.30957    -3.80508
     2  O   6.0   -0.29    1.17    1.80     4.06256     1.38942    -3.80661
     3  O   6.0   -0.34    1.31    1.80    -0.30088     2.10966    -2.54832
     4  O   6.0   -0.27    1.11    1.80     0.62524    -0.12607    -6.45798
     5  O   6.0   -0.32    1.22    1.80     1.46176    -2.13474    -2.40740
     6  O   6.0   -0.37    1.47    1.80    -5.03271    -0.59461     1.16237
     7  H   1.0    0.17    0.94    1.42    -6.55010    -0.44570     2.23899
     8  O   6.0   -0.39    1.59    1.81     1.69899    -0.44112     3.83861
     9  H   1.0    0.17    0.95    1.42     2.08614    -0.42119     5.66440
    10  O   6.0   -0.23    2.94    2.62    -1.17781    -3.14822     1.56197
    11  H   1.0    0.16    1.15    1.45    -2.84601    -2.31291     1.46613
    12  H   1.0    0.15    1.05    1.44    -0.38591    -3.32612    -0.12067
    13  H   1.0    0.16    1.17    1.46    -0.04246    -2.30454     2.78291
    14  O   6.0   -0.22    2.89    2.52    -0.92933     3.02254     2.32298
    15  H   1.0    0.12    0.96    1.43    -2.70112     2.78756     2.86651
    16  H   1.0    0.16    1.18    1.46     0.19455     1.69564     3.00579
    17  H   1.0    0.15    1.03    1.43    -0.78190     3.17595     0.46658
    18  O   6.0   -0.22    2.90    2.55    -4.98804     0.89117    -3.12922
    19  H   1.0    0.12    0.96    1.43    -5.41052    -0.31857    -4.48859
    20  H   1.0    0.16    1.20    1.47    -5.18490     0.13478    -1.43241
    21  H   1.0    0.15    1.08    1.44    -3.29501     1.64559    -3.36584
    22  N   5.0   -0.14    3.95    2.74     5.60706    -0.31762     0.83698
    23  H   1.0    0.11    1.04    1.43     5.28286     1.12163    -0.43105
    24  H   1.0    0.10    0.99    1.43     5.42599    -2.03090    -0.06652
    25  H   1.0    0.08    0.99    1.43     7.40573    -0.15242     1.55945
    26  H   1.0    0.12    1.09    1.44     4.31368    -0.20878     2.28603

  Z AO/shell   Hii/eV     exponent
  1     Wed Apr 25 08:07:45 CEST 2018   EN: 2.200 GM2: 0.406  GM3: 0.0800  RAES: 1.40
     1s    -10.707211    1.230000
  7     Wed Apr 25 08:07:45 CEST 2018   EN: 3.040 GM2: 0.461  GM3:-0.0640  RAES: 1.90
     2s    -16.686243    2.339881
     2p    -12.523956    2.014332
  8     Wed Apr 25 08:07:45 CEST 2018   EN: 3.440 GM2: 0.452  GM3:-0.0517  RAES: 1.80
     2s    -20.229985    2.439742
     2p    -15.503117    2.137023
 16     Tue Apr 24 11:44:34 CEST 2018   EN: 2.580 GM2: 0.340  GM3:-0.0502  RAES: 3.10
     3s    -20.029654    1.981333
     3p    -11.377694    2.025643
     3d     -0.420282    1.702555
 no old-style atom pair restraining (fixing) potential

molecular fragmentation (1/2 indicates fragments):
11111222222222222222222222
# atoms in fragment 1/2:     5    21
 fragment masses (1/2) :       96.06      109.12
CMA distance (Bohr)    :   5.399
constraining FC (au)   :  0.0500
           ------------------------------------------------- 
          |        Self-Consistent Charge Iterations        |
           ------------------------------------------------- 

 Ncao       : 65
 Nao        : 64
 Nshell     : 38
 Nel        : 80
 T(el)      :   300.0
 intcut     :    25.0
 scfconv/Eh :  0.100E-05
   qconv/e  :  0.100E-03
 intneglect :  0.100E-07
 broydamp   :      0.250
 iter      E             dE          RMSdq      gap      omega  full diag
   1    -50.4722662 -0.504723E+02  0.706E+00   10.33       0.0  T
   2    -50.5175751 -0.453089E-01  0.508E+00    9.57       1.0  T
   3    -50.5565559 -0.389807E-01  0.119E+00    6.60       1.0  T
   4    -50.5610251 -0.446925E-02  0.534E-01    6.75       1.0  T
   5    -50.5614964 -0.471298E-03  0.279E-01    6.54       1.0  T
   6    -50.5618478 -0.351354E-03  0.124E-01    6.56       1.0  T
   7    -50.5619385 -0.907297E-04  0.466E-02    6.64       1.0  T
   8    -50.5619472 -0.874025E-05  0.297E-02    6.65       1.0  T
   9    -50.5619520 -0.480432E-05  0.103E-02    6.64       1.9  T
  10    -50.5619525 -0.506870E-06  0.234E-03    6.64       8.4  T
  11    -50.5619526 -0.262637E-07  0.104E-03    6.64      18.9  T
  12    -50.5619526 -0.258695E-08  0.379E-04    6.64      51.7  T
  13    -50.5619526 -0.447720E-09  0.160E-04    6.64     122.3  T
speedup  0.95
cpu  time for SCC    0.01 s
wall time for SCC    0.01 s

   *** convergence criteria satisfied after 13 iterations ***

          eigenvalues
 #    :          28         29         30         31         32         33         34         35
 occ. :        2.000      2.000      2.000      2.000      2.000      2.000      2.000      2.000
 eps  :       -11.671    -11.366    -11.260    -10.507    -10.299    -10.257     -9.945     -9.676
 #    :          36         37         38         39         40         41         42         43
 occ. :        2.000      2.000      2.000      2.000      2.000      0.000      0.000      0.000
 eps  :        -9.410     -9.174     -9.057     -8.566     -8.445     -1.804     -0.978     -0.225
 #    :          44         45         46         47         48         49         50         51
 occ. :        0.000      0.000      0.000      0.000      0.000      0.000      0.000      0.000
 eps  :         0.865      1.147      2.600      2.971      3.285      3.356      3.478      4.447


   #   Z            q   n(s)   n(p)   n(d)      C6AA      α(0)
   1  16 S      1.432  1.608  1.938  1.023    95.128    16.416
   2   8 O     -0.780  1.783  4.997  0.000    30.995     7.464
   3   8 O     -0.804  1.764  5.039  0.000    31.691     7.548
   4   8 O     -0.763  1.790  4.974  0.000    30.496     7.404
   5   8 O     -0.801  1.771  5.030  0.000    31.614     7.538
   6   8 O     -0.889  1.823  5.066  0.000    34.371     7.862
   7   1 H      0.182  0.818  0.000  0.000     1.217     1.733
   8   8 O     -0.843  1.828  5.016  0.000    32.902     7.692
   9   1 H      0.204  0.796  0.000  0.000     1.098     1.647
  10   8 O     -0.478  1.667  4.811  0.000    22.371     6.388
  11   1 H      0.393  0.607  0.000  0.000     0.494     1.102
  12   1 H      0.391  0.609  0.000  0.000     0.502     1.113
  13   1 H      0.390  0.610  0.000  0.000     0.499     1.107
  14   8 O     -0.427  1.655  4.771  0.000    21.316     6.236
  15   1 H      0.381  0.619  0.000  0.000     0.522     1.135
  16   1 H      0.405  0.595  0.000  0.000     0.470     1.074
  17   1 H      0.408  0.592  0.000  0.000     0.470     1.077
  18   8 O     -0.423  1.655  4.768  0.000    21.242     6.225
  19   1 H      0.363  0.637  0.000  0.000     0.558     1.174
  20   1 H      0.405  0.595  0.000  0.000     0.469     1.072
  21   1 H      0.406  0.594  0.000  0.000     0.474     1.081
  22   7 N     -0.273  1.246  4.027  0.000    27.034     7.722
  23   1 H      0.300  0.700  0.000  0.000     0.713     1.323
  24   1 H      0.282  0.718  0.000  0.000     0.769     1.374
  25   1 H      0.233  0.767  0.000  0.000     0.952     1.529
  26   1 H      0.305  0.695  0.000  0.000     0.700     1.310

 Mol. C6AA /au·bohr⁶  :       5552.910659
 Mol. C8AA /au·bohr⁸  :     120986.057603
 Mol. α(0) /au        :        107.345480

 
 Wiberg/Mayer (AO) data. WBOs > 0.1 written file <wbo>
 largest (>0.05) Wiberg bond orders for each atom
           total WBO             WBO to atom ...
     1  S   5.070    O    4 1.354    O    2 1.288    O    5 1.237    O    3 1.162
     2  O   1.669    S    1 1.288    O    4 0.101    O    5 0.095    O    3 0.085    H   23 0.058
     3  O   1.700    S    1 1.162    H   21 0.108    O    5 0.090    H   17 0.090    O    4 0.089    O    2 0.085
     4  O   1.659    S    1 1.354    O    2 0.101    O    5 0.099    O    3 0.089
     5  O   1.655    S    1 1.237    O    4 0.099    O    2 0.095    O    3 0.090    H   12 0.088
     6  O   1.490    H    7 0.954    H   20 0.217    H   11 0.160    O   18 0.067    O   10 0.052
     7  H   0.967    O    6 0.954
     8  O   1.625    H    9 0.950    H   16 0.201    H   13 0.161    H   26 0.122    O   14 0.064    N   22 0.057    O   10 0.054
     9  H   0.958    O    8 0.950
    10  O   2.268    H   12 0.749    H   13 0.681    H   11 0.678    O    8 0.054    O    6 0.052
    11  H   0.845    O   10 0.678    O    6 0.160
    12  H   0.847    O   10 0.749    O    5 0.088
    13  H   0.848    O   10 0.681    O    8 0.161
    14  O   2.307    H   15 0.833    H   17 0.730    H   16 0.631    O    8 0.064
    15  H   0.855    O   14 0.833
    16  H   0.836    O   14 0.631    O    8 0.201
    17  H   0.833    O   14 0.730    O    3 0.090
    18  O   2.303    H   19 0.858    H   21 0.717    H   20 0.614    O    6 0.067
    19  H   0.868    O   18 0.858
    20  H   0.836    O   18 0.614    O    6 0.217
    21  H   0.835    O   18 0.717    O    3 0.108
    22  N   3.573    H   25 0.940    H   24 0.909    H   23 0.845    H   26 0.781    O    8 0.057
    23  H   0.910    N   22 0.845    O    2 0.058
    24  H   0.920    N   22 0.909
    25  H   0.946    N   22 0.940
    26  H   0.907    N   22 0.781    O    8 0.122
 MOs/occ written to file <molden.input>
 
molecular dipole:
                 x           y           z       tot (Debye)
 q only:       -0.473       0.338       4.526
   full:       -0.514       0.269       4.579      11.731
molecular quadrupole (traceless):
                xx          xy          yy          xz          yz          zz
 q only:       28.633      -7.373       2.151      29.202       5.883     -30.783
  q+dip:       30.563      -6.773      -2.336      28.263       6.244     -28.227
   full:       30.771      -6.935      -2.765      28.155       6.196     -28.005

SCC energy    :     -50.5619526
rep           :       0.2684679
ES            :       0.4318577
AES           :      -0.0770479
AXC           :      -0.0094326
disp          :      -0.0196258
XB            :       0.0000000
fix           :       0.0000000
total E       :     -50.2931484
atomizationE  :       4.8234526     3026.76
(atE without considering molecular charge,
 total energy contains solvation terms)
H-L gap (eV)  :          6.6407
           ------------------------------------------------- 
          |                 ===============                 |
          |                   A N C O P T                   |
          |                 ===============                 |
          |          Approximate Normal Coordinate          |
          |           Rational Function Optimizer           |
           ------------------------------------------------- 
dumping coords to <xtbopt.coord> and <xtbopt.log>
 optlevel               2
 Maxcycle             520
 Maxmicro              25
 Econv         1.000000000000000E-007
 Gconv         2.000000000000000E-004
 Maxdispl       1.00000000000000     
 Hlow          5.000000000000000E-003
 S6             20.0000000000000     
 Nvar               72

generating ANC from model Hessian ...
 Shifting diagonal of input Hessian by   4.503223448030373E-003
 Lowest  eigenvalues of input Hessian
   -0.000000   -0.000000   -0.000000    0.000000    0.000000    0.000000
    0.005000    0.005288    0.005396    0.005801    0.006195    0.006412
    0.007261    0.007607    0.007892    0.008272    0.008710    0.008905
 Highest eigenvalues
    1.579014    1.584312    1.588805    3.079479    3.080034    3.083641
 
cpu  time for ANC gen    0.02 s
wall time for ANC gen    0.02 s
................................................................................
.............................. CYCLE    1 ......................................
................................................................................
   1    -50.5619526 -0.505620E+02  0.607E-05    6.64       0.0  T
   2    -50.5619526 -0.946443E-11  0.428E-05    6.64     458.4  T
   3    -50.5619526 -0.630962E-11  0.191E-05    6.64    1025.5  T
speedup  1.03
cpu  time for SCC    0.00 s
wall time for SCC    0.00 s
speedup  0.96
cpu  time for grad    0.01 s
wall time for grad    0.01 s
 E :    -50.29314835  G :  0.232856    pred/act E change:  0.000D+00  0.455D-07
Maxdispl :   0.2375   ||displ|| :   0.4869   Lambda : -0.607D-01
Largest |displ|/coords:  0.2375 (  24)  0.1381 (  27)  0.1273 (   8)
................................................................................
.............................. CYCLE    2 ......................................
................................................................................
   1    -50.5864683 -0.505865E+02  0.428E-01    6.74       0.0  T
   2    -50.5871224 -0.654099E-03  0.310E-01    6.89       1.0  T
   3    -50.5874126 -0.290132E-03  0.117E-01    7.13       1.0  T
   4    -50.5874386 -0.260072E-04  0.335E-02    7.14       1.0  T
   5    -50.5874414 -0.287225E-05  0.103E-02    7.14       1.9  T
   6    -50.5874416 -0.178687E-06  0.547E-03    7.14       3.6  T
   7    -50.5874417 -0.100138E-06  0.227E-03    7.13       8.6  T
speedup  1.11
cpu  time for SCC    0.01 s
wall time for SCC    0.01 s
speedup  1.04
cpu  time for grad    0.01 s
wall time for grad    0.01 s
 E :    -50.34461298  G :  0.150219    pred/act E change:  0.000D+00 -0.515D-01
Maxdispl :   0.2758   ||displ|| :   0.5738   Lambda : -0.410D-01
Largest |displ|/coords:  0.2758 (  24)  0.1819 (  27)  0.1542 (  16)
................................................................................
.............................. CYCLE    3 ......................................
................................................................................
   1    -50.6033677 -0.506034E+02  0.446E-01    7.30       0.0  T
   2    -50.6043422 -0.974527E-03  0.315E-01    7.45       1.0  T
   3    -50.6047553 -0.413059E-03  0.132E-01    7.67       1.0  T
   4    -50.6047817 -0.263886E-04  0.350E-02    7.72       1.0  T
   5    -50.6047845 -0.278943E-05  0.112E-02    7.71       1.7  T
   6    -50.6047847 -0.258324E-06  0.647E-03    7.71       3.0  T
   7    -50.6047849 -0.153454E-06  0.266E-03    7.71       7.4  T
   8    -50.6047849 -0.294890E-07  0.114E-03    7.71      17.1  T
speedup  1.08
cpu  time for SCC    0.01 s
wall time for SCC    0.01 s
speedup  1.03
cpu  time for grad    0.02 s
wall time for grad    0.02 s
 E :    -50.37927232  G :  0.101914    pred/act E change: -0.375D-01 -0.347D-01
Maxdispl :   0.2210   ||displ|| :   0.5819   Lambda : -0.254D-01
Largest |displ|/coords:  0.2210 (  24)  0.1635 (   5)  0.1542 (  27)
................................................................................
.............................. CYCLE    4 ......................................
................................................................................
   1    -50.6114864 -0.506115E+02  0.421E-01    7.85       0.0  T
   2    -50.6125983 -0.111184E-02  0.291E-01    7.97       1.0  T
   3    -50.6130472 -0.448936E-03  0.135E-01    8.14       1.0  T
   4    -50.6130689 -0.217027E-04  0.357E-02    8.19       1.0  T
   5    -50.6130715 -0.260932E-05  0.110E-02    8.19       1.8  T
   6    -50.6130718 -0.261136E-06  0.628E-03    8.19       3.1  T
   7    -50.6130719 -0.140042E-06  0.249E-03    8.18       7.9  T
   8    -50.6130719 -0.277802E-07  0.108E-03    8.18      18.1  T
speedup  0.97
cpu  time for SCC    0.01 s
wall time for SCC    0.01 s
speedup  0.98
cpu  time for grad    0.01 s
wall time for grad    0.02 s
 E :    -50.39886064  G :  0.072787    pred/act E change: -0.273D-01 -0.196D-01
Maxdispl :   0.2271   ||displ|| :   0.5384   Lambda : -0.120D-01
Largest |displ|/coords:  0.2271 (   5)  0.1856 (  14)  0.1796 (  10)
................................................................................
.............................. CYCLE    5 ......................................
................................................................................
   1    -50.6178593 -0.506179E+02  0.311E-01    8.23       0.0  T
   2    -50.6182904 -0.431021E-03  0.223E-01    8.29       1.0  T
   3    -50.6184596 -0.169192E-03  0.988E-02    8.37       1.0  T
   4    -50.6184704 -0.108487E-04  0.248E-02    8.39       1.0  T
   5    -50.6184721 -0.171530E-05  0.723E-03    8.39       2.7  T
   6    -50.6184722 -0.806182E-07  0.374E-03    8.39       5.2  T
   7    -50.6184722 -0.379092E-07  0.141E-03    8.38      13.9  T
speedup  0.97
cpu  time for SCC    0.01 s
wall time for SCC    0.01 s
speedup  0.97
cpu  time for grad    0.01 s
wall time for grad    0.01 s
 E :    -50.40732885  G :  0.056931    pred/act E change: -0.170D-01 -0.847D-02
Maxdispl :   0.1975   ||displ|| :   0.4401   Lambda : -0.671D-02
Largest |displ|/coords:  0.1975 (  12)  0.1704 (  13)  0.1684 (   6)
................................................................................
.............................. CYCLE    6 ......................................
................................................................................
   1    -50.6131605 -0.506132E+02  0.470E-01    8.38       0.0  T
   2    -50.6137224 -0.561890E-03  0.337E-01    8.39       1.0  T
   3    -50.6139618 -0.239354E-03  0.120E-01    8.40       1.0  T
   4    -50.6139998 -0.380526E-04  0.257E-02    8.41       1.0  T
   5    -50.6140012 -0.136406E-05  0.102E-02    8.40       1.9  T
   6    -50.6140015 -0.282152E-06  0.600E-03    8.40       3.3  T
   7    -50.6140015 -0.562948E-07  0.145E-03    8.40      13.5  T
speedup  0.94
cpu  time for SCC    0.01 s
wall time for SCC    0.01 s
speedup  0.95
cpu  time for grad    0.01 s
wall time for grad    0.01 s
 E :    -50.40673258  G :  0.089487    pred/act E change: -0.773D-02  0.596D-03
Maxdispl :   0.1915   ||displ|| :   0.5094   Lambda : -0.256D-01
Largest |displ|/coords:  0.1915 (  14)  0.1808 (  12)  0.1802 (  13)
................................................................................
.............................. CYCLE    7 ......................................
................................................................................
   1    -50.6421516 -0.506422E+02  0.698E-01    8.56       0.0  T
   2    -50.6426304 -0.478733E-03  0.518E-01    8.57       1.0  T
   3    -50.6429580 -0.327676E-03  0.121E-01    8.61       1.0  T
   4    -50.6430062 -0.481605E-04  0.294E-02    8.59       1.0  T
   5    -50.6430078 -0.163314E-05  0.134E-02    8.59       1.5  T
   6    -50.6430080 -0.114854E-06  0.615E-03    8.59       3.2  T
   7    -50.6430081 -0.112936E-06  0.120E-03    8.59      16.3  T
   8    -50.6430081 -0.367546E-08  0.386E-04    8.59      50.9  T
speedup  0.97
cpu  time for SCC    0.01 s
wall time for SCC    0.01 s
speedup  0.98
cpu  time for grad    0.01 s
wall time for grad    0.02 s
 E :    -50.40805576  G :  0.106265    pred/act E change: -0.401D-02 -0.132D-02
Maxdispl :   0.1315   ||displ|| :   0.3375   Lambda : -0.131D-01
Largest |displ|/coords:  0.1315 (   4)  0.1306 (  10)  0.1049 (   6)
................................................................................
.............................. CYCLE    8 ......................................
................................................................................
   1    -50.6329906 -0.506330E+02  0.419E-01    8.56       0.0  T
   2    -50.6332807 -0.290050E-03  0.304E-01    8.53       1.0  T
   3    -50.6334195 -0.138806E-03  0.869E-02    8.49       1.0  T
   4    -50.6334445 -0.250026E-04  0.166E-02    8.49       1.2  T
   5    -50.6334452 -0.720412E-06  0.682E-03    8.50       2.9  T
   6    -50.6334453 -0.950103E-07  0.366E-03    8.50       5.4  T
   7    -50.6334453 -0.264479E-07  0.818E-04    8.50      24.0  T
speedup  0.98
cpu  time for SCC    0.01 s
wall time for SCC    0.01 s
speedup  0.98
cpu  time for grad    0.01 s
wall time for grad    0.01 s
 E :    -50.41531941  G :  0.042154    pred/act E change: -0.161D-01 -0.726D-02
Maxdispl :   0.1407   ||displ|| :   0.2619   Lambda : -0.405D-02
Largest |displ|/coords:  0.1407 (  20)  0.1004 (  10)  0.0754 (   4)
................................................................................
.............................. CYCLE    9 ......................................
................................................................................
   1    -50.6397566 -0.506398E+02  0.225E-01    8.59       0.0  T
   2    -50.6399463 -0.189670E-03  0.162E-01    8.62       1.0  T
   3    -50.6400274 -0.811468E-04  0.705E-02    8.66       1.0  T
   4    -50.6400381 -0.106408E-04  0.186E-02    8.66       1.1  T
   5    -50.6400388 -0.704575E-06  0.623E-03    8.66       3.2  T
   6    -50.6400388 -0.471366E-07  0.309E-03    8.66       6.3  T
   7    -50.6400389 -0.187136E-07  0.101E-03    8.66      19.4  T
speedup  0.94
cpu  time for SCC    0.01 s
wall time for SCC    0.01 s
speedup  1.03
cpu  time for grad    0.01 s
wall time for grad    0.01 s
 E :    -50.41726279  G :  0.054576    pred/act E change: -0.727D-02 -0.194D-02
Maxdispl :   0.1341   ||displ|| :   0.2863   Lambda : -0.571D-02
Largest |displ|/coords:  0.1341 (  10)  0.0944 (  11)  0.0911 (  19)
................................................................................
.............................. CYCLE   10 ......................................
................................................................................
   1    -50.6454390 -0.506454E+02  0.205E-01    8.63       0.0  T
   2    -50.6455943 -0.155304E-03  0.146E-01    8.61       1.0  T
   3    -50.6456545 -0.602201E-04  0.609E-02    8.56       1.0  T
   4    -50.6456626 -0.809534E-05  0.157E-02    8.55       1.2  T
   5    -50.6456630 -0.467310E-06  0.530E-03    8.56       3.7  T
   6    -50.6456631 -0.482194E-07  0.268E-03    8.56       7.3  T
speedup  1.11
cpu  time for SCC    0.01 s
wall time for SCC    0.01 s
speedup  1.03
cpu  time for grad    0.01 s
wall time for grad    0.01 s
 E :    -50.42017655  G :  0.040166    pred/act E change: -0.217D-02 -0.291D-02
Maxdispl :   0.1107   ||displ|| :   0.2726   Lambda : -0.498D-02
Largest |displ|/coords:  0.1107 (   4)  0.0856 (   3)  0.0788 (  68)
................................................................................
.............................. CYCLE   11 ......................................
................................................................................
   1    -50.6580093 -0.506580E+02  0.223E-01    8.63       0.0  T
   2    -50.6581392 -0.129910E-03  0.168E-01    8.62       1.0  T
   3    -50.6582116 -0.723907E-04  0.673E-02    8.61       1.0  T
   4    -50.6582232 -0.116566E-04  0.196E-02    8.62       1.0  T
   5    -50.6582240 -0.731368E-06  0.690E-03    8.62       2.8  T
   6    -50.6582240 -0.430216E-07  0.341E-03    8.62       5.7  T
   7    -50.6582240 -0.164530E-07  0.753E-04    8.62      26.0  T
speedup  0.97
cpu  time for SCC    0.01 s
wall time for SCC    0.01 s
speedup  0.97
cpu  time for grad    0.01 s
wall time for grad    0.01 s
 E :    -50.42451290  G :  0.042972    pred/act E change: -0.309D-02 -0.434D-02
Maxdispl :   0.2394   ||displ|| :   0.6552   Lambda : -0.141D-01
Largest |displ|/coords:  0.2394 (  68)  0.2253 (  31)  0.2058 (  48)
................................................................................
.............................. CYCLE   12 ......................................
................................................................................
   1    -50.7067741 -0.507068E+02  0.559E-01    8.85       0.0  T
   2    -50.7077420 -0.967933E-03  0.420E-01    8.86       1.0  T
   3    -50.7082864 -0.544428E-03  0.181E-01    8.87       1.0  T
   4    -50.7083633 -0.769012E-04  0.550E-02    8.90       1.0  T
   5    -50.7083695 -0.616537E-05  0.190E-02    8.89       1.0  T
   6    -50.7083697 -0.217118E-06  0.936E-03    8.89       2.1  T
   7    -50.7083699 -0.149560E-06  0.234E-03    8.89       8.4  T
   8    -50.7083699 -0.175444E-07  0.729E-04    8.89      26.9  T
speedup  0.99
cpu  time for SCC    0.01 s
wall time for SCC    0.01 s
speedup  0.98
cpu  time for grad    0.01 s
wall time for grad    0.02 s
 E :    -50.42587585  G :  0.123092    pred/act E change: -0.268D-02 -0.136D-02
Maxdispl :   0.1551   ||displ|| :   0.4379   Lambda : -0.314D-01
Largest |displ|/coords:  0.1551 (   3)  0.1342 (  48)  0.1340 (   4)
................................................................................
.............................. CYCLE   13 ......................................
................................................................................
   1    -50.6622238 -0.506622E+02  0.466E-01    8.75       0.0  T
   2    -50.6629805 -0.756732E-03  0.326E-01    8.74       1.0  T
   3    -50.6633911 -0.410559E-03  0.134E-01    8.73       1.0  T
   4    -50.6634430 -0.519381E-04  0.383E-02    8.75       1.0  T
   5    -50.6634450 -0.204402E-05  0.150E-02    8.74       1.3  T
   6    -50.6634459 -0.872096E-06  0.787E-03    8.74       2.5  T
   7    -50.6634460 -0.501063E-07  0.152E-03    8.74      12.9  T
   8    -50.6634460 -0.481963E-08  0.401E-04    8.74      48.9  T
speedup  0.99
cpu  time for SCC    0.01 s
wall time for SCC    0.01 s
speedup  0.99
cpu  time for grad    0.01 s
wall time for grad    0.02 s
 E :    -50.42714036  G :  0.089911    pred/act E change: -0.101D-01 -0.126D-02
Maxdispl :   0.1505   ||displ|| :   0.4070   Lambda : -0.196D-01
Largest |displ|/coords:  0.1505 (   2)  0.1329 (   4)  0.1305 (   9)
................................................................................
.............................. CYCLE   14 ......................................
................................................................................
   1    -50.6987535 -0.506988E+02  0.435E-01    8.84       0.0  T
   2    -50.6991751 -0.421671E-03  0.316E-01    8.85       1.0  T
   3    -50.6994626 -0.287467E-03  0.107E-01    8.86       1.0  T
   4    -50.6994946 -0.320348E-04  0.266E-02    8.87       1.0  T
   5    -50.6994959 -0.127998E-05  0.123E-02    8.87       1.6  T
   6    -50.6994959 -0.358746E-07  0.553E-03    8.87       3.5  T
   7    -50.6994960 -0.928245E-07  0.985E-04    8.87      19.9  T
speedup  0.95
cpu  time for SCC    0.01 s
wall time for SCC    0.01 s
speedup  0.97
cpu  time for grad    0.01 s
wall time for grad    0.01 s
 E :    -50.43430480  G :  0.073607    pred/act E change: -0.187D-01 -0.716D-02
Maxdispl :   0.1295   ||displ|| :   0.3507   Lambda : -0.883D-02
Largest |displ|/coords:  0.1295 (   4)  0.1268 (   3)  0.1259 (   5)
................................................................................
.............................. CYCLE   15 ......................................
................................................................................
   1    -50.6906810 -0.506907E+02  0.299E-01    8.90       0.0  T
   2    -50.6908633 -0.182293E-03  0.221E-01    8.91       1.0  T
   3    -50.6909750 -0.111711E-03  0.747E-02    8.93       1.0  T
   4    -50.6909933 -0.182281E-04  0.244E-02    8.94       1.0  T
   5    -50.6909945 -0.127420E-05  0.858E-03    8.94       2.3  T
   6    -50.6909946 -0.108077E-06  0.441E-03    8.94       4.5  T
   7    -50.6909947 -0.203193E-07  0.117E-03    8.94      16.8  T
speedup  0.94
cpu  time for SCC    0.01 s
wall time for SCC    0.01 s
speedup  1.03
cpu  time for grad    0.01 s
wall time for grad    0.01 s
 E :    -50.43630347  G :  0.062702    pred/act E change: -0.114D-01 -0.200D-02
Maxdispl :   0.1400   ||displ|| :   0.3327   Lambda : -0.859D-02
Largest |displ|/coords:  0.1400 (   5)  0.1116 (  19)  0.1076 (   6)
................................................................................
.............................. CYCLE   16 ......................................
................................................................................
   1    -50.7075924 -0.507076E+02  0.278E-01    8.94       0.0  T
   2    -50.7076956 -0.103242E-03  0.207E-01    8.94       1.0  T
   3    -50.7077647 -0.690869E-04  0.571E-02    8.93       1.0  T
   4    -50.7077761 -0.113914E-04  0.182E-02    8.94       1.1  T
   5    -50.7077767 -0.606651E-06  0.616E-03    8.94       3.2  T
   6    -50.7077767 -0.284276E-07  0.303E-03    8.94       6.5  T
   7    -50.7077767 -0.164474E-07  0.597E-04    8.94      32.8  T
speedup  0.95
cpu  time for SCC    0.01 s
wall time for SCC    0.01 s
speedup  1.03
cpu  time for grad    0.01 s
wall time for grad    0.01 s
 E :    -50.43854387  G :  0.063239    pred/act E change: -0.496D-02 -0.224D-02
Maxdispl :   0.1169   ||displ|| :   0.2834   Lambda : -0.686D-02
Largest |displ|/coords:  0.1169 (   5)  0.0966 (  15)  0.0753 (  29)
................................................................................
.............................. CYCLE   17 ......................................
................................................................................
   1    -50.7049013 -0.507049E+02  0.246E-01    8.99       0.0  T
   2    -50.7050244 -0.123153E-03  0.185E-01    9.00       1.0  T
   3    -50.7050999 -0.755242E-04  0.608E-02    9.02       1.0  T
   4    -50.7051142 -0.142772E-04  0.201E-02    9.03       1.0  T
   5    -50.7051150 -0.764793E-06  0.743E-03    9.02       2.6  T
   6    -50.7051150 -0.667007E-07  0.340E-03    9.02       5.8  T
   7    -50.7051151 -0.190179E-07  0.101E-03    9.02      19.5  T
speedup  1.11
cpu  time for SCC    0.01 s
wall time for SCC    0.01 s
speedup  1.03
cpu  time for grad    0.01 s
wall time for grad    0.01 s
 E :    -50.44099917  G :  0.045679    pred/act E change: -0.477D-02 -0.246D-02
Maxdispl :   0.0751   ||displ|| :   0.1965   Lambda : -0.312D-02
Largest |displ|/coords:  0.0751 (   7)  0.0674 (   8)  0.0617 (  24)
................................................................................
.............................. CYCLE   18 ......................................
................................................................................
   1    -50.7127427 -0.507127E+02  0.127E-01    9.04       0.0  T
   2    -50.7127726 -0.299366E-04  0.948E-02    9.04       1.0  T
   3    -50.7127905 -0.178460E-04  0.302E-02    9.05       1.0  T
   4    -50.7127934 -0.293056E-05  0.957E-03    9.06       2.0  T
   5    -50.7127936 -0.229542E-06  0.343E-03    9.06       5.7  T
   6    -50.7127936 -0.153421E-07  0.177E-03    9.06      11.1  T
speedup  1.09
cpu  time for SCC    0.01 s
wall time for SCC    0.01 s
speedup  1.03
cpu  time for grad    0.01 s
wall time for grad    0.01 s
 E :    -50.44347989  G :  0.034072    pred/act E change: -0.370D-02 -0.248D-02
Maxdispl :   0.1781   ||displ|| :   0.4347   Lambda : -0.626D-02
Largest |displ|/coords:  0.1781 (  28)  0.1456 (  31)  0.1456 (  24)
................................................................................
.............................. CYCLE   19 ......................................
................................................................................
   1    -50.7278454 -0.507278E+02  0.272E-01    9.10       0.0  T
   2    -50.7280317 -0.186307E-03  0.202E-01    9.11       1.0  T
   3    -50.7281341 -0.102347E-03  0.743E-02    9.12       1.0  T
   4    -50.7281479 -0.138548E-04  0.243E-02    9.14       1.0  T
   5    -50.7281495 -0.155824E-05  0.795E-03    9.14       2.5  T
   6    -50.7281496 -0.105066E-06  0.433E-03    9.14       4.5  T
   7    -50.7281496 -0.229341E-07  0.131E-03    9.14      15.0  T
speedup  0.97
cpu  time for SCC    0.01 s
wall time for SCC    0.01 s
speedup  0.98
cpu  time for grad    0.01 s
wall time for grad    0.01 s
 E :    -50.44746499  G :  0.026528    pred/act E change: -0.162D-02 -0.399D-02
Maxdispl :   0.1683   ||displ|| :   0.3933   Lambda : -0.312D-02
Largest |displ|/coords:  0.1683 (   7)  0.1294 (  24)  0.1014 (  28)
................................................................................
.............................. CYCLE   20 ......................................
................................................................................
   1    -50.7381454 -0.507381E+02  0.221E-01    9.12       0.0  T
   2    -50.7382538 -0.108330E-03  0.164E-01    9.12       1.0  T
   3    -50.7383082 -0.544404E-04  0.565E-02    9.11       1.0  T
   4    -50.7383175 -0.931915E-05  0.169E-02    9.12       1.2  T
   5    -50.7383182 -0.716282E-06  0.602E-03    9.12       3.3  T
   6    -50.7383183 -0.575582E-07  0.318E-03    9.12       6.2  T
   7    -50.7383183 -0.138391E-07  0.922E-04    9.12      21.3  T
speedup  0.97
cpu  time for SCC    0.01 s
wall time for SCC    0.01 s
speedup  0.99
cpu  time for grad    0.01 s
wall time for grad    0.01 s
 E :    -50.44925662  G :  0.024410    pred/act E change: -0.372D-02 -0.179D-02
Maxdispl :   0.1325   ||displ|| :   0.2979   Lambda : -0.209D-02
Largest |displ|/coords:  0.1325 (  28)  0.1052 (   2)  0.0779 (   7)
................................................................................
.............................. CYCLE   21 ......................................
................................................................................
   1    -50.7327214 -0.507327E+02  0.173E-01    9.05       0.0  T
   2    -50.7327669 -0.454776E-04  0.130E-01    9.04       1.0  T
   3    -50.7327881 -0.212732E-04  0.404E-02    9.02       1.0  T
   4    -50.7327928 -0.463849E-05  0.130E-02    9.02       1.5  T
   5    -50.7327931 -0.359526E-06  0.331E-03    9.02       5.9  T
   6    -50.7327932 -0.183133E-07  0.196E-03    9.02      10.0  T
speedup  1.11
cpu  time for SCC    0.01 s
wall time for SCC    0.01 s
speedup  1.04
cpu  time for grad    0.01 s
wall time for grad    0.01 s
 E :    -50.45022858  G :  0.027520    pred/act E change: -0.180D-02 -0.972D-03
Maxdispl :   0.1084   ||displ|| :   0.2487   Lambda : -0.169D-02
Largest |displ|/coords:  0.1084 (  15)  0.0884 (   2)  0.0837 (  12)
................................................................................
.............................. CYCLE   22 ......................................
................................................................................
   1    -50.7394972 -0.507395E+02  0.160E-01    8.99       0.0  T
   2    -50.7395364 -0.392166E-04  0.121E-01    8.97       1.0  T
   3    -50.7395576 -0.211526E-04  0.407E-02    8.92       1.0  T
   4    -50.7395617 -0.413758E-05  0.141E-02    8.92       1.4  T
   5    -50.7395621 -0.381928E-06  0.405E-03    8.92       4.8  T
   6    -50.7395621 -0.252028E-07  0.218E-03    8.92       9.0  T
speedup  0.93
cpu  time for SCC    0.01 s
wall time for SCC    0.01 s
speedup  0.97
cpu  time for grad    0.01 s
wall time for grad    0.01 s
 E :    -50.45093420  G :  0.023015    pred/act E change: -0.114D-02 -0.706D-03
Maxdispl :   0.1204   ||displ|| :   0.2609   Lambda : -0.192D-02
Largest |displ|/coords:  0.1204 (  15)  0.0980 (   2)  0.0842 (  12)
................................................................................
.............................. CYCLE   23 ......................................
................................................................................
   1    -50.7353074 -0.507353E+02  0.190E-01    8.88       0.0  T
   2    -50.7353470 -0.395424E-04  0.143E-01    8.87       1.0  T
   3    -50.7353654 -0.183992E-04  0.426E-02    8.87       1.0  T
   4    -50.7353703 -0.488779E-05  0.145E-02    8.87       1.4  T
   5    -50.7353707 -0.400496E-06  0.408E-03    8.87       4.8  T
   6    -50.7353707 -0.218103E-07  0.244E-03    8.87       8.1  T
speedup  1.11
cpu  time for SCC    0.01 s
wall time for SCC    0.01 s
speedup  1.04
cpu  time for grad    0.01 s
wall time for grad    0.01 s
 E :    -50.45115782  G :  0.033925    pred/act E change: -0.895D-03 -0.224D-03
Maxdispl :   0.0986   ||displ|| :   0.1516   Lambda : -0.167D-02
Largest |displ|/coords:  0.0986 (   7)  0.0545 (  22)  0.0492 (  18)
................................................................................
.............................. CYCLE   24 ......................................
................................................................................
   1    -50.7360510 -0.507361E+02  0.101E-01    8.92       0.0  T
   2    -50.7360612 -0.101518E-04  0.738E-02    8.92       1.0  T
   3    -50.7360683 -0.712961E-05  0.188E-02    8.91       1.0  T
   4    -50.7360692 -0.950747E-06  0.550E-03    8.91       3.6  T
   5    -50.7360693 -0.556989E-07  0.213E-03    8.91       9.2  T
speedup  1.09
cpu  time for SCC    0.00 s
wall time for SCC    0.00 s
speedup  1.03
cpu  time for grad    0.01 s
wall time for grad    0.01 s
 E :    -50.45212473  G :  0.017930    pred/act E change: -0.103D-02 -0.967D-03
Maxdispl :   0.0957   ||displ|| :   0.1874   Lambda : -0.879D-03
Largest |displ|/coords:  0.0957 (  18)  0.0671 (   2)  0.0670 (   7)
................................................................................
.............................. CYCLE   25 ......................................
................................................................................
   1    -50.7403784 -0.507404E+02  0.116E-01    8.98       0.0  T
   2    -50.7403893 -0.109969E-04  0.858E-02    8.97       1.0  T
   3    -50.7403952 -0.580530E-05  0.201E-02    8.94       1.0  T
   4    -50.7403964 -0.128546E-05  0.572E-03    8.95       3.4  T
   5    -50.7403965 -0.656147E-07  0.197E-03    8.95       9.9  T
   6    -50.7403965 -0.424970E-08  0.110E-03    8.95      17.9  T
speedup  1.11
cpu  time for SCC    0.01 s
wall time for SCC    0.01 s
speedup  1.04
cpu  time for grad    0.01 s
wall time for grad    0.01 s
 E :    -50.45255924  G :  0.016627    pred/act E change: -0.854D-03 -0.435D-03
Maxdispl :   0.0908   ||displ|| :   0.2202   Lambda : -0.669D-03
Largest |displ|/coords:  0.0908 (   2)  0.0864 (   7)  0.0844 (  12)

generating ANC from model Hessian ...
 Shifting diagonal of input Hessian by   4.969426864897175E-003
 Lowest  eigenvalues of input Hessian
   -0.000000   -0.000000   -0.000000   -0.000000    0.000000    0.000000
    0.005000    0.005275    0.005670    0.006181    0.006466    0.006956
    0.007819    0.008042    0.008430    0.008813    0.009338    0.009911
 Highest eigenvalues
    1.392270    1.400775    1.417791    2.709764    3.288691    3.720629
 
cpu  time for ANC gen    0.02 s
wall time for ANC gen    0.02 s
................................................................................
.............................. CYCLE   26 ......................................
................................................................................
   1    -50.7419279 -0.507419E+02  0.123E-01    9.00       0.0  T
   2    -50.7419350 -0.709502E-05  0.917E-02    8.98       1.0  T
   3    -50.7419387 -0.364784E-05  0.171E-02    8.96       1.1  T
   4    -50.7419398 -0.110771E-05  0.588E-03    8.96       3.3  T
   5    -50.7419398 -0.499259E-07  0.170E-03    8.96      11.5  T
   6    -50.7419398 -0.418881E-08  0.101E-03    8.96      19.5  T
   7    -50.7419398 -0.176087E-08  0.297E-04    8.96      66.1  T
   8    -50.7419398 -0.222705E-09  0.633E-05    8.96     309.6  T
speedup  0.95
cpu  time for SCC    0.01 s
wall time for SCC    0.01 s
speedup  1.01
cpu  time for grad    0.02 s
wall time for grad    0.02 s
 E :    -50.45304967  G :  0.013626    pred/act E change:  0.000D+00 -0.490D-03
Maxdispl :   0.0910   ||displ|| :   0.2132   Lambda : -0.680D-03
Largest |displ|/coords:  0.0910 (   8)  0.0879 (   6)  0.0861 (   1)
................................................................................
.............................. CYCLE   27 ......................................
................................................................................
   1    -50.7419123 -0.507419E+02  0.133E-01    8.98       0.0  T
   2    -50.7419151 -0.273480E-05  0.100E-01    8.98       1.0  T
   3    -50.7419183 -0.328289E-05  0.844E-03    8.98       2.3  T
   4    -50.7419185 -0.188760E-06  0.372E-03    8.98       5.3  T
   5    -50.7419185 -0.165695E-07  0.125E-03    8.98      15.7  T
   6    -50.7419185 -0.191122E-08  0.643E-04    8.98      30.5  T
speedup  1.11
cpu  time for SCC    0.01 s
wall time for SCC    0.01 s
speedup  1.04
cpu  time for grad    0.01 s
wall time for grad    0.01 s
 E :    -50.45347825  G :  0.008674    pred/act E change:  0.000D+00 -0.429D-03
Maxdispl :   0.1461   ||displ|| :   0.2497   Lambda : -0.403D-03
Largest |displ|/coords:  0.1461 (   1)  0.1150 (   6)  0.1084 (   8)
................................................................................
.............................. CYCLE   28 ......................................
................................................................................
   1    -50.7415591 -0.507416E+02  0.147E-01    9.00       0.0  T
   2    -50.7415618 -0.262122E-05  0.111E-01    9.00       1.0  T
   3    -50.7415648 -0.300924E-05  0.895E-03    9.00       2.2  T
   4    -50.7415650 -0.185875E-06  0.386E-03    9.00       5.1  T
   5    -50.7415650 -0.160813E-07  0.126E-03    9.00      15.6  T
   6    -50.7415650 -0.160111E-08  0.608E-04    9.00      32.2  T
speedup  1.11
cpu  time for SCC    0.01 s
wall time for SCC    0.01 s
speedup  1.04
cpu  time for grad    0.01 s
wall time for grad    0.01 s
 E :    -50.45376409  G :  0.006246    pred/act E change: -0.355D-03 -0.286D-03
Maxdispl :   0.2617   ||displ|| :   0.3709   Lambda : -0.435D-03
Largest |displ|/coords:  0.2617 (   1)  0.1499 (   6)  0.0808 (   9)
................................................................................
.............................. CYCLE   29 ......................................
................................................................................
   1    -50.7407328 -0.507407E+02  0.194E-01    9.02       0.0  T
   2    -50.7407374 -0.456263E-05  0.145E-01    9.02       1.0  T
   3    -50.7407421 -0.470435E-05  0.133E-02    9.03       1.5  T
   4    -50.7407425 -0.400148E-06  0.510E-03    9.03       3.8  T
   5    -50.7407425 -0.302776E-07  0.185E-03    9.03      10.6  T
   6    -50.7407425 -0.337073E-08  0.905E-04    9.03      21.7  T
speedup  1.07
cpu  time for SCC    0.01 s
wall time for SCC    0.01 s
speedup  1.03
cpu  time for grad    0.01 s
wall time for grad    0.01 s
 E :    -50.45402486  G :  0.007361    pred/act E change: -0.214D-03 -0.261D-03
Maxdispl :   0.1945   ||displ|| :   0.2720   Lambda : -0.276D-03
Largest |displ|/coords:  0.1945 (   1)  0.0889 (   6)  0.0851 (  10)
................................................................................
.............................. CYCLE   30 ......................................
................................................................................
   1    -50.7405022 -0.507405E+02  0.148E-01    9.02       0.0  T
   2    -50.7405060 -0.381818E-05  0.111E-01    9.02       1.0  T
   3    -50.7405102 -0.410562E-05  0.120E-02    9.02       1.6  T
   4    -50.7405105 -0.321662E-06  0.420E-03    9.02       4.7  T
   5    -50.7405105 -0.221582E-07  0.156E-03    9.02      12.6  T
   6    -50.7405105 -0.262064E-08  0.766E-04    9.02      25.6  T
speedup  0.91
cpu  time for SCC    0.00 s
wall time for SCC    0.01 s
speedup  0.96
cpu  time for grad    0.01 s
wall time for grad    0.01 s
 E :    -50.45420631  G :  0.006655    pred/act E change: -0.247D-03 -0.181D-03
Maxdispl :   0.1593   ||displ|| :   0.2382   Lambda : -0.217D-03
Largest |displ|/coords:  0.1593 (   1)  0.0796 (   6)  0.0668 (  12)
................................................................................
.............................. CYCLE   31 ......................................
................................................................................
   1    -50.7419291 -0.507419E+02  0.108E-01    9.02       0.0  T
   2    -50.7419311 -0.202461E-05  0.803E-02    9.02       1.0  T
   3    -50.7419331 -0.200717E-05  0.988E-03    9.01       2.0  T
   4    -50.7419333 -0.184337E-06  0.296E-03    9.01       6.6  T
   5    -50.7419333 -0.115263E-07  0.107E-03    9.01      18.3  T
speedup  0.89
cpu  time for SCC    0.00 s
wall time for SCC    0.00 s
speedup  0.95
cpu  time for grad    0.01 s
wall time for grad    0.01 s
 E :    -50.45436628  G :  0.006195    pred/act E change: -0.148D-03 -0.160D-03
Maxdispl :   0.2235   ||displ|| :   0.3395   Lambda : -0.234D-03
Largest |displ|/coords:  0.2235 (   1)  0.1119 (  12)  0.1051 (   6)
................................................................................
.............................. CYCLE   32 ......................................
................................................................................
   1    -50.7420655 -0.507421E+02  0.154E-01    9.01       0.0  T
   2    -50.7420695 -0.394692E-05  0.115E-01    9.00       1.0  T
   3    -50.7420726 -0.315856E-05  0.141E-02    8.98       1.4  T
   4    -50.7420731 -0.462368E-06  0.431E-03    8.99       4.6  T
   5    -50.7420731 -0.224909E-07  0.145E-03    8.99      13.6  T
   6    -50.7420731 -0.288012E-08  0.834E-04    8.99      23.5  T
speedup  0.93
cpu  time for SCC    0.01 s
wall time for SCC    0.01 s
speedup  0.97
cpu  time for grad    0.01 s
wall time for grad    0.01 s
 E :    -50.45451728  G :  0.005106    pred/act E change: -0.114D-03 -0.151D-03
Maxdispl :   0.0836   ||displ|| :   0.1911   Lambda : -0.120D-03
Largest |displ|/coords:  0.0836 (  12)  0.0831 (   1)  0.0802 (   2)
................................................................................
.............................. CYCLE   33 ......................................
................................................................................
   1    -50.7434463 -0.507434E+02  0.900E-02    9.00       0.0  T
   2    -50.7434483 -0.200886E-05  0.673E-02    9.00       1.0  T
   3    -50.7434498 -0.153125E-05  0.958E-03    8.98       2.0  T
   4    -50.7434501 -0.251362E-06  0.325E-03    8.98       6.0  T
   5    -50.7434501 -0.113787E-07  0.860E-04    8.98      22.8  T
   6    -50.7434501 -0.836820E-09  0.525E-04    8.98      37.3  T
speedup  0.94
cpu  time for SCC    0.00 s
wall time for SCC    0.01 s
speedup  1.04
cpu  time for grad    0.01 s
wall time for grad    0.01 s
 E :    -50.45458863  G :  0.004930    pred/act E change: -0.131D-03 -0.713D-04
Maxdispl :   0.0822   ||displ|| :   0.1398   Lambda : -0.642D-04
Largest |displ|/coords:  0.0822 (   1)  0.0707 (   2)  0.0516 (  12)
................................................................................
.............................. CYCLE   34 ......................................
................................................................................
   1    -50.7434266 -0.507434E+02  0.638E-02    9.00       0.0  T
   2    -50.7434275 -0.834606E-06  0.479E-02    9.00       1.0  T
   3    -50.7434282 -0.748511E-06  0.500E-03    8.99       3.9  T
   4    -50.7434283 -0.867006E-07  0.181E-03    8.99      10.8  T
   5    -50.7434283 -0.424244E-08  0.623E-04    8.99      31.5  T
speedup  1.09
cpu  time for SCC    0.00 s
wall time for SCC    0.00 s
speedup  1.03
cpu  time for grad    0.01 s
wall time for grad    0.01 s
 E :    -50.45462855  G :  0.004033    pred/act E change: -0.622D-04 -0.399D-04
Maxdispl :   0.0796   ||displ|| :   0.1555   Lambda : -0.736D-04
Largest |displ|/coords:  0.0796 (  12)  0.0756 (   2)  0.0635 (   1)
................................................................................
.............................. CYCLE   35 ......................................
................................................................................
   1    -50.7433641 -0.507434E+02  0.875E-02    9.03       0.0  T
   2    -50.7433652 -0.104429E-05  0.658E-02    9.02       1.0  T
   3    -50.7433663 -0.109917E-05  0.543E-03    9.02       3.6  T
   4    -50.7433663 -0.876134E-07  0.201E-03    9.02       9.8  T
   5    -50.7433663 -0.519024E-08  0.772E-04    9.02      25.4  T
speedup  1.11
cpu  time for SCC    0.00 s
wall time for SCC    0.00 s
speedup  1.03
cpu  time for grad    0.01 s
wall time for grad    0.01 s
 E :    -50.45463696  G :  0.004609    pred/act E change: -0.327D-04 -0.841D-05
Maxdispl :   0.0227   ||displ|| :   0.0473   Lambda : -0.641D-04
Largest |displ|/coords:  0.0227 (  12)  0.0205 (   6)  0.0202 (   4)
................................................................................
.............................. CYCLE   36 ......................................
................................................................................
   1    -50.7441630 -0.507442E+02  0.401E-02    9.02       0.0  T
   2    -50.7441633 -0.288444E-06  0.300E-02    9.02       1.0  T
   3    -50.7441636 -0.286285E-06  0.403E-03    9.03       4.9  T
   4    -50.7441636 -0.244733E-07  0.127E-03    9.03      15.5  T
   5    -50.7441636 -0.193518E-08  0.366E-04    9.03      53.5  T
speedup  0.87
cpu  time for SCC    0.00 s
wall time for SCC    0.00 s
speedup  0.95
cpu  time for grad    0.01 s
wall time for grad    0.01 s
 E :    -50.45467052  G :  0.001996    pred/act E change: -0.377D-04 -0.336D-04
Maxdispl :   0.0431   ||displ|| :   0.0647   Lambda : -0.193D-04
Largest |displ|/coords:  0.0431 (   1)  0.0272 (   6)  0.0165 (  12)
................................................................................
.............................. CYCLE   37 ......................................
................................................................................
   1    -50.7432072 -0.507432E+02  0.397E-02    9.01       0.0  T
   2    -50.7432076 -0.328516E-06  0.299E-02    9.01       1.0  T
   3    -50.7432079 -0.339628E-06  0.335E-03    9.01       5.9  T
   4    -50.7432079 -0.287492E-07  0.883E-04    9.01      22.2  T
   5    -50.7432079 -0.787892E-09  0.414E-04    9.01      47.4  T
speedup  1.09
cpu  time for SCC    0.00 s
wall time for SCC    0.00 s
speedup  0.98
cpu  time for grad    0.01 s
wall time for grad    0.01 s
 E :    -50.45467591  G :  0.003711    pred/act E change: -0.321D-04 -0.540D-05
Maxdispl :   0.0123   ||displ|| :   0.0323   Lambda : -0.220D-04
Largest |displ|/coords:  0.0123 (   5)  0.0109 (  15)  0.0102 (   8)
................................................................................
.............................. CYCLE   38 ......................................
................................................................................
   1    -50.7439702 -0.507440E+02  0.219E-02    9.01       0.0  T
   2    -50.7439703 -0.175756E-06  0.162E-02    9.02       1.2  T
   3    -50.7439705 -0.139990E-06  0.305E-03    9.02       6.4  T
   4    -50.7439705 -0.151488E-07  0.843E-04    9.02      23.3  T
   5    -50.7439705 -0.100553E-08  0.224E-04    9.02      87.6  T
speedup  0.89
cpu  time for SCC    0.00 s
wall time for SCC    0.00 s
speedup  0.99
cpu  time for grad    0.01 s
wall time for grad    0.01 s
 E :    -50.45468901  G :  0.001721    pred/act E change: -0.971D-05 -0.131D-04
Maxdispl :   0.0338   ||displ|| :   0.0569   Lambda : -0.110D-04
Largest |displ|/coords:  0.0338 (   1)  0.0249 (   2)  0.0193 (  12)
................................................................................
.............................. CYCLE   39 ......................................
................................................................................
   1    -50.7439851 -0.507440E+02  0.300E-02    9.02       0.0  T
   2    -50.7439853 -0.189707E-06  0.225E-02    9.02       1.0  T
   3    -50.7439855 -0.183192E-06  0.274E-03    9.02       7.2  T
   4    -50.7439855 -0.182348E-07  0.881E-04    9.02      22.3  T
   5    -50.7439855 -0.105910E-08  0.279E-04    9.02      70.3  T
speedup  0.89
cpu  time for SCC    0.00 s
wall time for SCC    0.00 s
speedup  1.00
cpu  time for grad    0.01 s
wall time for grad    0.01 s
 E :    -50.45469476  G :  0.001213    pred/act E change: -0.110D-04 -0.576D-05
Maxdispl :   0.0247   ||displ|| :   0.0532   Lambda : -0.939D-05
Largest |displ|/coords:  0.0247 (  12)  0.0202 (   2)  0.0163 (  16)
................................................................................
.............................. CYCLE   40 ......................................
................................................................................
   1    -50.7442982 -0.507443E+02  0.326E-02    9.02       0.0  T
   2    -50.7442984 -0.175892E-06  0.243E-02    9.02       1.0  T
   3    -50.7442985 -0.158472E-06  0.320E-03    9.02       6.1  T
   4    -50.7442986 -0.182630E-07  0.101E-03    9.02      19.5  T
   5    -50.7442986 -0.116977E-08  0.259E-04    9.02      75.6  T
   6    -50.7442986 -0.671392E-10  0.156E-04    9.02     125.9  T
speedup  0.93
cpu  time for SCC    0.00 s
wall time for SCC    0.01 s
speedup  1.00
cpu  time for grad    0.01 s
wall time for grad    0.01 s
 E :    -50.45469924  G :  0.001439    pred/act E change: -0.550D-05 -0.448D-05
Maxdispl :   0.0135   ||displ|| :   0.0274   Lambda : -0.503D-05
Largest |displ|/coords:  0.0135 (   1)  0.0102 (   5)  0.0081 (   3)
................................................................................
.............................. CYCLE   41 ......................................
................................................................................
   1    -50.7439596 -0.507440E+02  0.177E-02    9.01       0.0  T
   2    -50.7439597 -0.537322E-07  0.133E-02    9.01       1.5  T
   3    -50.7439598 -0.607100E-07  0.147E-03    9.01      13.3  T
   4    -50.7439598 -0.300994E-08  0.452E-04    9.01      43.4  T
   5    -50.7439598 -0.245819E-09  0.138E-04    9.01     142.2  T
speedup  1.09
cpu  time for SCC    0.00 s
wall time for SCC    0.00 s
speedup  0.99
cpu  time for grad    0.01 s
wall time for grad    0.01 s
 E :    -50.45470323  G :  0.001152    pred/act E change: -0.471D-05 -0.399D-05
Maxdispl :   0.0234   ||displ|| :   0.0550   Lambda : -0.101D-04
Largest |displ|/coords:  0.0234 (   3)  0.0198 (   5)  0.0186 (  13)
................................................................................
.............................. CYCLE   42 ......................................
................................................................................
   1    -50.7436686 -0.507437E+02  0.354E-02    9.00       0.0  T
   2    -50.7436688 -0.254781E-06  0.264E-02    9.00       1.0  T
   3    -50.7436691 -0.274361E-06  0.395E-03    9.00       5.0  T
   4    -50.7436691 -0.184872E-07  0.116E-03    9.00      17.0  T
   5    -50.7436691 -0.166833E-08  0.356E-04    9.00      55.2  T
   6    -50.7436691 -0.116877E-09  0.203E-04    9.00      96.6  T
speedup  1.13
cpu  time for SCC    0.01 s
wall time for SCC    0.01 s
speedup  1.01
cpu  time for grad    0.01 s
wall time for grad    0.01 s
 E :    -50.45470987  G :  0.001275    pred/act E change: -0.252D-05 -0.664D-05
Maxdispl :   0.0201   ||displ|| :   0.0421   Lambda : -0.524D-05
Largest |displ|/coords:  0.0201 (   3)  0.0164 (  13)  0.0159 (  16)
................................................................................
.............................. CYCLE   43 ......................................
................................................................................
   1    -50.7436273 -0.507436E+02  0.267E-02    9.00       0.0  T
   2    -50.7436274 -0.145880E-06  0.199E-02    9.00       1.0  T
   3    -50.7436276 -0.156574E-06  0.301E-03    9.01       6.5  T
   4    -50.7436276 -0.105743E-07  0.890E-04    9.01      22.0  T
   5    -50.7436276 -0.102597E-08  0.265E-04    9.01      74.1  T
speedup  0.89
cpu  time for SCC    0.00 s
wall time for SCC    0.00 s
speedup  0.99
cpu  time for grad    0.01 s
wall time for grad    0.01 s
 E :    -50.45471387  G :  0.001267    pred/act E change: -0.509D-05 -0.401D-05
Maxdispl :   0.0374   ||displ|| :   0.0690   Lambda : -0.801D-05
Largest |displ|/coords:  0.0374 (   3)  0.0282 (  13)  0.0237 (  16)
................................................................................
.............................. CYCLE   44 ......................................
................................................................................
   1    -50.7437816 -0.507438E+02  0.436E-02    9.01       0.0  T
   2    -50.7437819 -0.354519E-06  0.325E-02    9.01       1.0  T
   3    -50.7437823 -0.410003E-06  0.453E-03    9.01       4.3  T
   4    -50.7437823 -0.218222E-07  0.135E-03    9.01      14.5  T
   5    -50.7437823 -0.253445E-08  0.401E-04    9.01      49.0  T
   6    -50.7437823 -0.142443E-09  0.250E-04    9.01      78.5  T
speedup  0.93
cpu  time for SCC    0.00 s
wall time for SCC    0.01 s
speedup  1.00
cpu  time for grad    0.01 s
wall time for grad    0.01 s
 E :    -50.45471947  G :  0.001176    pred/act E change: -0.263D-05 -0.559D-05
Maxdispl :   0.0361   ||displ|| :   0.0637   Lambda : -0.677D-05
Largest |displ|/coords:  0.0361 (   3)  0.0256 (  13)  0.0225 (  16)
................................................................................
.............................. CYCLE   45 ......................................
................................................................................
   1    -50.7439458 -0.507439E+02  0.396E-02    9.02       0.0  T
   2    -50.7439460 -0.264336E-06  0.296E-02    9.02       1.0  T
   3    -50.7439463 -0.308566E-06  0.380E-03    9.02       5.2  T
   4    -50.7439464 -0.145584E-07  0.109E-03    9.02      18.0  T
   5    -50.7439464 -0.186395E-08  0.310E-04    9.02      63.2  T
   6    -50.7439464 -0.867502E-10  0.206E-04    9.02      95.3  T
speedup  0.93
cpu  time for SCC    0.00 s
wall time for SCC    0.01 s
speedup  0.99
cpu  time for grad    0.01 s
wall time for grad    0.01 s
 E :    -50.45472421  G :  0.001010    pred/act E change: -0.403D-05 -0.474D-05
Maxdispl :   0.0415   ||displ|| :   0.0696   Lambda : -0.620D-05
Largest |displ|/coords:  0.0415 (   3)  0.0278 (  13)  0.0186 (   9)
................................................................................
.............................. CYCLE   46 ......................................
................................................................................
   1    -50.7441362 -0.507441E+02  0.412E-02    9.03       0.0  T
   2    -50.7441365 -0.271494E-06  0.310E-02    9.03       1.0  T
   3    -50.7441368 -0.335726E-06  0.347E-03    9.03       5.6  T
   4    -50.7441369 -0.128557E-07  0.108E-03    9.03      18.1  T
   5    -50.7441369 -0.176233E-08  0.301E-04    9.03      65.2  T
   6    -50.7441369 -0.880789E-10  0.205E-04    9.03      95.5  T
speedup  0.93
cpu  time for SCC    0.00 s
wall time for SCC    0.01 s
speedup  0.99
cpu  time for grad    0.01 s
wall time for grad    0.01 s
 E :    -50.45472862  G :  0.000967    pred/act E change: -0.340D-05 -0.441D-05
Maxdispl :   0.0427   ||displ|| :   0.0677   Lambda : -0.529D-05
Largest |displ|/coords:  0.0427 (   3)  0.0251 (  13)  0.0172 (  14)
................................................................................
.............................. CYCLE   47 ......................................
................................................................................
   1    -50.7442430 -0.507442E+02  0.385E-02    9.04       0.0  T
   2    -50.7442433 -0.244388E-06  0.290E-02    9.03       1.0  T
   3    -50.7442436 -0.288106E-06  0.313E-03    9.03       6.3  T
   4    -50.7442436 -0.150098E-07  0.114E-03    9.03      17.2  T
   5    -50.7442436 -0.151696E-08  0.272E-04    9.03      72.1  T
   6    -50.7442436 -0.789839E-10  0.185E-04    9.03     105.9  T
speedup  0.93
cpu  time for SCC    0.00 s
wall time for SCC    0.01 s
speedup  0.99
cpu  time for grad    0.01 s
wall time for grad    0.01 s
 E :    -50.45473250  G :  0.001007    pred/act E change: -0.312D-05 -0.388D-05
Maxdispl :   0.0477   ||displ|| :   0.0696   Lambda : -0.469D-05
Largest |displ|/coords:  0.0477 (   3)  0.0257 (  13)  0.0168 (  14)
................................................................................
.............................. CYCLE   48 ......................................
................................................................................
   1    -50.7442895 -0.507443E+02  0.367E-02    9.04       0.0  T
   2    -50.7442898 -0.263962E-06  0.276E-02    9.04       1.0  T
   3    -50.7442900 -0.281270E-06  0.331E-03    9.03       5.9  T
   4    -50.7442901 -0.226987E-07  0.118E-03    9.04      16.6  T
   5    -50.7442901 -0.175901E-08  0.292E-04    9.04      67.3  T
   6    -50.7442901 -0.106851E-09  0.193E-04    9.04     101.6  T
speedup  0.93
cpu  time for SCC    0.00 s
wall time for SCC    0.01 s
speedup  1.00
cpu  time for grad    0.01 s
wall time for grad    0.01 s
 E :    -50.45473586  G :  0.000921    pred/act E change: -0.266D-05 -0.336D-05
Maxdispl :   0.0488   ||displ|| :   0.0663   Lambda : -0.357D-05
Largest |displ|/coords:  0.0488 (   3)  0.0214 (  13)  0.0155 (   2)
................................................................................
.............................. CYCLE   49 ......................................
................................................................................
   1    -50.7442691 -0.507443E+02  0.328E-02    9.03       0.0  T
   2    -50.7442694 -0.234664E-06  0.247E-02    9.03       1.0  T
   3    -50.7442696 -0.221603E-06  0.317E-03    9.03       6.2  T
   4    -50.7442696 -0.257253E-07  0.107E-03    9.03      18.4  T
   5    -50.7442696 -0.155634E-08  0.287E-04    9.03      68.3  T
   6    -50.7442696 -0.106262E-09  0.179E-04    9.03     109.6  T
speedup  0.93
cpu  time for SCC    0.00 s
wall time for SCC    0.01 s
speedup  0.99
cpu  time for grad    0.01 s
wall time for grad    0.01 s
 E :    -50.45473841  G :  0.000738    pred/act E change: -0.235D-05 -0.255D-05
Maxdispl :   0.0428   ||displ|| :   0.0629   Lambda : -0.363D-05
Largest |displ|/coords:  0.0428 (   3)  0.0199 (   2)  0.0197 (   1)
................................................................................
.............................. CYCLE   50 ......................................
................................................................................
   1    -50.7444695 -0.507445E+02  0.251E-02    9.03       0.0  T
   2    -50.7444697 -0.171318E-06  0.186E-02    9.03       1.1  T
   3    -50.7444698 -0.137316E-06  0.290E-03    9.03       6.8  T
   4    -50.7444698 -0.206429E-07  0.101E-03    9.03      19.4  T
   5    -50.7444698 -0.151648E-08  0.287E-04    9.03      68.4  T
   6    -50.7444698 -0.128949E-09  0.167E-04    9.03     117.7  T
speedup  0.93
cpu  time for SCC    0.00 s
wall time for SCC    0.01 s
speedup  0.99
cpu  time for grad    0.01 s
wall time for grad    0.01 s
 E :    -50.45474038  G :  0.001283    pred/act E change: -0.179D-05 -0.197D-05
Maxdispl :   0.0622   ||displ|| :   0.0755   Lambda : -0.389D-05
Largest |displ|/coords:  0.0622 (   3)  0.0173 (  13)  0.0154 (  10)
................................................................................
.............................. CYCLE   51 ......................................
................................................................................
   1    -50.7442254 -0.507442E+02  0.350E-02    9.03       0.0  T
   2    -50.7442257 -0.270028E-06  0.263E-02    9.02       1.0  T
   3    -50.7442259 -0.230168E-06  0.330E-03    9.02       5.9  T
   4    -50.7442260 -0.334205E-07  0.111E-03    9.02      17.7  T
   5    -50.7442260 -0.190282E-08  0.325E-04    9.02      60.3  T
   6    -50.7442260 -0.129305E-09  0.190E-04    9.02     103.4  T
speedup  0.91
cpu  time for SCC    0.01 s
wall time for SCC    0.01 s
speedup  0.99
cpu  time for grad    0.01 s
wall time for grad    0.01 s
 E :    -50.45474247  G :  0.000865    pred/act E change: -0.182D-05 -0.209D-05
Maxdispl :   0.0226   ||displ|| :   0.0363   Lambda : -0.323D-05
Largest |displ|/coords:  0.0226 (   3)  0.0116 (   9)  0.0108 (   8)
................................................................................
.............................. CYCLE   52 ......................................
................................................................................
   1    -50.7443439 -0.507443E+02  0.190E-02    9.02       0.0  T
   2    -50.7443439 -0.545069E-07  0.142E-02    9.02       1.4  T
   3    -50.7443440 -0.551629E-07  0.120E-03    9.02      16.3  T
   4    -50.7443440 -0.374392E-08  0.555E-04    9.02      35.3  T
   5    -50.7443440 -0.306549E-09  0.146E-04    9.02     134.8  T
speedup  1.09
cpu  time for SCC    0.00 s
wall time for SCC    0.00 s
speedup  0.98
cpu  time for grad    0.01 s
wall time for grad    0.01 s
 E :    -50.45474520  G :  0.000888    pred/act E change: -0.196D-05 -0.273D-05
Maxdispl :   0.1061   ||displ|| :   0.1297   Lambda : -0.882D-05
Largest |displ|/coords:  0.1061 (   3)  0.0344 (   8)  0.0288 (   7)

generating ANC from model Hessian ...
 Shifting diagonal of input Hessian by   5.047152468218906E-003
 Lowest  eigenvalues of input Hessian
    0.005000   -0.000000   -0.000000   -0.000000    0.000000    0.000000
    0.000000    0.005287    0.005580    0.006135    0.006423    0.007299
    0.007508    0.007817    0.008133    0.008639    0.009249    0.009732
 Highest eigenvalues
    1.390115    1.394962    1.412221    2.721830    3.244266    3.765137
 
cpu  time for ANC gen    0.02 s
wall time for ANC gen    0.02 s
................................................................................
.............................. CYCLE   53 ......................................
................................................................................
   1    -50.7442587 -0.507443E+02  0.574E-02    9.02       0.0  T
   2    -50.7442592 -0.478637E-06  0.427E-02    9.02       1.0  T
   3    -50.7442597 -0.473693E-06  0.384E-03    9.02       5.1  T
   4    -50.7442597 -0.360756E-07  0.175E-03    9.02      11.2  T
   5    -50.7442597 -0.322518E-08  0.486E-04    9.02      40.3  T
   6    -50.7442597 -0.338865E-09  0.279E-04    9.02      70.2  T
speedup  1.09
cpu  time for SCC    0.01 s
wall time for SCC    0.01 s
speedup  0.99
cpu  time for grad    0.01 s
wall time for grad    0.01 s
 E :    -50.45475085  G :  0.001292    pred/act E change:  0.000D+00 -0.564D-05
Maxdispl :   0.0084   ||displ|| :   0.0169   Lambda : -0.473D-05
Largest |displ|/coords:  0.0084 (   1)  0.0061 (   3)  0.0053 (  11)
................................................................................
.............................. CYCLE   54 ......................................
................................................................................
   1    -50.7443961 -0.507444E+02  0.123E-02    9.02       0.0  T
   2    -50.7443962 -0.220292E-07  0.918E-03    9.02       2.1  T
   3    -50.7443962 -0.134254E-07  0.934E-04    9.02      21.0  T
   4    -50.7443962 -0.348677E-08  0.289E-04    9.02      67.9  T
speedup  1.05
cpu  time for SCC    0.00 s
wall time for SCC    0.00 s
speedup  1.05
cpu  time for grad    0.01 s
wall time for grad    0.01 s
 E :    -50.45475407  G :  0.000678    pred/act E change:  0.000D+00 -0.322D-05
Maxdispl :   0.0152   ||displ|| :   0.0268   Lambda : -0.448D-05
Largest |displ|/coords:  0.0152 (  15)  0.0091 (   3)  0.0088 (   1)
................................................................................
.............................. CYCLE   55 ......................................
................................................................................
   1    -50.7445256 -0.507445E+02  0.225E-02    9.03       0.0  T
   2    -50.7445257 -0.888993E-07  0.171E-02    9.03       1.1  T
   3    -50.7445258 -0.105079E-06  0.141E-03    9.03      13.9  T
   4    -50.7445258 -0.597239E-08  0.628E-04    9.03      31.2  T
   5    -50.7445258 -0.483112E-09  0.177E-04    9.03     110.9  T
speedup  1.11
cpu  time for SCC    0.00 s
wall time for SCC    0.00 s
speedup  1.07
cpu  time for grad    0.01 s
wall time for grad    0.01 s
 E :    -50.45475643  G :  0.000673    pred/act E change: -0.237D-05 -0.236D-05
Maxdispl :   0.0098   ||displ|| :   0.0226   Lambda : -0.214D-05
Largest |displ|/coords:  0.0098 (  15)  0.0096 (   3)  0.0090 (   1)
................................................................................
.............................. CYCLE   56 ......................................
................................................................................
   1    -50.7445049 -0.507445E+02  0.154E-02    9.03       0.0  T
   2    -50.7445049 -0.293507E-07  0.116E-02    9.03       1.7  T
   3    -50.7445050 -0.339944E-07  0.838E-04    9.03      23.4  T
   4    -50.7445050 -0.224195E-08  0.392E-04    9.03      50.0  T
speedup  1.08
cpu  time for SCC    0.00 s
wall time for SCC    0.00 s
speedup  0.97
cpu  time for grad    0.01 s
wall time for grad    0.01 s
 E :    -50.45475791  G :  0.000651    pred/act E change: -0.224D-05 -0.148D-05
Maxdispl :   0.0150   ||displ|| :   0.0334   Lambda : -0.239D-05
Largest |displ|/coords:  0.0150 (   2)  0.0140 (  15)  0.0127 (   3)
................................................................................
.............................. CYCLE   57 ......................................
................................................................................
   1    -50.7444171 -0.507444E+02  0.204E-02    9.03       0.0  T
   2    -50.7444171 -0.569341E-07  0.154E-02    9.03       1.3  T
   3    -50.7444172 -0.709380E-07  0.116E-03    9.03      16.8  T
   4    -50.7444172 -0.343778E-08  0.392E-04    9.03      50.0  T
   5    -50.7444172 -0.201730E-09  0.167E-04    9.03     117.5  T
speedup  0.87
cpu  time for SCC    0.00 s
wall time for SCC    0.00 s
speedup  0.96
cpu  time for grad    0.01 s
wall time for grad    0.01 s
 E :    -50.45475967  G :  0.000533    pred/act E change: -0.107D-05 -0.177D-05
Maxdispl :   0.0224   ||displ|| :   0.0449   Lambda : -0.232D-05
Largest |displ|/coords:  0.0224 (   2)  0.0192 (   3)  0.0180 (  15)
................................................................................
.............................. CYCLE   58 ......................................
................................................................................
   1    -50.7443377 -0.507443E+02  0.256E-02    9.03       0.0  T
   2    -50.7443378 -0.849148E-07  0.193E-02    9.03       1.0  T
   3    -50.7443379 -0.111459E-06  0.142E-03    9.03      13.8  T
   4    -50.7443379 -0.411526E-08  0.566E-04    9.03      34.6  T
   5    -50.7443379 -0.385121E-09  0.207E-04    9.03      94.9  T
speedup  0.87
cpu  time for SCC    0.00 s
wall time for SCC    0.00 s
speedup  0.97
cpu  time for grad    0.01 s
wall time for grad    0.01 s
 E :    -50.45476119  G :  0.000576    pred/act E change: -0.120D-05 -0.151D-05
Maxdispl :   0.0162   ||displ|| :   0.0302   Lambda : -0.130D-05
Largest |displ|/coords:  0.0162 (   2)  0.0145 (   3)  0.0099 (  15)
................................................................................
.............................. CYCLE   59 ......................................
................................................................................
   1    -50.7443454 -0.507443E+02  0.162E-02    9.03       0.0  T
   2    -50.7443454 -0.371451E-07  0.122E-02    9.02       1.6  T
   3    -50.7443454 -0.449812E-07  0.980E-04    9.02      20.0  T
   4    -50.7443454 -0.251369E-08  0.457E-04    9.02      42.9  T
speedup  1.08
cpu  time for SCC    0.00 s
wall time for SCC    0.00 s
speedup  0.98
cpu  time for grad    0.01 s
wall time for grad    0.01 s
 E :    -50.45476211  G :  0.000517    pred/act E change: -0.116D-05 -0.922D-06
Maxdispl :   0.0214   ||displ|| :   0.0345   Lambda : -0.148D-05
Largest |displ|/coords:  0.0214 (   2)  0.0177 (   3)  0.0086 (   7)
................................................................................
.............................. CYCLE   60 ......................................
................................................................................
   1    -50.7444068 -0.507444E+02  0.163E-02    9.02       0.0  T
   2    -50.7444068 -0.413932E-07  0.121E-02    9.02       1.6  T
   3    -50.7444068 -0.330615E-07  0.114E-03    9.02      17.2  T
   4    -50.7444068 -0.556332E-08  0.503E-04    9.02      39.0  T
   5    -50.7444068 -0.265530E-09  0.145E-04    9.02     135.1  T
speedup  1.11
cpu  time for SCC    0.00 s
wall time for SCC    0.00 s
speedup  0.99
cpu  time for grad    0.01 s
wall time for grad    0.01 s
 E :    -50.45476309  G :  0.000418    pred/act E change: -0.651D-06 -0.981D-06
Maxdispl :   0.0206   ||displ|| :   0.0334   Lambda : -0.116D-05
Largest |displ|/coords:  0.0206 (   3)  0.0193 (   2)  0.0094 (   7)
................................................................................
.............................. CYCLE   61 ......................................
................................................................................
   1    -50.7444508 -0.507445E+02  0.151E-02    9.02       0.0  T
   2    -50.7444508 -0.361674E-07  0.113E-02    9.02       1.7  T
   3    -50.7444509 -0.305508E-07  0.106E-03    9.02      18.6  T
   4    -50.7444509 -0.438100E-08  0.457E-04    9.02      43.0  T
   5    -50.7444509 -0.211813E-09  0.134E-04    9.02     146.0  T
speedup  1.11
cpu  time for SCC    0.00 s
wall time for SCC    0.00 s
speedup  1.00
cpu  time for grad    0.01 s
wall time for grad    0.01 s
 E :    -50.45476394  G :  0.000401    pred/act E change: -0.742D-06 -0.851D-06
Maxdispl :   0.0312   ||displ|| :   0.0493   Lambda : -0.149D-05
Largest |displ|/coords:  0.0312 (   3)  0.0294 (   2)  0.0131 (   6)
................................................................................
.............................. CYCLE   62 ......................................
................................................................................
   1    -50.7444793 -0.507445E+02  0.205E-02    9.01       0.0  T
   2    -50.7444793 -0.595206E-07  0.152E-02    9.01       1.3  T
   3    -50.7444794 -0.521336E-07  0.138E-03    9.01      14.2  T
   4    -50.7444794 -0.621695E-08  0.571E-04    9.01      34.3  T
   5    -50.7444794 -0.347043E-09  0.174E-04    9.01     112.5  T
speedup  1.09
cpu  time for SCC    0.00 s
wall time for SCC    0.00 s
speedup  0.98
cpu  time for grad    0.01 s
wall time for grad    0.01 s
 E :    -50.45476514  G :  0.000446    pred/act E change: -0.580D-06 -0.120D-05
Maxdispl :   0.0620   ||displ|| :   0.0945   Lambda : -0.279D-05
Largest |displ|/coords:  0.0620 (   3)  0.0564 (   2)  0.0256 (   6)
................................................................................
.............................. CYCLE   63 ......................................
................................................................................
   1    -50.7444959 -0.507445E+02  0.371E-02    9.01       0.0  T
   2    -50.7444961 -0.192806E-06  0.277E-02    9.01       1.0  T
   3    -50.7444963 -0.180284E-06  0.254E-03    9.01       7.7  T
   4    -50.7444963 -0.173101E-07  0.103E-03    9.01      19.1  T
   5    -50.7444963 -0.114705E-08  0.317E-04    9.01      61.9  T
   6    -50.7444963 -0.130044E-09  0.158E-04    9.01     124.5  T
speedup  1.11
cpu  time for SCC    0.01 s
wall time for SCC    0.01 s
speedup  1.00
cpu  time for grad    0.01 s
wall time for grad    0.01 s
 E :    -50.45476716  G :  0.000557    pred/act E change: -0.747D-06 -0.202D-05
Maxdispl :   0.0584   ||displ|| :   0.0877   Lambda : -0.268D-05
Largest |displ|/coords:  0.0584 (   3)  0.0526 (   2)  0.0223 (   6)
................................................................................
.............................. CYCLE   64 ......................................
................................................................................
   1    -50.7445822 -0.507446E+02  0.336E-02    9.01       0.0  T
   2    -50.7445823 -0.182224E-06  0.252E-02    9.01       1.0  T
   3    -50.7445825 -0.178316E-06  0.257E-03    9.00       7.6  T
   4    -50.7445825 -0.162093E-07  0.103E-03    9.00      19.1  T
   5    -50.7445825 -0.117301E-08  0.291E-04    9.00      67.3  T
   6    -50.7445825 -0.109544E-09  0.153E-04    9.00     128.4  T
speedup  1.09
cpu  time for SCC    0.01 s
wall time for SCC    0.01 s
speedup  0.99
cpu  time for grad    0.01 s
wall time for grad    0.01 s
 E :    -50.45476912  G :  0.000648    pred/act E change: -0.141D-05 -0.196D-05
Maxdispl :   0.0591   ||displ|| :   0.0892   Lambda : -0.282D-05
Largest |displ|/coords:  0.0591 (   3)  0.0562 (   2)  0.0205 (   6)
................................................................................
.............................. CYCLE   65 ......................................
................................................................................
   1    -50.7446283 -0.507446E+02  0.340E-02    9.00       0.0  T
   2    -50.7446284 -0.187994E-06  0.255E-02    9.00       1.0  T
   3    -50.7446286 -0.192977E-06  0.269E-03    9.00       7.3  T
   4    -50.7446287 -0.160391E-07  0.114E-03    9.00      17.2  T
   5    -50.7446287 -0.132315E-08  0.287E-04    9.00      68.3  T
   6    -50.7446287 -0.104592E-09  0.176E-04    9.00     111.2  T
speedup  1.13
cpu  time for SCC    0.01 s
wall time for SCC    0.01 s
speedup  1.01
cpu  time for grad    0.01 s
wall time for grad    0.01 s
[...]
Maxdispl :   0.1114   ||displ|| :   0.1768   Lambda : -0.471D-05
Largest |displ|/coords:  0.1114 (   3)  0.0810 (   2)  0.0490 (   1)
................................................................................
.............................. CYCLE   74 ......................................
................................................................................
   1    -50.7447031 -0.507447E+02  0.782E-02    9.01       0.0  T
   2    -50.7447043 -0.121217E-05  0.592E-02    9.01       1.0  T
   3    -50.7447057 -0.135400E-05  0.582E-03    9.01       3.4  T
   4    -50.7447058 -0.104561E-06  0.229E-03    9.01       8.6  T
   5    -50.7447058 -0.617764E-08  0.616E-04    9.01      31.9  T
   6    -50.7447058 -0.577593E-09  0.365E-04    9.01      53.8  T
speedup  0.94
cpu  time for SCC    0.00 s
wall time for SCC    0.01 s
speedup  1.01
cpu  time for grad    0.01 s
wall time for grad    0.01 s
 E :    -50.45478728  G :  0.001211    pred/act E change: -0.121D-05 -0.242D-05
Maxdispl :   0.0414   ||displ|| :   0.0514   Lambda : -0.535D-05
Largest |displ|/coords:  0.0414 (   2)  0.0153 (   7)  0.0116 (  15)
................................................................................
.............................. CYCLE   75 ......................................
................................................................................
   1    -50.7453349 -0.507453E+02  0.244E-02    9.02       0.0  T
   2    -50.7453350 -0.151703E-06  0.182E-02    9.02       1.1  T
   3    -50.7453352 -0.121538E-06  0.266E-03    9.02       7.4  T
   4    -50.7453352 -0.171123E-07  0.947E-04    9.02      20.7  T
   5    -50.7453352 -0.881428E-09  0.234E-04    9.02      83.7  T
speedup  0.89
cpu  time for SCC    0.00 s
wall time for SCC    0.00 s
speedup  1.00
cpu  time for grad    0.01 s
wall time for grad    0.01 s
 E :    -50.45478981  G :  0.000751    pred/act E change: -0.243D-05 -0.253D-05
Maxdispl :   0.0383   ||displ|| :   0.0599   Lambda : -0.194D-05
Largest |displ|/coords:  0.0383 (   3)  0.0257 (   2)  0.0135 (   5)
................................................................................
.............................. CYCLE   76 ......................................
................................................................................
   1    -50.7451839 -0.507452E+02  0.286E-02    9.02       0.0  T
   2    -50.7451840 -0.180164E-06  0.216E-02    9.02       1.0  T
   3    -50.7451842 -0.193501E-06  0.231E-03    9.02       8.5  T
   4    -50.7451842 -0.165765E-07  0.984E-04    9.02      19.9  T
   5    -50.7451842 -0.105921E-08  0.229E-04    9.02      85.8  T
speedup  0.91
cpu  time for SCC    0.00 s
wall time for SCC    0.00 s
speedup  1.01
cpu  time for grad    0.01 s
wall time for grad    0.01 s
 E :    -50.45479137  G :  0.000555    pred/act E change: -0.268D-05 -0.156D-05
Maxdispl :   0.0459   ||displ|| :   0.0711   Lambda : -0.259D-05
Largest |displ|/coords:  0.0459 (   3)  0.0283 (   2)  0.0197 (   8)
................................................................................
.............................. CYCLE   77 ......................................
................................................................................
   1    -50.7449916 -0.507450E+02  0.366E-02    9.01       0.0  T
   2    -50.7449919 -0.311260E-06  0.276E-02    9.01       1.0  T
   3    -50.7449923 -0.322991E-06  0.330E-03    9.01       5.9  T
   4    -50.7449923 -0.296340E-07  0.140E-03    9.01      14.0  T
   5    -50.7449923 -0.210578E-08  0.317E-04    9.01      61.9  T
   6    -50.7449923 -0.128772E-09  0.220E-04    9.01      89.3  T
speedup  1.13
cpu  time for SCC    0.01 s
wall time for SCC    0.01 s
speedup  1.00
cpu  time for grad    0.01 s
wall time for grad    0.01 s
 E :    -50.45479284  G :  0.000540    pred/act E change: -0.974D-06 -0.146D-05
Maxdispl :   0.0065   ||displ|| :   0.0117   Lambda : -0.584D-06
Largest |displ|/coords:  0.0065 (   1)  0.0059 (   2)  0.0038 (   6)
................................................................................
.............................. CYCLE   78 ......................................
................................................................................
   1    -50.7450957 -0.507451E+02  0.577E-03    9.01       0.0  T
   2    -50.7450957 -0.524300E-08  0.421E-03    9.01       4.7  T
   3    -50.7450957 -0.294740E-08  0.742E-04    9.01      26.4  T
   4    -50.7450957 -0.572108E-09  0.171E-04    9.01     114.9  T
speedup  1.11
cpu  time for SCC    0.00 s
wall time for SCC    0.00 s
speedup  0.98
cpu  time for grad    0.01 s
wall time for grad    0.01 s
 E :    -50.45479326  G :  0.000402    pred/act E change: -0.130D-05 -0.422D-06
Maxdispl :   0.0250   ||displ|| :   0.0401   Lambda : -0.951D-06
Largest |displ|/coords:  0.0250 (   3)  0.0123 (   7)  0.0118 (   8)
................................................................................
.............................. CYCLE   79 ......................................
................................................................................
   1    -50.7452118 -0.507452E+02  0.228E-02    9.01       0.0  T
   2    -50.7452119 -0.114738E-06  0.172E-02    9.01       1.1  T
   3    -50.7452120 -0.128496E-06  0.198E-03    9.01       9.9  T
   4    -50.7452120 -0.874100E-08  0.854E-04    9.01      23.0  T
   5    -50.7452120 -0.744215E-09  0.186E-04    9.01     105.2  T
speedup  1.14
cpu  time for SCC    0.00 s
wall time for SCC    0.00 s
speedup  1.00
cpu  time for grad    0.01 s
wall time for grad    0.01 s
 E :    -50.45479385  G :  0.000311    pred/act E change: -0.292D-06 -0.594D-06
Maxdispl :   0.0071   ||displ|| :   0.0130   Lambda : -0.383D-06
Largest |displ|/coords:  0.0071 (   3)  0.0045 (   5)  0.0043 (   8)
................................................................................
.............................. CYCLE   80 ......................................
................................................................................
   1    -50.7452600 -0.507453E+02  0.823E-03    9.02       0.0  T
   2    -50.7452600 -0.108270E-07  0.620E-03    9.02       3.2  T
   3    -50.7452600 -0.131034E-07  0.626E-04    9.02      31.3  T
   4    -50.7452600 -0.664159E-09  0.214E-04    9.02      91.5  T
speedup  1.11
cpu  time for SCC    0.00 s
wall time for SCC    0.00 s
speedup  0.98
cpu  time for grad    0.01 s
wall time for grad    0.01 s
 E :    -50.45479411  G :  0.000215    pred/act E change: -0.476D-06 -0.264D-06
Maxdispl :   0.0078   ||displ|| :   0.0133   Lambda : -0.180D-06
Largest |displ|/coords:  0.0078 (   3)  0.0046 (   5)  0.0045 (   8)
................................................................................
.............................. CYCLE   81 ......................................
................................................................................
   1    -50.7452588 -0.507453E+02  0.744E-03    9.02       0.0  T
   2    -50.7452588 -0.972418E-08  0.562E-03    9.02       3.5  T
   3    -50.7452588 -0.115673E-07  0.526E-04    9.02      37.3  T
   4    -50.7452588 -0.657380E-09  0.230E-04    9.02      85.2  T
speedup  1.11
cpu  time for SCC    0.00 s
wall time for SCC    0.00 s
speedup  0.98
cpu  time for grad    0.01 s
wall time for grad    0.01 s
 E :    -50.45479425  G :  0.000174    pred/act E change: -0.192D-06 -0.136D-06
Maxdispl :   0.0036   ||displ|| :   0.0064   Lambda : -0.109D-06
Largest |displ|/coords:  0.0036 (   1)  0.0029 (   8)  0.0018 (   6)

generating ANC from model Hessian ...
 Shifting diagonal of input Hessian by   4.996322598656812E-003
 Lowest  eigenvalues of input Hessian
   -0.000000   -0.000000   -0.000000   -0.000000   -0.000000    0.000000
    0.005000    0.005218    0.005915    0.006123    0.006441    0.006884
    0.007631    0.007969    0.008391    0.008580    0.009658    0.009960
 Highest eigenvalues
    1.394282    1.395251    1.412119    2.722739    3.228804    3.787582
 
cpu  time for ANC gen    0.02 s
wall time for ANC gen    0.02 s
................................................................................
.............................. CYCLE   82 ......................................
................................................................................
   1    -50.7452460 -0.507452E+02  0.372E-03    9.02       0.0  T
   2    -50.7452460 -0.194682E-08  0.279E-03    9.02       7.0  T
   3    -50.7452460 -0.187741E-08  0.278E-04    9.02      70.5  T
   4    -50.7452460 -0.204508E-09  0.752E-05    9.02     260.6  T
speedup  1.08
cpu  time for SCC    0.00 s
wall time for SCC    0.00 s
speedup  1.06
cpu  time for grad    0.01 s
wall time for grad    0.01 s
 E :    -50.45479433  G :  0.000131    pred/act E change:  0.000D+00 -0.805D-07
Maxdispl :   0.0011   ||displ|| :   0.0017   Lambda : -0.365D-07
Largest |displ|/coords:  0.0011 (   1)  0.0007 (   5)  0.0005 (   4)

   *** GEOMETRY OPTIMIZATION CONVERGED AFTER 82 ITERATIONS ***

------------------------------------------------------------------------
 total energy gain (kcal):      0.0000
------------------------------------------------------------------------
================
 final structure:
================
$coord
        1.17607343782500        0.28649772751519       -3.78963873867168      S 
        4.05249508466731        0.54644551010204       -3.87408994376548      O 
        0.19216406984647        1.94868501127642       -1.84087961654668      O 
        0.11163753279916        0.62776564026041       -6.23131981596727      O 
        0.73511351095655       -2.47235067531961       -2.92763145996189      O 
       -5.15490437316234       -0.67432507225824        1.22643194425699      O 
       -6.80301278757778       -1.38187091073860        1.47444900057844      H 
        1.81472660541257        0.52064247131230        4.56543625515894      O 
        1.75919594758591        0.55147356852605        6.37486428029442      H 
       -0.57650725701062       -2.99281024939290        1.65593576196549      O 
       -2.29876483866621       -2.32712493650406        1.61811834927687      H 
        0.25506256011971       -2.67408184224934       -1.06409406656901      H 
        0.37699192463810       -1.85446847076620        2.75546499151870      H 
       -1.81885489395240        3.26557060935596        2.66121424162600      O 
       -3.26502971933028        2.15280687118128        2.51753511114841      H 
        0.52001597544183        1.75676715731692        3.97424572825976      H 
       -1.07625957677816        3.27304289910398        0.98256417952814      H 
       -4.52524195658663        1.07821381146612       -3.46257002491499      O 
       -4.23075839011677        0.36338746335763       -5.10547970311844      H 
       -5.08492972482394       -0.10876536704829       -0.54438911307679      H 
       -2.90802962792421        1.81818564842144       -2.99959483542153      H 
        5.39839397363805       -0.77582340451110        0.56559935102975      N 
        4.70487190397643        0.09446835656753       -2.05444671796843      H 
        5.14727277735889       -2.67107835770773        0.63869313249181      H 
        7.22257973622417       -0.37998315554104        0.97810363008746      H 
        4.27569808643410        0.02872965848248        1.90547809758802      H 
$end
 
 Bond Distances (Angstroems)
 ---------------------------
S1-O2=1.5290         S1-O3=1.4520         S1-O4=1.4210         S1-O5=1.5472         O2-S1=1.5290         O2-H23=1.0505        
O3-S1=1.4520         O4-S1=1.4210         O5-S1=1.5472         O5-H12=1.0239        O6-H7=0.9581         O6-H20=0.9844        
H7-O6=0.9581         O8-H9=0.9581         O8-H16=0.9976        H9-O8=0.9581         O10-H11=0.9773       O10-H13=0.9778       
H11-O10=0.9773       H12-O5=1.0239        H13-O10=0.9778       O14-H15=0.9686       O14-H17=0.9713       H15-O14=0.9686       
H16-O8=0.9976        H17-O14=0.9713       O18-H19=0.9608       O18-H21=0.9725       H19-O18=0.9608       H20-O6=0.9844        
H21-O18=0.9725       N22-H24=1.0124       N22-H25=1.0116       N22-H26=1.0183       H23-O2=1.0505        H24-N22=1.0124       
H25-N22=1.0116       H26-N22=1.0183       
 N  H  Rav=1.0141 sigma=0.0030  Rmin=1.0116  Rmax=1.0183     3
 O  H  Rav=0.9834 sigma=0.0269  Rmin=0.9581  Rmax=1.0505    12
 S  O  Rav=1.4873 sigma=0.0524  Rmin=1.4210  Rmax=1.5472     4
 
 selected bond angles (degree)
 --------------------
O3-S1-O2=108.86                O4-S1-O2=110.89                O4-S1-O3=115.26                O5-S1-O2=104.10                
O5-S1-O3=107.95                O5-S1-O4=109.16                H23-O2-S1=106.25               H12-O5-S1=114.82               
H20-O6-H7=106.47               H16-O8-H9=106.33               H13-O10-H11=105.75             
 
 selected dihedral angles (degree)
 ---------------------------------
H23-O2-S1-O3= 57.68           H23-O2-S1-O4=185.49           H23-O2-S1-O5=302.75           H12-O5-S1-O2=101.95           
H12-O5-S1-O3=346.37           H12-O5-S1-O4=220.41           
 
 CMA Distance (Angstroems)
 ---------------------------
R(CMA):  2.8124

========================================================================
 FINAL SINGLEPOINT CALCULATION ON OPTIMIZED GEOMETRY
========================================================================

 Ncao       : 65
 Nao        : 64
 Nshell     : 38
 Nel        : 80
 T(el)      :   300.0
 intcut     :    25.0
 scfconv/Eh :  0.100E-05
   qconv/e  :  0.100E-03
 intneglect :  0.100E-07
 broydamp   :      0.250
 iter      E             dE          RMSdq      gap      omega  full diag
   1    -50.7452460 -0.507452E+02  0.215E-05    9.02       0.0  T
   2    -50.7452460 -0.113687E-11  0.134E-05    9.02    1459.3  T
   3    -50.7452460 -0.497380E-12  0.496E-06    9.02    3951.7  T
speedup  1.11
cpu  time for SCC    0.00 s
wall time for SCC    0.00 s

   *** convergence criteria satisfied after 3 iterations ***

          eigenvalues
 #    :          28         29         30         31         32         33         34         35
 occ. :        2.000      2.000      2.000      2.000      2.000      2.000      2.000      2.000
 eps  :       -13.684    -13.350    -12.846    -12.534    -12.504    -12.467    -12.439    -12.341
 #    :          36         37         38         39         40         41         42         43
 occ. :        2.000      2.000      2.000      2.000      2.000      0.000      0.000      0.000
 eps  :       -12.215    -12.077    -12.024    -11.935    -11.700     -2.683     -0.664     -0.491
 #    :          44         45         46         47         48         49         50         51
 occ. :        0.000      0.000      0.000      0.000      0.000      0.000      0.000      0.000
 eps  :         0.068      0.671      1.008      1.741      3.271      3.664      4.339      5.009


   #   Z            q   n(s)   n(p)   n(d)      C6AA      α(0)
   1  16 S      1.683  1.580  1.784  0.954    89.155    15.892
   2   8 O     -0.610  1.756  4.855  0.000    25.412     6.805
   3   8 O     -0.745  1.762  4.984  0.000    29.974     7.340
   4   8 O     -0.658  1.748  4.910  0.000    27.599     7.044
   5   8 O     -0.635  1.759  4.875  0.000    26.012     6.885
   6   8 O     -0.621  1.743  4.878  0.000    25.689     6.841
   7   1 H      0.288  0.712  0.000  0.000     0.757     1.367
   8   8 O     -0.636  1.752  4.884  0.000    26.067     6.891
   9   1 H      0.284  0.716  0.000  0.000     0.772     1.380
  10   8 O     -0.625  1.764  4.861  0.000    25.784     6.854
  11   1 H      0.333  0.667  0.000  0.000     0.630     1.247
  12   1 H      0.394  0.606  0.000  0.000     0.494     1.103
  13   1 H      0.331  0.669  0.000  0.000     0.635     1.252
  14   8 O     -0.611  1.751  4.860  0.000    25.457     6.810
  15   1 H      0.318  0.682  0.000  0.000     0.668     1.284
  16   1 H      0.339  0.661  0.000  0.000     0.615     1.232
  17   1 H      0.326  0.674  0.000  0.000     0.647     1.264
  18   8 O     -0.612  1.733  4.879  0.000    25.475     6.812
  19   1 H      0.303  0.697  0.000  0.000     0.712     1.325
  20   1 H      0.340  0.660  0.000  0.000     0.612     1.229
  21   1 H      0.312  0.688  0.000  0.000     0.685     1.300
  22   7 N     -0.438  1.354  4.084  0.000    31.449     8.329
  23   1 H      0.358  0.642  0.000  0.000     0.558     1.168
  24   1 H      0.184  0.816  0.000  0.000     1.190     1.709
  25   1 H      0.177  0.823  0.000  0.000     1.231     1.738
  26   1 H      0.220  0.780  0.000  0.000     1.011     1.575

 Mol. C6AA /au·bohr⁶  :       5443.308871
 Mol. C8AA /au·bohr⁸  :     117640.334365
 Mol. α(0) /au        :        106.672579

 
 Wiberg/Mayer (AO) data. WBOs > 0.1 written file <wbo>
 largest (>0.05) Wiberg bond orders for each atom
           total WBO             WBO to atom ...
     1  S   4.865    O    4 1.486    O    3 1.308    O    2 1.033    O    5 0.997
     2  O   1.981    S    1 1.033    H   23 0.637    O    3 0.087    O    4 0.081    N   22 0.070    O    5 0.066
     3  O   1.710    S    1 1.308    O    4 0.118    O    5 0.089    O    2 0.087
     4  O   1.798    S    1 1.486    O    3 0.118    O    2 0.081    O    5 0.080
     5  O   1.952    S    1 0.997    H   12 0.666    O    3 0.089    O    4 0.080    O    2 0.066
     6  O   1.867    H    7 0.909    H   20 0.819    H   11 0.050
     7  H   0.917    O    6 0.909
     8  O   1.858    H    9 0.911    H   16 0.789    H   13 0.053
     9  H   0.920    O    8 0.911
    10  O   1.943    H   11 0.837    H   13 0.832    H   12 0.159
    11  H   0.889    O   10 0.837    O    6 0.050
    12  H   0.845    O    5 0.666    O   10 0.159
    13  H   0.890    O   10 0.832    O    8 0.053
    14  O   1.904    H   15 0.871    H   17 0.859    H   16 0.094
    15  H   0.899    O   14 0.871
    16  H   0.885    O    8 0.789    O   14 0.094
    17  H   0.894    O   14 0.859
    18  O   1.864    H   19 0.895    H   21 0.853    H   20 0.061
    19  H   0.908    O   18 0.895
    20  H   0.884    O    6 0.819    O   18 0.061
    21  H   0.902    O   18 0.853
    22  N   3.174    H   25 0.967    H   24 0.964    H   26 0.924    H   23 0.220    O    2 0.070
    23  H   0.872    O    2 0.637    N   22 0.220
    24  H   0.966    N   22 0.964
    25  H   0.969    N   22 0.967
    26  H   0.952    N   22 0.924
 MOs/occ written to file <molden.input>
 
molecular dipole:
                 x           y           z       tot (Debye)
 q only:        0.460      -0.720       1.903
   full:        0.497      -0.850       2.100       5.894
molecular quadrupole (traceless):
                xx          xy          yy          xz          yz          zz
 q only:       16.124       1.630      -5.459       4.304       0.641     -10.664
  q+dip:       18.344       2.187      -8.578       6.019       0.416      -9.766
   full:       18.784       2.456      -9.076       6.001       0.430      -9.708

SCC energy    :     -50.7452460
rep           :       0.2901222
ES            :       0.2367276
AES           :      -0.0544114
AXC           :      -0.0076928
disp          :      -0.0193556
XB            :       0.0000000
fix           :       0.0000000
total E       :     -50.4547943
atomizationE  :       4.9850985     3128.20
(atE without considering molecular charge,
 total energy contains solvation terms)
H-L gap (eV)  :          9.0176
optimized geometry written to: xtbopt.xyz


------------------------------------------------------------------------
 * finished run on 2019/09/16 at 11:45:51.487     
------------------------------------------------------------------------
 total:
 * wall-time:     0 d,  0 h,  0 min,  2.000 sec
 *  cpu-time:     0 d,  0 h,  0 min,  1.952 sec
 * ratio c/w:     0.976 speedup
 SCF:
 * wall-time:     0 d,  0 h,  0 min,  0.168 sec
 *  cpu-time:     0 d,  0 h,  0 min,  0.133 sec
 * ratio c/w:     0.789 speedup
 ANC optimizer:
 * wall-time:     0 d,  0 h,  0 min,  1.808 sec
 *  cpu-time:     0 d,  0 h,  0 min,  1.797 sec
 * ratio c/w:     0.994 speedup

