      -----------------------------------------------------------      
     |                   =====================                   |     
     |                           x T B                           |     
     |                   =====================                   |     
     |                         S. Grimme                         |     
     |          Mulliken Center for Theoretical Chemistry        |     
     |                    University of Bonn                     |     
     |                 Version 6.0.1 (SAW181210)                 |     
      -----------------------------------------------------------      

   This program is distributed in the hope that it will be useful,
   but WITHOUT ANY WARRANTY; without even the implied warranty of
   MERCHANTABILITY or FITNESS FOR A PARTICULAR PURPOSE.
   
   FOR NON-COMMERCIAL, ACADEMIA USE ONLY.
   
   Cite this work as:
   S. Grimme, C. Bannwarth, P. Shushkov, J. Comput. Theory Chem., 2017,
   13, 1989-2009.
   C. Bannwarth, S. Ehlert and S. Grimme., ChemRxiv, 2018, preprint.
   http://doi.org/10.26434/chemrxiv.7246238.v1
   
   for sTDA-xTB:
   S. Grimme and C. Bannwarth, J. Chem. Phys., 2016, 145, 054103.
   
   in the mass-spec context:
   V. Asgeirsson, C. Bauer and S. Grimme, Chem. Sci., 2017, 8, 4879.
   
   if GBSA is used:
   P. Shushkov, F. März and S. Grimme, unpublished.
   
   for ANC optimizer:
   S. Grimme, unpublished.
   Rational Function algorithm used in ANCopt:
   F. Eckert, P. Pulay, H.-J. Werner, J. Comput. Chem., 1997, 18, 1473.
   
   with help from (in alphabetical order)
   C. Bannwarth, F. Bohle, G. Brandenburg, E. Caldeweyher, M. Checinski,
   S. Dohm, S. Ehlert, S. Ehrlich, F. März, H. Neugebauer, J. Pisarek,
   P. Pracht, P. Shushkov, and S. Spicher.
   
 * started run on 2019/09/16 at 11:20:48.593     
========================================================================
 # omp threads = 1
========================================================================
number of atoms            : 26
number of electrons        : 80
charge                     : 0
spin                       : .0
first test random number   : .6509

########################################################################
# WARNING! Please study the warnings concerning your input carefully
#  - XTBPATH is not set, using XTBHOME instead
#  - the use of '-opt' is discouraged, please use '--opt' next time
#  - the use of '-chrg' is discouraged, please use '--chrg' next time
#  - the use of '-uhf' is discouraged, please use '--uhf' next time
########################################################################

           ------------------------------------------------- 
          |                 G F N 2 - x T B                 |
          | Geometry, Frequencies, Noncovalent interactions |
          |            JCTC 2018 parametrisation            |
           ------------------------------------------------- 
      method parameters     
 k(s)        :  1.8500
 k(p)        :  2.2300
 k(d)        :  2.2300
 k(f)        :  2.0000
 kEN (H0ij)  : -2.0000
 D4 a1       :  0.5200
 D4 a2       :  5.0000
 D4 s6       :  1.0000
 D4 s8       :  2.7000
 D4 s9       :  5.0000
 alphaj      :  2.0000


            Z     q(EN)     CN     RAES       Cart. coordinates
     1  S   6.0    0.68    4.09    3.85     0.78977    -0.51298     1.01976
     2  O   6.0   -0.31    1.25    1.80     2.78308    -1.09381     2.92172
     3  O   6.0   -0.33    1.24    1.80     1.10292    -2.19967    -1.21298
     4  O   6.0   -0.33    1.21    1.80    -1.74903    -0.93128     2.16329
     5  O   6.0   -0.33    1.27    1.80     1.02210     2.17283     0.20702
     6  O   6.0   -0.29    2.06    1.83    -3.32803    -2.59459     6.57512
     7  H   1.0    0.15    0.97    1.43    -5.08767    -3.05952     6.62122
     8  H   1.0    0.18    1.05    1.44    -3.03968    -1.96768     4.89036
     9  O   6.0   -0.29    2.01    1.83     3.10666    -1.83491    -5.80835
    10  H   1.0    0.17    1.05    1.44     2.52399    -2.18680    -4.11978
    11  H   1.0    0.15    0.97    1.43     4.45061    -3.02503    -6.11171
    12  O   6.0   -0.28    1.95    1.82     0.91530     6.57829    -2.18534
    13  H   1.0    0.15    0.97    1.43     1.53510     7.99189    -1.21984
    14  H   1.0    0.17    1.05    1.44     1.00968     5.14916    -1.06137
    15  O   6.0   -0.28    2.01    1.83    -3.68725    -1.41009    -3.04886
    16  H   1.0    0.16    1.03    1.43    -2.14927    -2.33038    -2.72902
    17  H   1.0    0.16    0.98    1.43    -4.39802    -1.07472    -1.40662
    18  O   6.0   -0.22    2.88    2.50     1.47241    -2.25245     7.40846
    19  H   1.0    0.14    1.06    1.44    -0.35685    -2.61119     7.28613
    20  H   1.0    0.16    1.10    1.44     2.25786    -2.03709     5.72718
    21  H   1.0    0.12    0.96    1.42     1.82730    -0.80536     8.53606
    22  N   5.0   -0.14    3.95    2.74    -0.20020     2.00707    -4.89049
    23  H   1.0    0.09    0.99    1.43    -0.42053     3.62195    -5.95260
    24  H   1.0    0.10    1.03    1.43    -1.90103     1.06994    -4.77479
    25  H   1.0    0.10    1.04    1.43     1.12031     0.85266    -5.73193
    26  H   1.0    0.11    1.07    1.44     0.40047     2.48375    -3.10263

  Z AO/shell   Hii/eV     exponent
  1     Wed Apr 25 08:07:45 CEST 2018   EN: 2.200 GM2: 0.406  GM3: 0.0800  RAES: 1.40
     1s    -10.707211    1.230000
  7     Wed Apr 25 08:07:45 CEST 2018   EN: 3.040 GM2: 0.461  GM3:-0.0640  RAES: 1.90
     2s    -16.686243    2.339881
     2p    -12.523956    2.014332
  8     Wed Apr 25 08:07:45 CEST 2018   EN: 3.440 GM2: 0.452  GM3:-0.0517  RAES: 1.80
     2s    -20.229985    2.439742
     2p    -15.503117    2.137023
 16     Tue Apr 24 11:44:34 CEST 2018   EN: 2.580 GM2: 0.340  GM3:-0.0502  RAES: 3.10
     3s    -20.029654    1.981333
     3p    -11.377694    2.025643
     3d     -0.420282    1.702555
 no old-style atom pair restraining (fixing) potential

molecular fragmentation (1/2 indicates fragments):
11111222222222222222222222
# atoms in fragment 1/2:     5    21
 fragment masses (1/2) :       96.06      109.12
CMA distance (Bohr)    :   1.731
constraining FC (au)   :  0.0500
           ------------------------------------------------- 
          |        Self-Consistent Charge Iterations        |
           ------------------------------------------------- 

 Ncao       : 65
 Nao        : 64
 Nshell     : 38
 Nel        : 80
 T(el)      :   300.0
 intcut     :    25.0
 scfconv/Eh :  0.100E-05
   qconv/e  :  0.100E-03
 intneglect :  0.100E-07
 broydamp   :      0.250
 iter      E             dE          RMSdq      gap      omega  full diag
   1    -50.6054653 -0.506055E+02  0.699E+00   10.18       0.0  T
   2    -50.6472333 -0.417681E-01  0.502E+00    9.82       1.0  T
   3    -50.6825803 -0.353470E-01  0.110E+00    7.69       1.0  T
   4    -50.6867021 -0.412173E-02  0.552E-01    7.57       1.0  T
   5    -50.6876142 -0.912109E-03  0.210E-01    7.39       1.0  T
   6    -50.6878316 -0.217473E-03  0.999E-02    7.51       1.0  T
   7    -50.6878918 -0.601228E-04  0.430E-02    7.54       1.0  T
   8    -50.6879002 -0.842141E-05  0.233E-02    7.54       1.0  T
   9    -50.6879038 -0.356638E-05  0.626E-03    7.53       3.1  T
  10    -50.6879038 -0.785214E-07  0.168E-03    7.52      11.7  T
  11    -50.6879039 -0.188248E-07  0.610E-04    7.53      32.1  T
  12    -50.6879039 -0.823661E-09  0.349E-04    7.53      56.2  T
speedup  1.01
cpu  time for SCC    0.01 s
wall time for SCC    0.01 s

   *** convergence criteria satisfied after 12 iterations ***

          eigenvalues
 #    :          28         29         30         31         32         33         34         35
 occ. :        2.000      2.000      2.000      2.000      2.000      2.000      2.000      2.000
 eps  :       -12.084    -11.980    -11.473    -11.375    -11.167    -10.696    -10.524    -10.009
 #    :          36         37         38         39         40         41         42         43
 occ. :        2.000      2.000      2.000      2.000      2.000      0.000      0.000      0.000
 eps  :        -9.822     -9.800     -9.633     -9.564     -9.470     -1.945     -0.841      0.307
 #    :          44         45         46         47         48         49         50         51
 occ. :        0.000      0.000      0.000      0.000      0.000      0.000      0.000      0.000
 eps  :         1.924      2.125      2.835      2.956      3.025      3.428      4.008      5.455


   #   Z            q   n(s)   n(p)   n(d)      C6AA      α(0)
   1  16 S      1.512  1.602  1.886  1.000    93.162    16.245
   2   8 O     -0.786  1.773  5.013  0.000    31.149     7.483
   3   8 O     -0.797  1.782  5.015  0.000    31.497     7.524
   4   8 O     -0.805  1.778  5.027  0.000    31.746     7.554
   5   8 O     -0.795  1.777  5.018  0.000    31.424     7.516
   6   8 O     -0.630  1.726  4.904  0.000    25.920     6.871
   7   1 H      0.294  0.706  0.000  0.000     0.741     1.352
   8   1 H      0.345  0.655  0.000  0.000     0.600     1.217
   9   8 O     -0.626  1.733  4.893  0.000    25.818     6.858
  10   1 H      0.335  0.665  0.000  0.000     0.624     1.241
  11   1 H      0.279  0.721  0.000  0.000     0.788     1.395
  12   8 O     -0.624  1.742  4.881  0.000    25.761     6.850
  13   1 H      0.268  0.732  0.000  0.000     0.826     1.427
  14   1 H      0.326  0.674  0.000  0.000     0.646     1.263
  15   8 O     -0.614  1.733  4.880  0.000    25.517     6.818
  16   1 H      0.320  0.680  0.000  0.000     0.663     1.279
  17   1 H      0.298  0.702  0.000  0.000     0.728     1.340
  18   8 O     -0.395  1.641  4.754  0.000    20.705     6.146
  19   1 H      0.426  0.574  0.000  0.000     0.440     1.042
  20   1 H      0.424  0.576  0.000  0.000     0.443     1.046
  21   1 H      0.376  0.624  0.000  0.000     0.531     1.144
  22   7 N     -0.288  1.246  4.042  0.000    27.401     7.775
  23   1 H      0.249  0.751  0.000  0.000     0.887     1.475
  24   1 H      0.290  0.710  0.000  0.000     0.744     1.351
  25   1 H      0.300  0.700  0.000  0.000     0.712     1.322
  26   1 H      0.317  0.683  0.000  0.000     0.665     1.278

 Mol. C6AA /au·bohr⁶  :       5481.990647
 Mol. C8AA /au·bohr⁸  :     119194.991354
 Mol. α(0) /au        :        106.811427

 
 Wiberg/Mayer (AO) data. WBOs > 0.1 written file <wbo>
 largest (>0.05) Wiberg bond orders for each atom
           total WBO             WBO to atom ...
     1  S   5.000    O    4 1.250    O    3 1.244    O    5 1.230    O    2 1.228
     2  O   1.694    S    1 1.228    H   20 0.140    O    4 0.099    O    3 0.086    O    5 0.083
     3  O   1.660    S    1 1.244    O    5 0.098    O    4 0.092    O    2 0.086    H   10 0.057
     4  O   1.642    S    1 1.250    O    2 0.099    O    3 0.092    O    5 0.091    H    8 0.066
     5  O   1.669    S    1 1.230    O    3 0.098    O    4 0.091    O    2 0.083    H   26 0.067
     6  O   1.851    H    7 0.897    H    8 0.810    H   19 0.083
     7  H   0.914    O    6 0.897
     8  H   0.881    O    6 0.810    O    4 0.066
     9  O   1.828    H   11 0.910    H   10 0.826
    10  H   0.888    O    9 0.826    O    3 0.057
    11  H   0.922    O    9 0.910
    12  O   1.802    H   13 0.925    H   14 0.838
    13  H   0.928    O   12 0.925
    14  H   0.893    O   12 0.838
    15  O   1.860    H   17 0.901    H   16 0.859
    16  H   0.897    O   15 0.859
    17  H   0.911    O   15 0.901
    18  O   2.338    H   21 0.852    H   19 0.727    H   20 0.671
    19  H   0.819    O   18 0.727    O    6 0.083
    20  H   0.820    O   18 0.671    O    2 0.140
    21  H   0.858    O   18 0.852
    22  N   3.569    H   23 0.933    H   24 0.862    H   25 0.860    H   26 0.816
    23  H   0.938    N   22 0.933
    24  H   0.916    N   22 0.862
    25  H   0.910    N   22 0.860
    26  H   0.900    N   22 0.816    O    5 0.067
 MOs/occ written to file <molden.input>
 
molecular dipole:
                 x           y           z       tot (Debye)
 q only:       -0.366       0.301       1.261
   full:       -0.287       0.273       1.644       4.299
molecular quadrupole (traceless):
                xx          xy          yy          xz          yz          zz
 q only:      -19.387      -0.309     -18.299       2.365     -13.070      37.686
  q+dip:      -14.973       0.763     -15.539      -1.512      -7.331      30.512
   full:      -15.033       0.687     -15.674      -1.650      -7.458      30.707

SCC energy    :     -50.6879039
rep           :       0.2957697
ES            :       0.3665718
AES           :      -0.0840450
AXC           :      -0.0101497
disp          :      -0.0177594
XB            :       0.0000000
fix           :       0.0000000
total E       :     -50.3920264
atomizationE  :       4.9223306     3088.81
(atE without considering molecular charge,
 total energy contains solvation terms)
H-L gap (eV)  :          7.5257
           ------------------------------------------------- 
          |                 ===============                 |
          |                   A N C O P T                   |
          |                 ===============                 |
          |          Approximate Normal Coordinate          |
          |           Rational Function Optimizer           |
           ------------------------------------------------- 
dumping coords to <xtbopt.coord> and <xtbopt.log>
 optlevel               2
 Maxcycle             520
 Maxmicro              25
 Econv         1.000000000000000E-007
 Gconv         2.000000000000000E-004
 Maxdispl       1.00000000000000     
 Hlow          5.000000000000000E-003
 S6             20.0000000000000     
 Nvar               72

generating ANC from model Hessian ...
 Shifting diagonal of input Hessian by   5.630420392125943E-003
 Lowest  eigenvalues of input Hessian
    0.005000    0.005525   -0.000000   -0.000000   -0.000000    0.000000
    0.000000    0.000000    0.005784    0.005855    0.005927    0.006120
    0.006313    0.006566    0.007247    0.007971    0.008105    0.008609
 Highest eigenvalues
    1.435993    1.548487    1.565845    3.089355    3.092950    3.095216
 
cpu  time for ANC gen    0.01 s
wall time for ANC gen    0.01 s
................................................................................
.............................. CYCLE    1 ......................................
................................................................................
   1    -50.6879039 -0.506879E+02  0.769E-05    7.53       0.0  T
   2    -50.6879039 -0.174083E-10  0.539E-05    7.53     363.9  T
   3    -50.6879039 -0.113474E-10  0.235E-05    7.53     833.2  T
speedup  1.03
cpu  time for SCC    0.00 s
wall time for SCC    0.00 s
speedup  1.08
cpu  time for grad    0.01 s
wall time for grad    0.01 s
 E :    -50.39202641  G :  0.123079    pred/act E change:  0.000D+00  0.878D-08
Maxdispl :   0.2429   ||displ|| :   0.4839   Lambda : -0.243D-01
Largest |displ|/coords:  0.2429 (  30)  0.1413 (  23)  0.1272 (  26)
................................................................................
.............................. CYCLE    2 ......................................
................................................................................
   1    -50.6923924 -0.506924E+02  0.343E-01    7.93       0.0  T
   2    -50.6926231 -0.230721E-03  0.255E-01    8.02       1.0  T
   3    -50.6927343 -0.111213E-03  0.766E-02    8.21       1.0  T
   4    -50.6927565 -0.221421E-04  0.238E-02    8.22       1.0  T
   5    -50.6927575 -0.100930E-05  0.807E-03    8.21       2.4  T
   6    -50.6927576 -0.110065E-06  0.415E-03    8.21       4.7  T
   7    -50.6927576 -0.481828E-07  0.152E-03    8.21      12.9  T
speedup  1.09
cpu  time for SCC    0.01 s
wall time for SCC    0.01 s
speedup  0.93
cpu  time for grad    0.01 s
wall time for grad    0.01 s
 E :    -50.41334969  G :  0.081233    pred/act E change:  0.000D+00 -0.213D-01
Maxdispl :   0.2673   ||displ|| :   0.5287   Lambda : -0.186D-01
Largest |displ|/coords:  0.2673 (  30)  0.1896 (  23)  0.1529 (  26)
................................................................................
.............................. CYCLE    3 ......................................
................................................................................
   1    -50.6985041 -0.506985E+02  0.335E-01    8.41       0.0  T
   2    -50.6989247 -0.420642E-03  0.243E-01    8.48       1.0  T
   3    -50.6991206 -0.195909E-03  0.966E-02    8.59       1.0  T
   4    -50.6991400 -0.193772E-04  0.309E-02    8.62       1.0  T
   5    -50.6991417 -0.172986E-05  0.106E-02    8.62       1.8  T
   6    -50.6991419 -0.219897E-06  0.548E-03    8.62       3.6  T
   7    -50.6991420 -0.792701E-07  0.197E-03    8.62      10.0  T
speedup  0.95
cpu  time for SCC    0.01 s
wall time for SCC    0.01 s
speedup  1.00
cpu  time for grad    0.01 s
wall time for grad    0.01 s
 E :    -50.42901605  G :  0.062310    pred/act E change: -0.150D-01 -0.157D-01
Maxdispl :   0.1994   ||displ|| :   0.4753   Lambda : -0.112D-01
Largest |displ|/coords:  0.1994 (  30)  0.1833 (  23)  0.1638 (  26)
................................................................................
.............................. CYCLE    4 ......................................
................................................................................
   1    -50.7029151 -0.507029E+02  0.318E-01    8.76       0.0  T
   2    -50.7033676 -0.452413E-03  0.230E-01    8.79       1.0  T
   3    -50.7035744 -0.206876E-03  0.987E-02    8.85       1.0  T
   4    -50.7035917 -0.173157E-04  0.314E-02    8.88       1.0  T
   5    -50.7035937 -0.192843E-05  0.106E-02    8.87       1.8  T
   6    -50.7035939 -0.219912E-06  0.555E-03    8.87       3.5  T
   7    -50.7035940 -0.772316E-07  0.195E-03    8.87      10.1  T
speedup  1.13
cpu  time for SCC    0.01 s
wall time for SCC    0.01 s
speedup  1.01
cpu  time for grad    0.01 s
wall time for grad    0.01 s
 E :    -50.43775861  G :  0.057994    pred/act E change: -0.119D-01 -0.874D-02
Maxdispl :   0.1127   ||displ|| :   0.3272   Lambda : -0.560D-02
Largest |displ|/coords:  0.1127 (  26)  0.1044 (   7)  0.0927 (   6)
................................................................................
.............................. CYCLE    5 ......................................
................................................................................
   1    -50.7094729 -0.507095E+02  0.221E-01    8.99       0.0  T
   2    -50.7096762 -0.203305E-03  0.161E-01    9.00       1.0  T
   3    -50.7097721 -0.959242E-04  0.709E-02    9.03       1.0  T
   4    -50.7097803 -0.813651E-05  0.215E-02    9.05       1.0  T
   5    -50.7097814 -0.112339E-05  0.698E-03    9.05       2.8  T
   6    -50.7097815 -0.948876E-07  0.387E-03    9.05       5.1  T
   7    -50.7097815 -0.307966E-07  0.130E-03    9.05      15.1  T
speedup  0.98
cpu  time for SCC    0.01 s
wall time for SCC    0.01 s
speedup  0.94
cpu  time for grad    0.01 s
wall time for grad    0.01 s
 E :    -50.44258313  G :  0.053611    pred/act E change: -0.688D-02 -0.482D-02
Maxdispl :   0.1692   ||displ|| :   0.2910   Lambda : -0.473D-02
Largest |displ|/coords:  0.1692 (   7)  0.1034 (   6)  0.0697 (   4)
................................................................................
.............................. CYCLE    6 ......................................
................................................................................
   1    -50.7207789 -0.507208E+02  0.183E-01    9.16       0.0  T
   2    -50.7209272 -0.148329E-03  0.134E-01    9.16       1.0  T
   3    -50.7210027 -0.754577E-04  0.647E-02    9.18       1.0  T
   4    -50.7210090 -0.637704E-05  0.191E-02    9.19       1.0  T
   5    -50.7210099 -0.871823E-06  0.643E-03    9.19       3.0  T
   6    -50.7210100 -0.632665E-07  0.353E-03    9.19       5.6  T
   7    -50.7210100 -0.150275E-07  0.964E-04    9.19      20.4  T
speedup  0.97
cpu  time for SCC    0.01 s
wall time for SCC    0.01 s
speedup  1.01
cpu  time for grad    0.01 s
wall time for grad    0.01 s
 E :    -50.44676496  G :  0.044993    pred/act E change: -0.310D-02 -0.418D-02
Maxdispl :   0.2790   ||displ|| :   0.6646   Lambda : -0.138D-01
Largest |displ|/coords:  0.2790 (  16)  0.2449 (   7)  0.2315 (  15)
................................................................................
.............................. CYCLE    7 ......................................
................................................................................
   1    -50.7358678 -0.507359E+02  0.772E-01    9.57       0.0  T
   2    -50.7365815 -0.713687E-03  0.575E-01    9.57       1.0  T
   3    -50.7369416 -0.360125E-03  0.164E-01    9.58       1.0  T
   4    -50.7370209 -0.792460E-04  0.448E-02    9.60       1.0  T
   5    -50.7370251 -0.424386E-05  0.161E-02    9.60       1.2  T
   6    -50.7370254 -0.315628E-06  0.934E-03    9.60       2.1  T
   7    -50.7370256 -0.148618E-06  0.265E-03    9.60       7.4  T
   8    -50.7370256 -0.164485E-07  0.632E-04    9.60      31.0  T
speedup  0.99
cpu  time for SCC    0.01 s
wall time for SCC    0.01 s
speedup  1.02
cpu  time for grad    0.01 s
wall time for grad    0.01 s
 E :    -50.44678962  G :  0.094140    pred/act E change: -0.257D-02 -0.247D-04
Maxdispl :   0.2939   ||displ|| :   0.5713   Lambda : -0.351D-01
Largest |displ|/coords:  0.2939 (  15)  0.2654 (  16)  0.2086 (  36)
................................................................................
.............................. CYCLE    8 ......................................
................................................................................
   1    -50.7410075 -0.507410E+02  0.872E-01    9.39       0.0  T
   2    -50.7416877 -0.680147E-03  0.651E-01    9.39       1.0  T
   3    -50.7421346 -0.446924E-03  0.154E-01    9.38       1.0  T
   4    -50.7422123 -0.776767E-04  0.380E-02    9.37       1.0  T
   5    -50.7422145 -0.226689E-05  0.172E-02    9.37       1.1  T
   6    -50.7422148 -0.261742E-06  0.885E-03    9.37       2.2  T
   7    -50.7422149 -0.152201E-06  0.207E-03    9.37       9.5  T
   8    -50.7422149 -0.107175E-07  0.548E-04    9.37      35.8  T
speedup  1.00
cpu  time for SCC    0.01 s
wall time for SCC    0.01 s
speedup  1.02
cpu  time for grad    0.01 s
wall time for grad    0.01 s
 E :    -50.44636807  G :  0.105265    pred/act E change: -0.994D-02  0.422D-03
Maxdispl :   0.1532   ||displ|| :   0.3397   Lambda : -0.174D-01
Largest |displ|/coords:  0.1532 (  36)  0.1202 (  16)  0.1108 (  28)
................................................................................
.............................. CYCLE    9 ......................................
................................................................................
   1    -50.7478187 -0.507478E+02  0.435E-01    9.44       0.0  T
   2    -50.7480223 -0.203614E-03  0.324E-01    9.45       1.0  T
   3    -50.7481683 -0.145992E-03  0.872E-02    9.47       1.0  T
   4    -50.7481911 -0.227356E-04  0.270E-02    9.47       1.0  T
   5    -50.7481921 -0.106907E-05  0.112E-02    9.47       1.8  T
   6    -50.7481923 -0.139113E-06  0.533E-03    9.47       3.7  T
   7    -50.7481923 -0.620871E-07  0.145E-03    9.47      13.5  T
speedup  0.94
cpu  time for SCC    0.01 s
wall time for SCC    0.01 s
speedup  1.00
cpu  time for grad    0.01 s
wall time for grad    0.01 s
 E :    -50.45405253  G :  0.029453    pred/act E change: -0.233D-01 -0.768D-02
Maxdispl :   0.1242   ||displ|| :   0.3447   Lambda : -0.366D-02
Largest |displ|/coords:  0.1242 (  11)  0.1215 (   7)  0.1108 (  24)
................................................................................
.............................. CYCLE   10 ......................................
................................................................................
   1    -50.7428309 -0.507428E+02  0.285E-01    9.47       0.0  T
   2    -50.7428815 -0.505657E-04  0.212E-01    9.46       1.0  T
   3    -50.7429108 -0.293091E-04  0.475E-02    9.46       1.0  T
   4    -50.7429169 -0.613144E-05  0.175E-02    9.46       1.1  T
   5    -50.7429174 -0.487710E-06  0.439E-03    9.46       4.5  T
   6    -50.7429174 -0.212721E-07  0.278E-03    9.46       7.1  T
speedup  1.13
cpu  time for SCC    0.01 s
wall time for SCC    0.01 s
speedup  1.01
cpu  time for grad    0.01 s
wall time for grad    0.01 s
 E :    -50.45507694  G :  0.033102    pred/act E change: -0.970D-02 -0.102D-02
Maxdispl :   0.1637   ||displ|| :   0.2796   Lambda : -0.229D-02
Largest |displ|/coords:  0.1637 (   7)  0.0982 (   6)  0.0833 (  10)
................................................................................
.............................. CYCLE   11 ......................................
................................................................................
   1    -50.7518385 -0.507518E+02  0.198E-01    9.42       0.0  T
   2    -50.7518743 -0.357453E-04  0.148E-01    9.43       1.0  T
   3    -50.7518989 -0.246222E-04  0.368E-02    9.43       1.0  T
   4    -50.7519032 -0.425710E-05  0.832E-03    9.43       2.4  T
   5    -50.7519033 -0.157255E-06  0.421E-03    9.43       4.7  T
   6    -50.7519033 -0.149965E-07  0.230E-03    9.43       8.5  T
speedup  0.93
cpu  time for SCC    0.01 s
wall time for SCC    0.01 s
speedup  1.00
cpu  time for grad    0.01 s
wall time for grad    0.01 s
 E :    -50.45616046  G :  0.017523    pred/act E change: -0.205D-02 -0.108D-02
Maxdispl :   0.1404   ||displ|| :   0.3013   Lambda : -0.109D-02
Largest |displ|/coords:  0.1404 (   5)  0.1133 (  10)  0.0952 (  11)
................................................................................
.............................. CYCLE   12 ......................................
................................................................................
   1    -50.7497646 -0.507498E+02  0.272E-01    9.40       0.0  T
   2    -50.7497804 -0.157415E-04  0.206E-01    9.40       1.0  T
   3    -50.7497962 -0.158761E-04  0.207E-02    9.40       1.0  T
   4    -50.7497979 -0.169015E-05  0.604E-03    9.40       3.2  T
   5    -50.7497980 -0.310560E-07  0.331E-03    9.40       5.9  T
   6    -50.7497980 -0.172330E-07  0.102E-03    9.40      19.3  T
   7    -50.7497980 -0.314363E-08  0.292E-04    9.40      67.1  T
speedup  1.11
cpu  time for SCC    0.01 s
wall time for SCC    0.01 s
speedup  1.00
cpu  time for grad    0.01 s
wall time for grad    0.01 s
 E :    -50.45648072  G :  0.015605    pred/act E change: -0.124D-02 -0.320D-03
Maxdispl :   0.1021   ||displ|| :   0.2236   Lambda : -0.892D-03
Largest |displ|/coords:  0.1021 (   6)  0.0781 (   1)  0.0749 (  17)
................................................................................
.............................. CYCLE   13 ......................................
................................................................................
   1    -50.7514749 -0.507515E+02  0.218E-01    9.37       0.0  T
   2    -50.7514858 -0.108821E-04  0.166E-01    9.37       1.0  T
   3    -50.7514951 -0.935837E-05  0.161E-02    9.37       1.2  T
   4    -50.7514966 -0.148090E-05  0.507E-03    9.37       3.9  T
   5    -50.7514967 -0.431162E-07  0.200E-03    9.37       9.8  T
   6    -50.7514967 -0.197755E-08  0.967E-04    9.37      20.3  T
speedup  0.93
cpu  time for SCC    0.00 s
wall time for SCC    0.01 s
speedup  1.00
cpu  time for grad    0.01 s
wall time for grad    0.01 s
 E :    -50.45693064  G :  0.011887    pred/act E change: -0.596D-03 -0.450D-03
Maxdispl :   0.1600   ||displ|| :   0.3075   Lambda : -0.845D-03
Largest |displ|/coords:  0.1600 (   2)  0.1292 (   5)  0.0825 (   3)
................................................................................
.............................. CYCLE   14 ......................................
................................................................................
   1    -50.7489034 -0.507489E+02  0.273E-01    9.31       0.0  T
   2    -50.7489185 -0.150626E-04  0.209E-01    9.30       1.0  T
   3    -50.7489349 -0.164213E-04  0.172E-02    9.30       1.1  T
   4    -50.7489361 -0.119051E-05  0.648E-03    9.30       3.0  T
   5    -50.7489361 -0.429831E-07  0.244E-03    9.30       8.0  T
   6    -50.7489361 -0.619787E-08  0.114E-03    9.30      17.2  T
speedup  0.93
cpu  time for SCC    0.01 s
wall time for SCC    0.01 s
speedup  1.00
cpu  time for grad    0.01 s
wall time for grad    0.01 s
 E :    -50.45693626  G :  0.016672    pred/act E change: -0.468D-03 -0.562D-05
Maxdispl :   0.0837   ||displ|| :   0.1642   Lambda : -0.805D-03
Largest |displ|/coords:  0.0837 (   6)  0.0755 (   9)  0.0618 (  11)
................................................................................
.............................. CYCLE   15 ......................................
................................................................................
   1    -50.7497383 -0.507497E+02  0.194E-01    9.31       0.0  T
   2    -50.7497455 -0.721670E-05  0.148E-01    9.31       1.0  T
   3    -50.7497528 -0.724858E-05  0.130E-02    9.31       1.5  T
   4    -50.7497535 -0.739970E-06  0.413E-03    9.31       4.7  T
   5    -50.7497535 -0.177518E-07  0.183E-03    9.31      10.7  T
   6    -50.7497535 -0.189361E-08  0.863E-04    9.31      22.7  T
speedup  1.11
cpu  time for SCC    0.01 s
wall time for SCC    0.01 s
speedup  0.99
cpu  time for grad    0.01 s
wall time for grad    0.01 s
 E :    -50.45734098  G :  0.009851    pred/act E change: -0.462D-03 -0.405D-03
Maxdispl :   0.0582   ||displ|| :   0.1492   Lambda : -0.442D-03
Largest |displ|/coords:  0.0582 (   6)  0.0488 (   5)  0.0432 (  21)
................................................................................
.............................. CYCLE   16 ......................................
................................................................................
   1    -50.7533308 -0.507533E+02  0.129E-01    9.36       0.0  T
   2    -50.7533361 -0.529450E-05  0.973E-02    9.36       1.0  T
   3    -50.7533410 -0.482827E-05  0.138E-02    9.36       1.4  T
   4    -50.7533415 -0.582550E-06  0.494E-03    9.36       4.0  T
   5    -50.7533416 -0.289611E-07  0.163E-03    9.36      12.0  T
   6    -50.7533416 -0.206654E-08  0.846E-04    9.36      23.2  T
speedup  0.93
cpu  time for SCC    0.00 s
wall time for SCC    0.01 s
speedup  0.98
cpu  time for grad    0.01 s
wall time for grad    0.01 s
 E :    -50.45739651  G :  0.012858    pred/act E change: -0.413D-03 -0.555D-04
Maxdispl :   0.1138   ||displ|| :   0.1875   Lambda : -0.418D-03
Largest |displ|/coords:  0.1138 (   6)  0.0597 (   5)  0.0574 (   2)
................................................................................
.............................. CYCLE   17 ......................................
................................................................................
   1    -50.7512971 -0.507513E+02  0.114E-01    9.36       0.0  T
   2    -50.7513004 -0.334147E-05  0.860E-02    9.36       1.0  T
   3    -50.7513034 -0.296038E-05  0.952E-03    9.35       2.1  T
   4    -50.7513038 -0.420767E-06  0.433E-03    9.36       4.5  T
   5    -50.7513039 -0.287628E-07  0.132E-03    9.36      14.8  T
   6    -50.7513039 -0.163502E-08  0.747E-04    9.36      26.3  T
speedup  0.91
cpu  time for SCC    0.01 s
wall time for SCC    0.01 s
speedup  0.98
cpu  time for grad    0.01 s
wall time for grad    0.01 s
 E :    -50.45770151  G :  0.007839    pred/act E change: -0.226D-03 -0.305D-03
Maxdispl :   0.2257   ||displ|| :   0.3544   Lambda : -0.475D-03
Largest |displ|/coords:  0.2257 (   6)  0.1218 (   2)  0.1200 (   5)
................................................................................
.............................. CYCLE   18 ......................................
................................................................................
   1    -50.7494411 -0.507494E+02  0.170E-01    9.36       0.0  T
   2    -50.7494479 -0.683750E-05  0.129E-01    9.35       1.0  T
   3    -50.7494530 -0.503866E-05  0.151E-02    9.35       1.3  T
   4    -50.7494541 -0.110402E-05  0.611E-03    9.35       3.2  T
   5    -50.7494541 -0.492588E-07  0.187E-03    9.35      10.5  T
   6    -50.7494541 -0.302055E-08  0.108E-03    9.35      18.2  T
speedup  1.09
cpu  time for SCC    0.01 s
wall time for SCC    0.01 s
speedup  0.99
cpu  time for grad    0.01 s
wall time for grad    0.01 s
 E :    -50.45796666  G :  0.010331    pred/act E change: -0.216D-03 -0.265D-03
Maxdispl :   0.2423   ||displ|| :   0.3847   Lambda : -0.482D-03
Largest |displ|/coords:  0.2423 (   6)  0.1320 (   5)  0.1135 (   2)
................................................................................
.............................. CYCLE   19 ......................................
................................................................................
   1    -50.7491095 -0.507491E+02  0.188E-01    9.37       0.0  T
   2    -50.7491179 -0.839811E-05  0.142E-01    9.36       1.0  T
   3    -50.7491251 -0.725264E-05  0.148E-02    9.36       1.3  T
   4    -50.7491262 -0.111930E-05  0.520E-03    9.36       3.8  T
   5    -50.7491263 -0.423398E-07  0.206E-03    9.36       9.5  T
   6    -50.7491263 -0.343275E-08  0.108E-03    9.36      18.1  T
speedup  0.93
cpu  time for SCC    0.01 s
wall time for SCC    0.01 s
speedup  0.99
cpu  time for grad    0.01 s
wall time for grad    0.01 s
 E :    -50.45817075  G :  0.015927    pred/act E change: -0.267D-03 -0.204D-03
Maxdispl :   0.1916   ||displ|| :   0.3123   Lambda : -0.516D-03
Largest |displ|/coords:  0.1916 (   6)  0.0962 (   5)  0.0941 (   2)
................................................................................
.............................. CYCLE   20 ......................................
................................................................................
   1    -50.7464861 -0.507465E+02  0.166E-01    9.38       0.0  T
   2    -50.7464908 -0.465325E-05  0.125E-01    9.38       1.0  T
   3    -50.7464954 -0.463512E-05  0.117E-02    9.38       1.7  T
   4    -50.7464959 -0.461722E-06  0.390E-03    9.38       5.0  T
   5    -50.7464959 -0.149746E-07  0.175E-03    9.38      11.2  T
   6    -50.7464959 -0.351753E-08  0.718E-04    9.38      27.3  T
speedup  0.91
cpu  time for SCC    0.00 s
wall time for SCC    0.01 s
speedup  0.99
cpu  time for grad    0.01 s
wall time for grad    0.01 s
 E :    -50.45836441  G :  0.018410    pred/act E change: -0.277D-03 -0.194D-03
Maxdispl :   0.1247   ||displ|| :   0.2318   Lambda : -0.853D-03
Largest |displ|/coords:  0.1247 (  10)  0.0882 (   6)  0.0785 (  12)
................................................................................
.............................. CYCLE   21 ......................................
................................................................................
   1    -50.7541785 -0.507542E+02  0.141E-01    9.44       0.0  T
   2    -50.7541900 -0.114346E-04  0.106E-01    9.44       1.0  T
   3    -50.7541986 -0.862917E-05  0.207E-02    9.44       1.0  T
   4    -50.7541999 -0.131888E-05  0.666E-03    9.44       2.9  T
   5    -50.7542000 -0.765161E-07  0.210E-03    9.44       9.3  T
   6    -50.7542000 -0.383633E-08  0.113E-03    9.44      17.4  T
speedup  1.11
cpu  time for SCC    0.01 s
wall time for SCC    0.01 s
speedup  1.00
cpu  time for grad    0.01 s
wall time for grad    0.01 s
 E :    -50.45841198  G :  0.017063    pred/act E change: -0.283D-03 -0.476D-04
Maxdispl :   0.1284   ||displ|| :   0.2077   Lambda : -0.639D-03
Largest |displ|/coords:  0.1284 (   6)  0.0736 (  17)  0.0521 (   2)
................................................................................
.............................. CYCLE   22 ......................................
................................................................................
   1    -50.7491002 -0.507491E+02  0.163E-01    9.39       0.0  T
   2    -50.7491072 -0.698230E-05  0.124E-01    9.39       1.0  T
   3    -50.7491134 -0.620167E-05  0.139E-02    9.39       1.4  T
   4    -50.7491142 -0.848243E-06  0.504E-03    9.39       3.9  T
   5    -50.7491143 -0.388982E-07  0.163E-03    9.39      12.0  T
   6    -50.7491143 -0.200624E-08  0.868E-04    9.39      22.6  T
speedup  0.93
cpu  time for SCC    0.00 s
wall time for SCC    0.01 s
speedup  0.99
cpu  time for grad    0.01 s
wall time for grad    0.01 s
 E :    -50.45873762  G :  0.008347    pred/act E change: -0.449D-03 -0.326D-03
Maxdispl :   0.1540   ||displ|| :   0.2259   Lambda : -0.476D-03
Largest |displ|/coords:  0.1540 (   6)  0.0784 (  14)  0.0546 (  11)
................................................................................
.............................. CYCLE   23 ......................................
................................................................................
   1    -50.7490922 -0.507491E+02  0.193E-01    9.37       0.0  T
   2    -50.7491023 -0.100433E-04  0.146E-01    9.37       1.0  T
   3    -50.7491112 -0.898210E-05  0.176E-02    9.37       1.1  T
   4    -50.7491124 -0.119129E-05  0.624E-03    9.37       3.1  T
   5    -50.7491125 -0.537562E-07  0.209E-03    9.37       9.4  T
   6    -50.7491125 -0.234800E-08  0.106E-03    9.37      18.5  T
speedup  0.89
cpu  time for SCC    0.00 s
wall time for SCC    0.01 s
speedup  0.98
cpu  time for grad    0.01 s
wall time for grad    0.01 s
 E :    -50.45868047  G :  0.017398    pred/act E change: -0.333D-03  0.571D-04
Maxdispl :   0.0657   ||displ|| :   0.1426   Lambda : -0.538D-03
Largest |displ|/coords:  0.0657 (   6)  0.0542 (   2)  0.0448 (  10)
................................................................................
.............................. CYCLE   24 ......................................
................................................................................
   1    -50.7498597 -0.507499E+02  0.125E-01    9.38       0.0  T
   2    -50.7498639 -0.423373E-05  0.948E-02    9.38       1.0  T
   3    -50.7498681 -0.416490E-05  0.107E-02    9.38       1.8  T
   4    -50.7498685 -0.439402E-06  0.361E-03    9.38       5.4  T
   5    -50.7498685 -0.190663E-07  0.127E-03    9.38      15.5  T
   6    -50.7498685 -0.123313E-08  0.656E-04    9.38      29.9  T
speedup  1.11
cpu  time for SCC    0.01 s
wall time for SCC    0.01 s
speedup  0.99
cpu  time for grad    0.01 s
wall time for grad    0.01 s
 E :    -50.45897658  G :  0.007742    pred/act E change: -0.250D-03 -0.296D-03
Maxdispl :   0.1175   ||displ|| :   0.2080   Lambda : -0.270D-03
Largest |displ|/coords:  0.1175 (   1)  0.1080 (   6)  0.0692 (  17)
................................................................................
.............................. CYCLE   25 ......................................
................................................................................
   1    -50.7502475 -0.507502E+02  0.823E-02    9.42       0.0  T
   2    -50.7502504 -0.284662E-05  0.606E-02    9.42       1.0  T
   3    -50.7502515 -0.113907E-05  0.123E-02    9.42       1.6  T
   4    -50.7502519 -0.410280E-06  0.319E-03    9.42       6.1  T
   5    -50.7502519 -0.170770E-07  0.917E-04    9.42      21.4  T
   6    -50.7502519 -0.910113E-09  0.549E-04    9.42      35.7  T
speedup  0.91
cpu  time for SCC    0.00 s
wall time for SCC    0.01 s
speedup  0.98
cpu  time for grad    0.01 s
wall time for grad    0.01 s
 E :    -50.45904599  G :  0.007363    pred/act E change: -0.274D-03 -0.694D-04
Maxdispl :   0.1584   ||displ|| :   0.2223   Lambda : -0.231D-03
Largest |displ|/coords:  0.1584 (   6)  0.0819 (   2)  0.0639 (   9)

generating ANC from model Hessian ...
 Shifting diagonal of input Hessian by   5.232531080079989E-003
 Lowest  eigenvalues of input Hessian
    0.005000   -0.000000   -0.000000   -0.000000    0.000000    0.000000
    0.000000    0.005287    0.005499    0.005709    0.005863    0.006040
    0.006197    0.006567    0.006715    0.008451    0.008930    0.009247
 Highest eigenvalues
    1.407758    1.416004    1.479825    2.812463    3.401397    3.482329
 
cpu  time for ANC gen    0.01 s
wall time for ANC gen    0.01 s
................................................................................
.............................. CYCLE   26 ......................................
................................................................................
   1    -50.7501249 -0.507501E+02  0.104E-01    9.39       0.0  T
   2    -50.7501268 -0.189022E-05  0.785E-02    9.40       1.0  T
   3    -50.7501283 -0.156658E-05  0.789E-03    9.40       2.5  T
   4    -50.7501286 -0.267581E-06  0.287E-03    9.40       6.8  T
   5    -50.7501286 -0.100714E-07  0.986E-04    9.40      19.9  T
   6    -50.7501286 -0.133101E-08  0.526E-04    9.40      37.3  T
speedup  0.94
cpu  time for SCC    0.00 s
wall time for SCC    0.01 s
speedup  0.96
cpu  time for grad    0.01 s
wall time for grad    0.01 s
 E :    -50.45922022  G :  0.005218    pred/act E change:  0.000D+00 -0.174D-03
Maxdispl :   0.0890   ||displ|| :   0.1536   Lambda : -0.260D-03
Largest |displ|/coords:  0.0890 (   7)  0.0509 (   6)  0.0438 (  20)
................................................................................
.............................. CYCLE   27 ......................................
................................................................................
   1    -50.7512632 -0.507513E+02  0.974E-02    9.41       0.0  T
   2    -50.7512656 -0.241693E-05  0.736E-02    9.41       1.0  T
   3    -50.7512676 -0.195026E-05  0.901E-03    9.41       2.2  T
   4    -50.7512679 -0.346443E-06  0.323E-03    9.41       6.1  T
   5    -50.7512679 -0.179738E-07  0.107E-03    9.41      18.3  T
   6    -50.7512679 -0.102064E-08  0.598E-04    9.41      32.8  T
speedup  0.91
cpu  time for SCC    0.00 s
wall time for SCC    0.01 s
speedup  0.98
cpu  time for grad    0.01 s
wall time for grad    0.01 s
 E :    -50.45937854  G :  0.004039    pred/act E change:  0.000D+00 -0.158D-03
Maxdispl :   0.0980   ||displ|| :   0.2033   Lambda : -0.219D-03
Largest |displ|/coords:  0.0980 (   6)  0.0774 (   7)  0.0704 (  16)
................................................................................
.............................. CYCLE   28 ......................................
................................................................................
   1    -50.7526361 -0.507526E+02  0.107E-01    9.44       0.0  T
   2    -50.7526383 -0.220090E-05  0.809E-02    9.44       1.0  T
   3    -50.7526402 -0.192097E-05  0.797E-03    9.44       2.5  T
   4    -50.7526405 -0.263347E-06  0.315E-03    9.44       6.2  T
   5    -50.7526405 -0.153065E-07  0.881E-04    9.44      22.3  T
   6    -50.7526405 -0.465313E-09  0.534E-04    9.44      36.7  T
speedup  0.94
cpu  time for SCC    0.00 s
wall time for SCC    0.01 s
speedup  1.00
cpu  time for grad    0.01 s
wall time for grad    0.01 s
 E :    -50.45949423  G :  0.004609    pred/act E change: -0.133D-03 -0.116D-03
Maxdispl :   0.0946   ||displ|| :   0.1990   Lambda : -0.152D-03
Largest |displ|/coords:  0.0946 (   6)  0.0909 (   7)  0.0714 (   4)
................................................................................
.............................. CYCLE   29 ......................................
................................................................................
   1    -50.7528549 -0.507529E+02  0.111E-01    9.45       0.0  T
   2    -50.7528564 -0.142812E-05  0.841E-02    9.45       1.0  T
   3    -50.7528579 -0.149547E-05  0.559E-03    9.45       3.5  T
   4    -50.7528580 -0.126682E-06  0.227E-03    9.45       8.6  T
   5    -50.7528580 -0.413531E-08  0.802E-04    9.45      24.4  T
speedup  1.14
cpu  time for SCC    0.00 s
wall time for SCC    0.00 s
speedup  0.98
cpu  time for grad    0.01 s
wall time for grad    0.01 s
 E :    -50.45958281  G :  0.004545    pred/act E change: -0.114D-03 -0.886D-04
Maxdispl :   0.1221   ||displ|| :   0.2179   Lambda : -0.137D-03
Largest |displ|/coords:  0.1221 (   6)  0.0877 (   7)  0.0718 (   2)
................................................................................
.............................. CYCLE   30 ......................................
................................................................................
   1    -50.7515639 -0.507516E+02  0.129E-01    9.46       0.0  T
   2    -50.7515658 -0.186646E-05  0.977E-02    9.46       1.0  T
   3    -50.7515681 -0.234501E-05  0.623E-03    9.46       3.1  T
   4    -50.7515682 -0.854873E-07  0.229E-03    9.46       8.6  T
   5    -50.7515682 -0.396538E-08  0.952E-04    9.46      20.6  T
speedup  0.91
cpu  time for SCC    0.00 s
wall time for SCC    0.00 s
speedup  0.99
cpu  time for grad    0.01 s
wall time for grad    0.01 s
 E :    -50.45967046  G :  0.005835    pred/act E change: -0.792D-04 -0.877D-04
Maxdispl :   0.1415   ||displ|| :   0.3007   Lambda : -0.207D-03
Largest |displ|/coords:  0.1415 (   2)  0.1412 (   7)  0.1299 (   6)
................................................................................
.............................. CYCLE   31 ......................................
................................................................................
   1    -50.7499710 -0.507500E+02  0.143E-01    9.46       0.0  T
   2    -50.7499736 -0.258480E-05  0.108E-01    9.46       1.0  T
   3    -50.7499762 -0.259760E-05  0.871E-03    9.46       2.3  T
   4    -50.7499764 -0.270651E-06  0.357E-03    9.46       5.5  T
   5    -50.7499765 -0.123146E-07  0.112E-03    9.46      17.6  T
   6    -50.7499765 -0.119210E-08  0.541E-04    9.46      36.3  T
speedup  1.13
cpu  time for SCC    0.01 s
wall time for SCC    0.01 s
speedup  1.00
cpu  time for grad    0.01 s
wall time for grad    0.01 s
 E :    -50.45979071  G :  0.007864    pred/act E change: -0.720D-04 -0.120D-03
Maxdispl :   0.1327   ||displ|| :   0.2710   Lambda : -0.226D-03
Largest |displ|/coords:  0.1327 (   2)  0.1199 (   4)  0.1143 (   6)
................................................................................
.............................. CYCLE   32 ......................................
................................................................................
   1    -50.7499751 -0.507500E+02  0.131E-01    9.46       0.0  T
   2    -50.7499784 -0.329258E-05  0.989E-02    9.46       1.0  T
   3    -50.7499808 -0.249116E-05  0.111E-02    9.46       1.8  T
   4    -50.7499813 -0.466899E-06  0.411E-03    9.46       4.8  T
   5    -50.7499813 -0.210051E-07  0.114E-03    9.46      17.2  T
   6    -50.7499813 -0.821736E-09  0.680E-04    9.46      28.8  T
speedup  0.94
cpu  time for SCC    0.00 s
wall time for SCC    0.01 s
speedup  1.00
cpu  time for grad    0.01 s
wall time for grad    0.01 s
 E :    -50.45990661  G :  0.010485    pred/act E change: -0.113D-03 -0.116D-03
Maxdispl :   0.1544   ||displ|| :   0.3075   Lambda : -0.224D-03
Largest |displ|/coords:  0.1544 (   2)  0.1498 (   7)  0.1216 (   6)
................................................................................
.............................. CYCLE   33 ......................................
................................................................................
   1    -50.7489262 -0.507489E+02  0.143E-01    9.45       0.0  T
   2    -50.7489292 -0.304708E-05  0.108E-01    9.45       1.0  T
   3    -50.7489319 -0.264432E-05  0.102E-02    9.45       1.9  T
   4    -50.7489323 -0.385664E-06  0.403E-03    9.45       4.9  T
   5    -50.7489323 -0.180369E-07  0.128E-03    9.45      15.3  T
   6    -50.7489323 -0.167051E-08  0.747E-04    9.45      26.3  T
speedup  1.11
cpu  time for SCC    0.01 s
wall time for SCC    0.01 s
speedup  1.07
cpu  time for grad    0.01 s
wall time for grad    0.01 s
 E :    -50.46004991  G :  0.008317    pred/act E change: -0.121D-03 -0.143D-03
Maxdispl :   0.1532   ||displ|| :   0.2829   Lambda : -0.245D-03
Largest |displ|/coords:  0.1532 (   2)  0.0963 (   4)  0.0956 (   6)
................................................................................
.............................. CYCLE   34 ......................................
................................................................................
   1    -50.7501759 -0.507502E+02  0.134E-01    9.44       0.0  T
   2    -50.7501798 -0.387083E-05  0.101E-01    9.44       1.0  T
   3    -50.7501825 -0.275748E-05  0.127E-02    9.43       1.5  T
   4    -50.7501831 -0.587365E-06  0.471E-03    9.43       4.2  T
   5    -50.7501832 -0.211543E-07  0.120E-03    9.43      16.3  T
   6    -50.7501832 -0.192371E-08  0.709E-04    9.43      27.7  T
speedup  0.94
cpu  time for SCC    0.00 s
wall time for SCC    0.01 s
speedup  0.99
cpu  time for grad    0.01 s
wall time for grad    0.01 s
 E :    -50.46020154  G :  0.007047    pred/act E change: -0.123D-03 -0.152D-03
Maxdispl :   0.2132   ||displ|| :   0.4344   Lambda : -0.211D-03
Largest |displ|/coords:  0.2132 (   2)  0.1957 (   6)  0.1678 (   7)
................................................................................
.............................. CYCLE   35 ......................................
................................................................................
   1    -50.7472941 -0.507473E+02  0.214E-01    9.41       0.0  T
   2    -50.7473004 -0.628806E-05  0.161E-01    9.41       1.0  T
   3    -50.7473063 -0.583976E-05  0.157E-02    9.41       1.2  T
   4    -50.7473070 -0.679755E-06  0.631E-03    9.41       3.1  T
   5    -50.7473070 -0.386234E-07  0.166E-03    9.41      11.8  T
   6    -50.7473070 -0.239854E-08  0.101E-03    9.41      19.4  T
speedup  0.74
cpu  time for SCC    0.00 s
wall time for SCC    0.01 s
speedup  0.91
cpu  time for grad    0.01 s
wall time for grad    0.01 s
 E :    -50.46031057  G :  0.010916    pred/act E change: -0.132D-03 -0.109D-03
Maxdispl :   0.1077   ||displ|| :   0.2195   Lambda : -0.253D-03
Largest |displ|/coords:  0.1077 (   6)  0.0730 (   4)  0.0677 (   5)
................................................................................
.............................. CYCLE   36 ......................................
................................................................................
   1    -50.7512166 -0.507512E+02  0.132E-01    9.44       0.0  T
   2    -50.7512210 -0.440492E-05  0.989E-02    9.44       1.0  T
   3    -50.7512246 -0.362590E-05  0.153E-02    9.44       1.3  T
   4    -50.7512252 -0.544678E-06  0.563E-03    9.44       3.5  T
   5    -50.7512252 -0.364347E-07  0.144E-03    9.44      13.6  T
   6    -50.7512252 -0.184288E-08  0.910E-04    9.44      21.5  T
speedup  0.89
cpu  time for SCC    0.00 s
wall time for SCC    0.01 s
speedup  0.97
cpu  time for grad    0.01 s
wall time for grad    0.01 s
 E :    -50.46039587  G :  0.009125    pred/act E change: -0.125D-03 -0.853D-04
Maxdispl :   0.0826   ||displ|| :   0.1926   Lambda : -0.165D-03
Largest |displ|/coords:  0.0826 (   2)  0.0759 (   6)  0.0637 (   7)
................................................................................
.............................. CYCLE   37 ......................................
................................................................................
   1    -50.7513236 -0.507513E+02  0.101E-01    9.46       0.0  T
   2    -50.7513255 -0.188846E-05  0.758E-02    9.46       1.0  T
   3    -50.7513271 -0.159321E-05  0.872E-03    9.46       2.2  T
   4    -50.7513273 -0.233985E-06  0.312E-03    9.46       6.3  T
   5    -50.7513273 -0.102118E-07  0.959E-04    9.46      20.5  T
   6    -50.7513273 -0.892129E-09  0.553E-04    9.46      35.4  T
speedup  0.91
cpu  time for SCC    0.00 s
wall time for SCC    0.01 s
speedup  0.98
cpu  time for grad    0.01 s
wall time for grad    0.01 s
 E :    -50.46049374  G :  0.006010    pred/act E change: -0.132D-03 -0.979D-04
Maxdispl :   0.1235   ||displ|| :   0.2439   Lambda : -0.109D-03
Largest |displ|/coords:  0.1235 (   6)  0.0979 (   7)  0.0800 (   2)
................................................................................
.............................. CYCLE   38 ......................................
................................................................................
   1    -50.7500391 -0.507500E+02  0.110E-01    9.48       0.0  T
   2    -50.7500405 -0.137990E-05  0.826E-02    9.48       1.0  T
   3    -50.7500420 -0.152917E-05  0.736E-03    9.48       2.7  T
   4    -50.7500421 -0.107184E-06  0.235E-03    9.48       8.3  T
   5    -50.7500421 -0.753130E-08  0.921E-04    9.48      21.3  T
speedup  0.87
cpu  time for SCC    0.00 s
wall time for SCC    0.00 s
speedup  0.97
cpu  time for grad    0.01 s
wall time for grad    0.01 s
 E :    -50.46055676  G :  0.005840    pred/act E change: -0.855D-04 -0.630D-04
Maxdispl :   0.1051   ||displ|| :   0.1739   Lambda : -0.118D-03
Largest |displ|/coords:  0.1051 (   5)  0.0517 (  16)  0.0502 (   8)
................................................................................
.............................. CYCLE   39 ......................................
................................................................................
   1    -50.7531803 -0.507532E+02  0.934E-02    9.55       0.0  T
   2    -50.7531828 -0.252282E-05  0.700E-02    9.55       1.0  T
   3    -50.7531842 -0.137749E-05  0.983E-03    9.55       2.0  T
   4    -50.7531846 -0.412723E-06  0.365E-03    9.55       5.4  T
   5    -50.7531846 -0.185573E-07  0.874E-04    9.55      22.4  T
   6    -50.7531846 -0.504933E-09  0.521E-04    9.55      37.6  T
speedup  1.07
cpu  time for SCC    0.01 s
wall time for SCC    0.01 s
speedup  0.97
cpu  time for grad    0.01 s
wall time for grad    0.01 s
 E :    -50.46057511  G :  0.009889    pred/act E change: -0.577D-04 -0.183D-04
Maxdispl :   0.1249   ||displ|| :   0.2435   Lambda : -0.157D-03
Largest |displ|/coords:  0.1249 (   6)  0.0808 (   7)  0.0746 (  16)
................................................................................
.............................. CYCLE   40 ......................................
................................................................................
   1    -50.7529225 -0.507529E+02  0.111E-01    9.54       0.0  T
   2    -50.7529252 -0.270854E-05  0.838E-02    9.54       1.0  T
   3    -50.7529279 -0.267223E-05  0.106E-02    9.54       1.9  T
   4    -50.7529281 -0.270078E-06  0.403E-03    9.54       4.9  T
   5    -50.7529281 -0.183284E-07  0.113E-03    9.54      17.4  T
   6    -50.7529281 -0.122239E-08  0.672E-04    9.54      29.2  T
speedup  1.07
cpu  time for SCC    0.01 s
wall time for SCC    0.01 s
speedup  1.03
cpu  time for grad    0.01 s
wall time for grad    0.01 s
 E :    -50.46065760  G :  0.004932    pred/act E change: -0.610D-04 -0.825D-04
Maxdispl :   0.1002   ||displ|| :   0.2346   Lambda : -0.784D-04
Largest |displ|/coords:  0.1002 (   6)  0.0829 (   4)  0.0745 (  16)
................................................................................
.............................. CYCLE   41 ......................................
................................................................................
   1    -50.7510530 -0.507511E+02  0.108E-01    9.50       0.0  T
   2    -50.7510549 -0.182575E-05  0.814E-02    9.50       1.0  T
   3    -50.7510566 -0.174444E-05  0.857E-03    9.50       2.3  T
   4    -50.7510568 -0.181208E-06  0.321E-03    9.50       6.1  T
   5    -50.7510568 -0.104737E-07  0.791E-04    9.50      24.8  T
   6    -50.7510568 -0.532857E-09  0.484E-04    9.50      40.5  T
speedup  1.13
cpu  time for SCC    0.01 s
wall time for SCC    0.01 s
speedup  0.99
cpu  time for grad    0.01 s
wall time for grad    0.01 s
 E :    -50.46069269  G :  0.004413    pred/act E change: -0.831D-04 -0.351D-04
Maxdispl :   0.0636   ||displ|| :   0.1055   Lambda : -0.726D-04
Largest |displ|/coords:  0.0636 (   5)  0.0470 (   2)  0.0370 (   3)
................................................................................
.............................. CYCLE   42 ......................................
................................................................................
   1    -50.7525642 -0.507526E+02  0.583E-02    9.51       0.0  T
   2    -50.7525650 -0.738418E-06  0.439E-02    9.51       1.0  T
   3    -50.7525655 -0.537358E-06  0.462E-03    9.51       4.2  T
   4    -50.7525656 -0.111218E-06  0.226E-03    9.51       8.7  T
   5    -50.7525656 -0.728906E-08  0.591E-04    9.51      33.2  T
speedup  1.11
cpu  time for SCC    0.00 s
wall time for SCC    0.00 s
speedup  0.89
cpu  time for grad    0.01 s
wall time for grad    0.01 s
 E :    -50.46074060  G :  0.002993    pred/act E change: -0.414D-04 -0.479D-04
Maxdispl :   0.2831   ||displ|| :   0.4385   Lambda : -0.172D-03
Largest |displ|/coords:  0.2831 (   5)  0.1669 (   3)  0.1177 (  16)
................................................................................
.............................. CYCLE   43 ......................................
................................................................................
   1    -50.7504222 -0.507504E+02  0.251E-01    9.50       0.0  T
   2    -50.7504285 -0.631561E-05  0.189E-01    9.51       1.0  T
   3    -50.7504354 -0.690931E-05  0.130E-02    9.51       1.5  T
   4    -50.7504360 -0.582923E-06  0.721E-03    9.51       2.7  T
   5    -50.7504361 -0.417962E-07  0.190E-03    9.51      10.3  T
   6    -50.7504361 -0.425940E-08  0.106E-03    9.51      18.5  T
   7    -50.7504361 -0.176423E-08  0.186E-04    9.51     105.2  T
   8    -50.7504361 -0.872618E-10  0.633E-05    9.51     309.8  T
speedup  1.13
cpu  time for SCC    0.01 s
wall time for SCC    0.01 s
speedup  1.03
cpu  time for grad    0.02 s
wall time for grad    0.02 s
 E :    -50.46078780  G :  0.009989    pred/act E change: -0.367D-04 -0.472D-04
Maxdispl :   0.0594   ||displ|| :   0.1353   Lambda : -0.181D-03
Largest |displ|/coords:  0.0594 (   3)  0.0583 (   5)  0.0554 (   2)
................................................................................
.............................. CYCLE   44 ......................................
................................................................................
   1    -50.7521668 -0.507522E+02  0.962E-02    9.51       0.0  T
   2    -50.7521681 -0.129471E-05  0.727E-02    9.51       1.0  T
   3    -50.7521693 -0.116574E-05  0.635E-03    9.51       3.1  T
   4    -50.7521694 -0.136298E-06  0.160E-03    9.51      12.3  T
   5    -50.7521694 -0.209788E-08  0.785E-04    9.51      25.0  T
speedup  0.87
cpu  time for SCC    0.00 s
wall time for SCC    0.00 s
speedup  0.96
cpu  time for grad    0.01 s
wall time for grad    0.01 s
 E :    -50.46088112  G :  0.006748    pred/act E change: -0.102D-03 -0.933D-04
Maxdispl :   0.1107   ||displ|| :   0.2672   Lambda : -0.155D-03
Largest |displ|/coords:  0.1107 (   6)  0.0993 (   5)  0.0792 (   3)
................................................................................
.............................. CYCLE   45 ......................................
................................................................................
   1    -50.7513998 -0.507514E+02  0.149E-01    9.50       0.0  T
   2    -50.7514035 -0.371054E-05  0.114E-01    9.50       1.0  T
   3    -50.7514076 -0.412906E-05  0.893E-03    9.50       2.2  T
   4    -50.7514080 -0.320254E-06  0.433E-03    9.50       4.5  T
   5    -50.7514080 -0.178614E-07  0.117E-03    9.50      16.8  T
   6    -50.7514080 -0.113559E-08  0.618E-04    9.50      31.7  T
speedup  0.91
cpu  time for SCC    0.00 s
wall time for SCC    0.01 s
speedup  0.98
cpu  time for grad    0.01 s
wall time for grad    0.01 s
 E :    -50.46095061  G :  0.007312    pred/act E change: -0.919D-04 -0.695D-04
Maxdispl :   0.1228   ||displ|| :   0.2221   Lambda : -0.133D-03
Largest |displ|/coords:  0.1228 (   3)  0.1213 (   5)  0.0696 (   2)
................................................................................
.............................. CYCLE   46 ......................................
................................................................................
   1    -50.7510124 -0.507510E+02  0.132E-01    9.51       0.0  T
   2    -50.7510140 -0.166361E-05  0.997E-02    9.51       1.0  T
   3    -50.7510161 -0.208977E-05  0.649E-03    9.51       3.0  T
   4    -50.7510162 -0.941924E-07  0.322E-03    9.51       6.1  T
   5    -50.7510162 -0.835911E-08  0.974E-04    9.51      20.1  T
   6    -50.7510162 -0.138774E-08  0.561E-04    9.51      34.9  T
speedup  0.93
cpu  time for SCC    0.00 s
wall time for SCC    0.01 s
speedup  0.98
cpu  time for grad    0.01 s
wall time for grad    0.01 s
 E :    -50.46103983  G :  0.007410    pred/act E change: -0.832D-04 -0.892D-04
Maxdispl :   0.1754   ||displ|| :   0.2946   Lambda : -0.242D-03
Largest |displ|/coords:  0.1754 (   3)  0.1014 (   5)  0.0688 (   1)
................................................................................
.............................. CYCLE   47 ......................................
................................................................................
   1    -50.7523343 -0.507523E+02  0.146E-01    9.54       0.0  T
   2    -50.7523399 -0.564892E-05  0.110E-01    9.54       1.0  T
   3    -50.7523441 -0.417643E-05  0.134E-02    9.53       1.5  T
   4    -50.7523449 -0.824134E-06  0.646E-03    9.53       3.0  T
   5    -50.7523450 -0.585295E-07  0.172E-03    9.53      11.4  T
   6    -50.7523450 -0.318182E-08  0.104E-03    9.53      18.9  T
speedup  0.93
cpu  time for SCC    0.00 s
wall time for SCC    0.01 s
speedup  0.98
cpu  time for grad    0.01 s
wall time for grad    0.01 s
 E :    -50.46103548  G :  0.010790    pred/act E change: -0.699D-04  0.435D-05
Maxdispl :   0.0845   ||displ|| :   0.1659   Lambda : -0.264D-03
Largest |displ|/coords:  0.0845 (   2)  0.0802 (   3)  0.0760 (   5)
................................................................................
.............................. CYCLE   48 ......................................
................................................................................
   1    -50.7510378 -0.507510E+02  0.126E-01    9.53       0.0  T
   2    -50.7510401 -0.231012E-05  0.956E-02    9.53       1.0  T
   3    -50.7510422 -0.205788E-05  0.811E-03    9.53       2.4  T
   4    -50.7510424 -0.259254E-06  0.335E-03    9.53       5.9  T
   5    -50.7510424 -0.134871E-07  0.105E-03    9.53      18.7  T
   6    -50.7510424 -0.574346E-09  0.579E-04    9.53      33.9  T
speedup  0.93
cpu  time for SCC    0.00 s
wall time for SCC    0.01 s
speedup  0.98
cpu  time for grad    0.01 s
wall time for grad    0.01 s
 E :    -50.46115474  G :  0.008611    pred/act E change: -0.132D-03 -0.119D-03
Maxdispl :   0.0303   ||displ|| :   0.0793   Lambda : -0.155D-03
Largest |displ|/coords:  0.0303 (   5)  0.0286 (  17)  0.0235 (  26)
................................................................................
.............................. CYCLE   49 ......................................
................................................................................
   1    -50.7530365 -0.507530E+02  0.698E-02    9.52       0.0  T
   2    -50.7530389 -0.237290E-05  0.525E-02    9.52       1.0  T
   3    -50.7530408 -0.189399E-05  0.909E-03    9.53       2.2  T
   4    -50.7530411 -0.295462E-06  0.227E-03    9.53       8.7  T
   5    -50.7530411 -0.569974E-08  0.100E-03    9.53      19.5  T
speedup  0.87
cpu  time for SCC    0.00 s
wall time for SCC    0.00 s
speedup  0.94
cpu  time for grad    0.01 s
wall time for grad    0.01 s
 E :    -50.46116028  G :  0.010003    pred/act E change: -0.136D-03 -0.554D-05
Maxdispl :   0.1243   ||displ|| :   0.2353   Lambda : -0.152D-03
Largest |displ|/coords:  0.1243 (   5)  0.0961 (   3)  0.0678 (   4)
................................................................................
.............................. CYCLE   50 ......................................
................................................................................
   1    -50.7498879 -0.507499E+02  0.126E-01    9.51       0.0  T
   2    -50.7498906 -0.264413E-05  0.949E-02    9.51       1.0  T
   3    -50.7498931 -0.250397E-05  0.948E-03    9.51       2.1  T
   4    -50.7498934 -0.305563E-06  0.386E-03    9.51       5.1  T
   5    -50.7498934 -0.190909E-07  0.124E-03    9.51      15.8  T
   6    -50.7498934 -0.134391E-08  0.684E-04    9.51      28.7  T
speedup  0.91
cpu  time for SCC    0.00 s
wall time for SCC    0.01 s
speedup  0.97
cpu  time for grad    0.01 s
wall time for grad    0.01 s
 E :    -50.46122376  G :  0.009652    pred/act E change: -0.779D-04 -0.635D-04
Maxdispl :   0.0925   ||displ|| :   0.2438   Lambda : -0.391D-03
Largest |displ|/coords:  0.0925 (  16)  0.0816 (   4)  0.0713 (   6)
................................................................................
.............................. CYCLE   51 ......................................
................................................................................
   1    -50.7558707 -0.507559E+02  0.167E-01    9.56       0.0  T
   2    -50.7558890 -0.182654E-04  0.125E-01    9.56       1.0  T
   3    -50.7559021 -0.131852E-04  0.243E-02    9.56       1.0  T
   4    -50.7559045 -0.234618E-05  0.608E-03    9.56       3.2  T
   5    -50.7559045 -0.542840E-07  0.268E-03    9.56       7.3  T
   6    -50.7559046 -0.381652E-08  0.136E-03    9.56      14.4  T
speedup  0.91
cpu  time for SCC    0.00 s
wall time for SCC    0.01 s
speedup  0.98
cpu  time for grad    0.01 s
wall time for grad    0.01 s
 E :    -50.46067718  G :  0.030712    pred/act E change: -0.803D-04  0.547D-03
Maxdispl :   0.0668   ||displ|| :   0.1480   Lambda : -0.117D-02
Largest |displ|/coords:  0.0668 (   4)  0.0563 (  17)  0.0518 (  12)
................................................................................
.............................. CYCLE   52 ......................................
................................................................................
   1    -50.7528401 -0.507528E+02  0.156E-01    9.54       0.0  T
   2    -50.7528532 -0.131094E-04  0.117E-01    9.54       1.0  T
   3    -50.7528621 -0.886900E-05  0.205E-02    9.54       1.0  T
   4    -50.7528639 -0.182016E-05  0.499E-03    9.54       3.9  T
   5    -50.7528639 -0.380621E-07  0.210E-03    9.54       9.4  T
speedup  0.87
cpu  time for SCC    0.00 s
wall time for SCC    0.00 s
speedup  0.97
cpu  time for grad    0.01 s
wall time for grad    0.01 s
 E :    -50.46129102  G :  0.006920    pred/act E change: -0.207D-03 -0.614D-03
Maxdispl :   0.0848   ||displ|| :   0.2179   Lambda : -0.154D-03
Largest |displ|/coords:  0.0848 (   3)  0.0760 (   6)  0.0730 (   5)

generating ANC from model Hessian ...
 Shifting diagonal of input Hessian by   5.069874710993508E-003
 Lowest  eigenvalues of input Hessian
    0.005000   -0.000000   -0.000000   -0.000000   -0.000000   -0.000000
    0.000000    0.005150    0.005247    0.005543    0.005685    0.005707
    0.005867    0.005980    0.006825    0.007425    0.008318    0.008896
 Highest eigenvalues
    1.401551    1.426447    1.479069    2.857789    3.391495    3.493089
 
cpu  time for ANC gen    0.01 s
wall time for ANC gen    0.01 s
................................................................................
.............................. CYCLE   53 ......................................
................................................................................
   1    -50.7509450 -0.507509E+02  0.105E-01    9.51       0.0  T
   2    -50.7509486 -0.356736E-05  0.790E-02    9.51       1.0  T
   3    -50.7509520 -0.336370E-05  0.116E-02    9.51       1.7  T
   4    -50.7509523 -0.352810E-06  0.350E-03    9.51       5.6  T
   5    -50.7509523 -0.151324E-07  0.135E-03    9.51      14.5  T
   6    -50.7509523 -0.209741E-08  0.691E-04    9.51      28.4  T
   7    -50.7509523 -0.893948E-09  0.157E-04    9.51     124.9  T
speedup  0.94
cpu  time for SCC    0.01 s
wall time for SCC    0.01 s
speedup  1.01
cpu  time for grad    0.01 s
wall time for grad    0.01 s
 E :    -50.46127029  G :  0.010433    pred/act E change:  0.000D+00  0.207D-04
Maxdispl :   0.0649   ||displ|| :   0.1043   Lambda : -0.194D-03
Largest |displ|/coords:  0.0649 (   7)  0.0320 (   6)  0.0292 (   5)
................................................................................
.............................. CYCLE   54 ......................................
................................................................................
   1    -50.7520370 -0.507520E+02  0.137E-01    9.51       0.0  T
   2    -50.7520400 -0.306637E-05  0.104E-01    9.51       1.0  T
   3    -50.7520437 -0.363854E-05  0.713E-03    9.51       2.8  T
   4    -50.7520439 -0.183743E-06  0.253E-03    9.51       7.7  T
   5    -50.7520439 -0.564982E-08  0.105E-03    9.51      18.7  T
speedup  0.85
cpu  time for SCC    0.00 s
wall time for SCC    0.00 s
speedup  0.96
cpu  time for grad    0.01 s
wall time for grad    0.01 s
 E :    -50.46137684  G :  0.003124    pred/act E change:  0.000D+00 -0.107D-03
Maxdispl :   0.0891   ||displ|| :   0.1651   Lambda : -0.183D-03
Largest |displ|/coords:  0.0891 (   6)  0.0692 (   9)  0.0606 (   3)
................................................................................
.............................. CYCLE   55 ......................................
................................................................................
   1    -50.7534113 -0.507534E+02  0.199E-01    9.51       0.0  T
   2    -50.7534154 -0.415640E-05  0.151E-01    9.51       1.0  T
   3    -50.7534202 -0.479285E-05  0.950E-03    9.52       2.1  T
   4    -50.7534205 -0.281590E-06  0.426E-03    9.51       4.6  T
   5    -50.7534205 -0.123462E-07  0.133E-03    9.51      14.8  T
   6    -50.7534205 -0.872390E-09  0.456E-04    9.51      43.0  T
   7    -50.7534205 -0.872774E-09  0.119E-04    9.51     164.3  T
speedup  0.92
cpu  time for SCC    0.01 s
wall time for SCC    0.01 s
speedup  1.00
cpu  time for grad    0.01 s
wall time for grad    0.01 s
 E :    -50.46137133  G :  0.007171    pred/act E change: -0.980D-04  0.551D-05
Maxdispl :   0.0301   ||displ|| :   0.0646   Lambda : -0.136D-03
Largest |displ|/coords:  0.0301 (   9)  0.0283 (   7)  0.0182 (  14)
................................................................................
.............................. CYCLE   56 ......................................
................................................................................
   1    -50.7531289 -0.507531E+02  0.883E-02    9.52       0.0  T
   2    -50.7531301 -0.127591E-05  0.675E-02    9.52       1.0  T
   3    -50.7531316 -0.146826E-05  0.444E-03    9.52       4.4  T
   4    -50.7531317 -0.877289E-07  0.184E-03    9.52      10.7  T
   5    -50.7531317 -0.336402E-08  0.581E-04    9.52      33.8  T
speedup  1.11
cpu  time for SCC    0.00 s
wall time for SCC    0.00 s
speedup  1.04
cpu  time for grad    0.01 s
wall time for grad    0.01 s
 E :    -50.46145048  G :  0.004053    pred/act E change: -0.940D-04 -0.791D-04
Maxdispl :   0.0270   ||displ|| :   0.0657   Lambda : -0.418D-04
Largest |displ|/coords:  0.0270 (   2)  0.0254 (  11)  0.0247 (  15)
................................................................................
.............................. CYCLE   57 ......................................
................................................................................
   1    -50.7525307 -0.507525E+02  0.839E-02    9.52       0.0  T
   2    -50.7525317 -0.968273E-06  0.640E-02    9.52       1.0  T
   3    -50.7525329 -0.113801E-05  0.379E-03    9.52       5.2  T
   4    -50.7525329 -0.583188E-07  0.104E-03    9.52      18.8  T
   5    -50.7525329 -0.321712E-09  0.596E-04    9.52      32.9  T
speedup  0.89
cpu  time for SCC    0.00 s
wall time for SCC    0.00 s
speedup  0.97
cpu  time for grad    0.01 s
wall time for grad    0.01 s
 E :    -50.46147280  G :  0.003858    pred/act E change: -0.685D-04 -0.223D-04
Maxdispl :   0.0848   ||displ|| :   0.1589   Lambda : -0.792D-04
Largest |displ|/coords:  0.0848 (   6)  0.0586 (   3)  0.0569 (   2)
................................................................................
.............................. CYCLE   58 ......................................
................................................................................
   1    -50.7518492 -0.507518E+02  0.131E-01    9.51       0.0  T
   2    -50.7518505 -0.134881E-05  0.988E-02    9.51       1.0  T
   3    -50.7518518 -0.132100E-05  0.580E-03    9.51       3.4  T
   4    -50.7518520 -0.141882E-06  0.260E-03    9.52       7.5  T
   5    -50.7518520 -0.828195E-08  0.938E-04    9.52      20.9  T
   6    -50.7518520 -0.725315E-09  0.455E-04    9.52      43.1  T
speedup  0.93
cpu  time for SCC    0.00 s
wall time for SCC    0.01 s
speedup  0.94
cpu  time for grad    0.01 s
wall time for grad    0.01 s
 E :    -50.46151083  G :  0.005282    pred/act E change: -0.210D-04 -0.380D-04
Maxdispl :   0.0787   ||displ|| :   0.1742   Lambda : -0.779D-04
Largest |displ|/coords:  0.0787 (   3)  0.0764 (   7)  0.0730 (   6)
................................................................................
.............................. CYCLE   59 ......................................
................................................................................
   1    -50.7510108 -0.507510E+02  0.157E-01    9.51       0.0  T
   2    -50.7510131 -0.229545E-05  0.118E-01    9.51       1.0  T
   3    -50.7510156 -0.250747E-05  0.702E-03    9.51       2.8  T
   4    -50.7510157 -0.181163E-06  0.276E-03    9.51       7.1  T
   5    -50.7510157 -0.450536E-08  0.118E-03    9.51      16.7  T
speedup  1.11
cpu  time for SCC    0.00 s
wall time for SCC    0.00 s
speedup  0.98
cpu  time for grad    0.01 s
wall time for grad    0.01 s
 E :    -50.46155365  G :  0.007104    pred/act E change: -0.406D-04 -0.428D-04
Maxdispl :   0.0919   ||displ|| :   0.1819   Lambda : -0.136D-03
Largest |displ|/coords:  0.0919 (   3)  0.0866 (   4)  0.0792 (   6)
................................................................................
.............................. CYCLE   60 ......................................
................................................................................
   1    -50.7533338 -0.507533E+02  0.108E-01    9.51       0.0  T
   2    -50.7533361 -0.223908E-05  0.813E-02    9.51       1.0  T
   3    -50.7533379 -0.181224E-05  0.821E-03    9.52       2.4  T
   4    -50.7533382 -0.300270E-06  0.324E-03    9.52       6.1  T
   5    -50.7533382 -0.144156E-07  0.107E-03    9.52      18.4  T
   6    -50.7533382 -0.855870E-09  0.562E-04    9.52      34.9  T
speedup  0.93
cpu  time for SCC    0.00 s
wall time for SCC    0.01 s
speedup  0.98
cpu  time for grad    0.01 s
wall time for grad    0.01 s
 E :    -50.46158087  G :  0.006631    pred/act E change: -0.401D-04 -0.272D-04
Maxdispl :   0.1456   ||displ|| :   0.2498   Lambda : -0.155D-03
Largest |displ|/coords:  0.1456 (   6)  0.0924 (  11)  0.0818 (   3)
................................................................................
.............................. CYCLE   61 ......................................
................................................................................
   1    -50.7509537 -0.507510E+02  0.231E-01    9.51       0.0  T
   2    -50.7509648 -0.111423E-04  0.174E-01    9.51       1.0  T
   3    -50.7509731 -0.830935E-05  0.178E-02    9.51       1.1  T
   4    -50.7509747 -0.161172E-05  0.438E-03    9.51       4.5  T
   5    -50.7509748 -0.203283E-07  0.236E-03    9.51       8.3  T
   6    -50.7509748 -0.549826E-08  0.901E-04    9.51      21.8  T
speedup  0.91
cpu  time for SCC    0.00 s
wall time for SCC    0.01 s
speedup  0.97
cpu  time for grad    0.01 s
wall time for grad    0.01 s
 E :    -50.46153756  G :  0.014310    pred/act E change: -0.703D-04  0.433D-04
Maxdispl :   0.0625   ||displ|| :   0.1212   Lambda : -0.323D-03
Largest |displ|/coords:  0.0625 (   6)  0.0524 (  12)  0.0465 (  15)
................................................................................
.............................. CYCLE   62 ......................................
................................................................................
   1    -50.7524182 -0.507524E+02  0.144E-01    9.51       0.0  T
   2    -50.7524253 -0.711637E-05  0.109E-01    9.51       1.0  T
   3    -50.7524301 -0.484655E-05  0.150E-02    9.51       1.3  T
   4    -50.7524312 -0.104278E-05  0.350E-03    9.51       5.6  T
   5    -50.7524312 -0.246210E-07  0.149E-03    9.51      13.2  T
   6    -50.7524312 -0.101096E-08  0.781E-04    9.51      25.1  T
speedup  1.07
cpu  time for SCC    0.01 s
wall time for SCC    0.01 s
speedup  1.04
cpu  time for grad    0.01 s
wall time for grad    0.01 s
 E :    -50.46164454  G :  0.004534    pred/act E change: -0.823D-04 -0.107D-03
Maxdispl :   0.0350   ||displ|| :   0.0648   Lambda : -0.474D-04
Largest |displ|/coords:  0.0350 (   6)  0.0245 (   4)  0.0233 (   8)
................................................................................
.............................. CYCLE   63 ......................................
................................................................................
   1    -50.7530636 -0.507531E+02  0.440E-02    9.51       0.0  T
   2    -50.7530642 -0.580082E-06  0.333E-02    9.51       1.0  T
   3    -50.7530647 -0.517700E-06  0.432E-03    9.51       4.5  T
   4    -50.7530648 -0.705567E-07  0.137E-03    9.51      14.3  T
   5    -50.7530648 -0.282879E-08  0.513E-04    9.51      38.2  T
speedup  1.09
cpu  time for SCC    0.00 s
wall time for SCC    0.00 s
speedup  1.05
cpu  time for grad    0.01 s
wall time for grad    0.01 s
 E :    -50.46166590  G :  0.001836    pred/act E change: -0.164D-03 -0.214D-04
Maxdispl :   0.1025   ||displ|| :   0.1958   Lambda : -0.385D-04
Largest |displ|/coords:  0.1025 (   6)  0.0850 (   3)  0.0701 (   4)
................................................................................
.............................. CYCLE   64 ......................................
................................................................................
   1    -50.7515687 -0.507516E+02  0.138E-01    9.50       0.0  T
   2    -50.7515710 -0.230713E-05  0.104E-01    9.50       1.0  T
   3    -50.7515731 -0.212168E-05  0.767E-03    9.51       2.6  T
   4    -50.7515734 -0.266202E-06  0.261E-03    9.51       7.5  T
   5    -50.7515734 -0.672553E-08  0.114E-03    9.51      17.2  T
   6    -50.7515734 -0.103718E-08  0.503E-04    9.51      39.0  T
   7    -50.7515734 -0.537135E-09  0.903E-05    9.51     217.2  T
speedup  0.95
cpu  time for SCC    0.01 s
wall time for SCC    0.01 s
speedup  1.01
cpu  time for grad    0.01 s
wall time for grad    0.01 s
 E :    -50.46168869  G :  0.003728    pred/act E change: -0.238D-04 -0.228D-04
Maxdispl :   0.0613   ||displ|| :   0.1099   Lambda : -0.283D-04
Largest |displ|/coords:  0.0613 (   6)  0.0395 (   3)  0.0360 (   4)
................................................................................
.............................. CYCLE   65 ......................................
................................................................................
   1    -50.7520584 -0.507521E+02  0.687E-02    9.51       0.0  T
   2    -50.7520590 -0.640923E-06  0.519E-02    9.51       1.0  T
   3    -50.7520596 -0.571322E-06  0.421E-03    9.51       4.7  T
   4    -50.7520597 -0.763668E-07  0.126E-03    9.51      15.6  T
   5    -50.7520597 -0.194415E-08  0.573E-04    9.51      34.2  T
   6    -50.7520597 -0.249059E-09  0.254E-04    9.51      77.2  T
speedup  0.93
cpu  time for SCC    0.00 s
wall time for SCC    0.01 s
speedup  1.01
cpu  time for grad    0.01 s
wall time for grad    0.01 s
 E :    -50.46170494  G :  0.004202    pred/act E change: -0.200D-04 -0.162D-04
Maxdispl :   0.0782   ||displ|| :   0.1288   Lambda : -0.314D-04
[...]
................................................................................
   1    -50.7588384 -0.507588E+02  0.872E-03    9.50       0.0  T
   2    -50.7588384 -0.929853E-08  0.653E-03    9.50       3.0  T
   3    -50.7588384 -0.826493E-08  0.736E-04    9.50      26.7  T
   4    -50.7588384 -0.110552E-08  0.236E-04    9.50      83.1  T
speedup  0.83
cpu  time for SCC    0.00 s
wall time for SCC    0.00 s
speedup  0.98
cpu  time for grad    0.01 s
wall time for grad    0.01 s
 E :    -50.47166714  G :  0.000303    pred/act E change: -0.291D-06 -0.454D-06
Maxdispl :   0.0157   ||displ|| :   0.0195   Lambda : -0.545D-06
Largest |displ|/coords:  0.0157 (   1)  0.0073 (   5)  0.0050 (   8)
................................................................................
.............................. CYCLE  140 ......................................
................................................................................
   1    -50.7588409 -0.507588E+02  0.946E-03    9.51       0.0  T
   2    -50.7588409 -0.100280E-07  0.707E-03    9.51       2.8  T
   3    -50.7588409 -0.855538E-08  0.790E-04    9.51      24.8  T
   4    -50.7588409 -0.124660E-08  0.269E-04    9.51      73.0  T
speedup  1.08
cpu  time for SCC    0.00 s
wall time for SCC    0.00 s
speedup  1.05
cpu  time for grad    0.01 s
wall time for grad    0.01 s
 E :    -50.47166753  G :  0.000354    pred/act E change: -0.314D-06 -0.391D-06
Maxdispl :   0.0149   ||displ|| :   0.0187   Lambda : -0.502D-06
Largest |displ|/coords:  0.0149 (   1)  0.0073 (   5)  0.0050 (   8)
................................................................................
.............................. CYCLE  141 ......................................
................................................................................
   1    -50.7588645 -0.507589E+02  0.881E-03    9.51       0.0  T
   2    -50.7588645 -0.842839E-08  0.660E-03    9.51       3.0  T
   3    -50.7588645 -0.825425E-08  0.704E-04    9.51      27.9  T
   4    -50.7588645 -0.828301E-09  0.239E-04    9.51      81.9  T
speedup  1.05
cpu  time for SCC    0.00 s
wall time for SCC    0.00 s
speedup  0.96
cpu  time for grad    0.01 s
wall time for grad    0.01 s
 E :    -50.47166788  G :  0.000328    pred/act E change: -0.273D-06 -0.353D-06
Maxdispl :   0.0160   ||displ|| :   0.0194   Lambda : -0.424D-06
Largest |displ|/coords:  0.0160 (   1)  0.0054 (   5)  0.0036 (   3)
................................................................................
.............................. CYCLE  142 ......................................
................................................................................
   1    -50.7588252 -0.507588E+02  0.872E-03    9.50       0.0  T
   2    -50.7588252 -0.906936E-08  0.656E-03    9.51       3.0  T
   3    -50.7588253 -0.838278E-08  0.616E-04    9.51      31.9  T
   4    -50.7588253 -0.110734E-08  0.255E-04    9.51      76.9  T
speedup  1.08
cpu  time for SCC    0.00 s
wall time for SCC    0.00 s
speedup  1.04
cpu  time for grad    0.01 s
wall time for grad    0.01 s
 E :    -50.47166818  G :  0.000311    pred/act E change: -0.251D-06 -0.298D-06
Maxdispl :   0.0101   ||displ|| :   0.0120   Lambda : -0.311D-06
Largest |displ|/coords:  0.0101 (   1)  0.0026 (   6)  0.0024 (   5)
................................................................................
.............................. CYCLE  143 ......................................
................................................................................
   1    -50.7588288 -0.507588E+02  0.548E-03    9.50       0.0  T
   2    -50.7588288 -0.569263E-08  0.413E-03    9.50       4.7  T
   3    -50.7588288 -0.363925E-08  0.501E-04    9.50      39.1  T
   4    -50.7588288 -0.999890E-09  0.152E-04    9.50     128.7  T
speedup  1.08
cpu  time for SCC    0.00 s
wall time for SCC    0.00 s
speedup  1.04
cpu  time for grad    0.01 s
wall time for grad    0.01 s
 E :    -50.47166841  G :  0.000248    pred/act E change: -0.212D-06 -0.223D-06
Maxdispl :   0.0110   ||displ|| :   0.0130   Lambda : -0.257D-06
Largest |displ|/coords:  0.0110 (   1)  0.0033 (   3)  0.0023 (   6)
................................................................................
.............................. CYCLE  144 ......................................
................................................................................
   1    -50.7587965 -0.507588E+02  0.595E-03    9.50       0.0  T
   2    -50.7587965 -0.552912E-08  0.447E-03    9.50       4.4  T
   3    -50.7587965 -0.445548E-08  0.532E-04    9.50      36.8  T
   4    -50.7587965 -0.784262E-09  0.170E-04    9.50     115.6  T
speedup  1.00
cpu  time for SCC    0.00 s
wall time for SCC    0.00 s
speedup  0.94
cpu  time for grad    0.01 s
wall time for grad    0.01 s
 E :    -50.47166859  G :  0.000253    pred/act E change: -0.155D-06 -0.186D-06
Maxdispl :   0.0082   ||displ|| :   0.0100   Lambda : -0.226D-06
Largest |displ|/coords:  0.0082 (   1)  0.0023 (   6)  0.0018 (  37)
................................................................................
.............................. CYCLE  145 ......................................
................................................................................
   1    -50.7588072 -0.507588E+02  0.506E-03    9.50       0.0  T
   2    -50.7588072 -0.358469E-08  0.379E-03    9.50       5.2  T
   3    -50.7588072 -0.331537E-08  0.482E-04    9.50      40.7  T
   4    -50.7588072 -0.385818E-09  0.152E-04    9.50     129.3  T
speedup  0.81
cpu  time for SCC    0.00 s
wall time for SCC    0.00 s
speedup  0.96
cpu  time for grad    0.01 s
wall time for grad    0.01 s
 E :    -50.47166876  G :  0.000245    pred/act E change: -0.129D-06 -0.165D-06
Maxdispl :   0.0113   ||displ|| :   0.0139   Lambda : -0.224D-06
Largest |displ|/coords:  0.0113 (   1)  0.0032 (   4)  0.0032 (   3)
................................................................................
.............................. CYCLE  146 ......................................
................................................................................
   1    -50.7587936 -0.507588E+02  0.684E-03    9.50       0.0  T
   2    -50.7587936 -0.554953E-08  0.514E-03    9.50       3.8  T
   3    -50.7587936 -0.598295E-08  0.533E-04    9.50      36.8  T
   4    -50.7587936 -0.463331E-09  0.194E-04    9.50     100.8  T
speedup  1.03
cpu  time for SCC    0.00 s
wall time for SCC    0.00 s
speedup  1.03
cpu  time for grad    0.01 s
wall time for grad    0.01 s
 E :    -50.47166892  G :  0.000251    pred/act E change: -0.113D-06 -0.160D-06
Maxdispl :   0.0072   ||displ|| :   0.0096   Lambda : -0.164D-06
Largest |displ|/coords:  0.0072 (   1)  0.0029 (   5)  0.0026 (   4)

generating ANC from model Hessian ...
 Shifting diagonal of input Hessian by   5.176992685690311E-003
 Lowest  eigenvalues of input Hessian
    0.005000   -0.000000   -0.000000   -0.000000    0.000000    0.000000
    0.000000    0.005360    0.005653    0.006020    0.006349    0.006578
    0.007516    0.008211    0.008630    0.008903    0.009621    0.010410
 Highest eigenvalues
    1.387095    1.396811    1.490336    2.717767    3.411399    3.601169
 
cpu  time for ANC gen    0.02 s
wall time for ANC gen    0.02 s
................................................................................
.............................. CYCLE  147 ......................................
................................................................................
   1    -50.7588119 -0.507588E+02  0.511E-03    9.50       0.0  T
   2    -50.7588119 -0.377332E-08  0.384E-03    9.50       5.1  T
   3    -50.7588119 -0.372109E-08  0.428E-04    9.50      45.8  T
   4    -50.7588119 -0.378741E-09  0.149E-04    9.50     131.4  T
speedup  1.08
cpu  time for SCC    0.00 s
wall time for SCC    0.00 s
speedup  1.04
cpu  time for grad    0.01 s
wall time for grad    0.01 s
 E :    -50.47166903  G :  0.000170    pred/act E change:  0.000D+00 -0.116D-06
Maxdispl :   0.0011   ||displ|| :   0.0022   Lambda : -0.830D-07
Largest |displ|/coords:  0.0011 (   3)  0.0010 (   4)  0.0008 (   6)
................................................................................
.............................. CYCLE  148 ......................................
................................................................................
   1    -50.7588172 -0.507588E+02  0.169E-03    9.50       0.0  T
   2    -50.7588172 -0.710905E-09  0.128E-03    9.50      15.3  T
   3    -50.7588172 -0.783835E-09  0.170E-04    9.50     115.6  T
   4    -50.7588172 -0.637641E-10  0.590E-05    9.50     332.2  T
speedup  1.05
cpu  time for SCC    0.00 s
wall time for SCC    0.00 s
speedup  0.96
cpu  time for grad    0.01 s
wall time for grad    0.01 s
 E :    -50.47166909  G :  0.000092    pred/act E change:  0.000D+00 -0.525D-07
Maxdispl :   0.0011   ||displ|| :   0.0027   Lambda : -0.585D-07
Largest |displ|/coords:  0.0011 (   3)  0.0011 (   4)  0.0009 (  10)

   *** GEOMETRY OPTIMIZATION CONVERGED AFTER 148 ITERATIONS ***

------------------------------------------------------------------------
 total energy gain (kcal):     -0.0000
------------------------------------------------------------------------
================
 final structure:
================
$coord
        1.05197025882626        0.72277570644499        1.20478933027297      S 
        3.37883012379613       -0.96193384153776        1.86942415125753      O 
       -0.81866078012177       -0.96993444414461        0.04963743919234      O 
        0.09726947971081        1.90840370722348        3.46555707046414      O 
        2.02097718928152        2.53336129228519       -0.64756185852445      O 
       -2.76106886222019       -1.92639000413224        4.86399091343828      O 
       -3.17333424956840       -2.47728666662000        3.18027926459596      H 
       -1.96363243406403       -0.27429250517357        4.61404215315756      H 
        2.19704249493955       -3.41137728243249       -3.07249834558495      O 
        0.94148180204197       -2.83165850081325       -1.83533680401304      H 
        3.75801901527248       -3.48320166019475       -2.15031935116793      H 
       -2.46277161242804        4.94357588725943       -0.33644013339010      O 
       -2.89929095789984        4.82481639706876        1.42085993967061      H 
       -0.69535476879639        4.45625879308973       -0.40841362675837      H 
       -3.68830577781841        1.14460324934868       -3.56633878349614      O 
       -3.10799868824970        0.02419519452385       -2.22116550833070      H 
       -3.76379987270175        2.79006388714602       -2.73636254852129      H 
        1.84622470890861       -3.63732471728749        5.65317763384303      O 
        0.00708364612146       -3.29074349947544        5.53580023051108      H 
        2.90432144174694       -2.07449115040914        3.32745379767298      H 
        2.40205311014986       -2.86069013300473        7.19508577982062      H 
        0.97016896242120        0.98632356313208       -5.17569496374926      N 
        1.61684056368327        1.82864166618313       -6.76957232440192      H 
       -1.04396591191438        1.07158498702453       -4.97485136504325      H 
        1.54660224133040       -0.89474989393185       -4.99274646701005      H 
        1.63929887753175        1.85946989284518       -3.49279564279949      H 
$end
 
 Bond Distances (Angstroems)
 ---------------------------
S1-O2=1.5603         S1-O3=1.4683         S1-O4=1.4423         S1-O5=1.4635         O2-S1=1.5603         O2-H20=1.0025        
O3-S1=1.4683         O4-S1=1.4423         O5-S1=1.4635         O6-H7=0.9625         O6-H8=0.9797         H7-O6=0.9625         
H8-O6=0.9797         O9-H10=0.9819        O9-H11=0.9602        H10-O9=0.9819        H11-O9=0.9602        O12-H13=0.9602       
O12-H14=0.9709       H13-O12=0.9602       H14-O12=0.9709       O15-H16=0.9760       O15-H17=0.9761       H16-O15=0.9760       
H17-O15=0.9761       O18-H19=0.9923       O18-H21=0.9598       H19-O18=0.9923       H20-O2=1.0025        H21-O18=0.9598       
N22-H23=1.0135       N22-H24=1.0721       N22-H25=1.0456       N22-H26=1.0639       H23-N22=1.0135       H24-N22=1.0721       
H25-N22=1.0456       H26-N22=1.0639       
 N  H  Rav=1.0488 sigma=0.0225  Rmin=1.0135  Rmax=1.0721     4
 O  H  Rav=0.9747 sigma=0.0134  Rmin=0.9598  Rmax=1.0025    11
 S  O  Rav=1.4836 sigma=0.0454  Rmin=1.4423  Rmax=1.5603     4
 
 selected bond angles (degree)
 --------------------
O3-S1-O2=106.10                O4-S1-O2=109.76                O4-S1-O3=112.00                O5-S1-O2=104.39                
O5-S1-O3=110.90                O5-S1-O4=113.17                H20-O2-S1=108.14               H8-O6-H7=104.06                
H11-O9-H10=104.81              
 
 selected dihedral angles (degree)
 ---------------------------------
H20-O2-S1-O3=288.72           H20-O2-S1-O4= 49.91           H20-O2-S1-O5=171.50           
 
 CMA Distance (Angstroems)
 ---------------------------
R(CMA):  1.2795

========================================================================
 FINAL SINGLEPOINT CALCULATION ON OPTIMIZED GEOMETRY
========================================================================

 Ncao       : 65
 Nao        : 64
 Nshell     : 38
 Nel        : 80
 T(el)      :   300.0
 intcut     :    25.0
 scfconv/Eh :  0.100E-05
   qconv/e  :  0.100E-03
 intneglect :  0.100E-07
 broydamp   :      0.250
 iter      E             dE          RMSdq      gap      omega  full diag
   1    -50.7588172 -0.507588E+02  0.193E-05    9.50       0.0  T
   2    -50.7588172 -0.305533E-12  0.127E-05    9.50    1540.1  T
   3    -50.7588172 -0.191847E-12  0.279E-06    9.50    7027.2  T
speedup  1.07
cpu  time for SCC    0.00 s
wall time for SCC    0.00 s

   *** convergence criteria satisfied after 3 iterations ***

          eigenvalues
 #    :          28         29         30         31         32         33         34         35
 occ. :        2.000      2.000      2.000      2.000      2.000      2.000      2.000      2.000
 eps  :       -13.722    -13.278    -12.713    -12.530    -12.445    -12.412    -12.307    -12.251
 #    :          36         37         38         39         40         41         42         43
 occ. :        2.000      2.000      2.000      2.000      2.000      0.000      0.000      0.000
 eps  :       -12.203    -12.131    -12.010    -11.968    -11.906     -2.402     -0.966     -0.225
 #    :          44         45         46         47         48         49         50         51
 occ. :        0.000      0.000      0.000      0.000      0.000      0.000      0.000      0.000
 eps  :         0.731      1.072      1.544      1.989      2.775      3.684      3.891      5.117


   #   Z            q   n(s)   n(p)   n(d)      C6AA      α(0)
   1  16 S      1.732  1.584  1.751  0.934    88.050    15.793
   2   8 O     -0.647  1.765  4.882  0.000    26.320     6.926
   3   8 O     -0.793  1.780  5.013  0.000    31.370     7.509
   4   8 O     -0.747  1.773  4.974  0.000    30.017     7.346
   5   8 O     -0.753  1.769  4.984  0.000    30.196     7.368
   6   8 O     -0.608  1.745  4.863  0.000    25.383     6.800
   7   1 H      0.300  0.700  0.000  0.000     0.721     1.334
   8   1 H      0.318  0.682  0.000  0.000     0.671     1.287
   9   8 O     -0.611  1.741  4.870  0.000    25.452     6.809
  10   1 H      0.322  0.678  0.000  0.000     0.659     1.275
  11   1 H      0.296  0.704  0.000  0.000     0.734     1.346
  12   8 O     -0.611  1.735  4.876  0.000    25.443     6.808
  13   1 H      0.297  0.703  0.000  0.000     0.729     1.341
  14   1 H      0.305  0.695  0.000  0.000     0.707     1.320
  15   8 O     -0.606  1.751  4.854  0.000    25.320     6.791
  16   1 H      0.321  0.679  0.000  0.000     0.660     1.277
  17   1 H      0.326  0.674  0.000  0.000     0.649     1.265
  18   8 O     -0.610  1.755  4.855  0.000    25.429     6.806
  19   1 H      0.338  0.662  0.000  0.000     0.618     1.235
  20   1 H      0.379  0.621  0.000  0.000     0.522     1.134
  21   1 H      0.297  0.703  0.000  0.000     0.729     1.342
  22   7 N     -0.349  1.274  4.074  0.000    28.955     7.992
  23   1 H      0.230  0.770  0.000  0.000     0.965     1.539
  24   1 H      0.298  0.702  0.000  0.000     0.718     1.328
  25   1 H      0.284  0.716  0.000  0.000     0.764     1.370
  26   1 H      0.292  0.708  0.000  0.000     0.737     1.345

 Mol. C6AA /au·bohr⁶  :       5462.064371
 Mol. C8AA /au·bohr⁸  :     118091.798285
 Mol. α(0) /au        :        106.682958

 
 Wiberg/Mayer (AO) data. WBOs > 0.1 written file <wbo>
 largest (>0.05) Wiberg bond orders for each atom
           total WBO             WBO to atom ...
     1  S   4.800    O    4 1.335    O    5 1.252    O    3 1.231    O    2 0.942
     2  O   1.939    S    1 0.942    H   20 0.719    O    4 0.085    O    3 0.078    O    5 0.062
     3  O   1.677    S    1 1.231    O    4 0.106    O    5 0.103    O    2 0.078    H   10 0.061
     4  O   1.719    S    1 1.335    O    3 0.106    O    5 0.099    O    2 0.085    H    8 0.055
     5  O   1.746    S    1 1.252    H   26 0.110    O    3 0.103    O    4 0.099    O    2 0.062
     6  O   1.894    H    7 0.900    H    8 0.840    H   19 0.082
     7  H   0.910    O    6 0.900
     8  H   0.899    O    6 0.840    O    4 0.055
     9  O   1.885    H   11 0.906    H   10 0.831    H   25 0.074
    10  H   0.896    O    9 0.831    O    3 0.061
    11  H   0.913    O    9 0.906
    12  O   1.852    H   13 0.904    H   14 0.860
    13  H   0.912    O   12 0.904
    14  H   0.907    O   12 0.860
    15  O   1.942    H   16 0.852    H   17 0.852    H   24 0.129    N   22 0.063
    16  H   0.897    O   15 0.852
    17  H   0.894    O   15 0.852
    18  O   1.918    H   21 0.910    H   19 0.801    H   20 0.120
    19  H   0.886    O   18 0.801    O    6 0.082
    20  H   0.857    O    2 0.719    O   18 0.120
    21  H   0.912    O   18 0.910
    22  N   3.521    H   23 0.943    H   25 0.840    H   26 0.796    H   24 0.777    O   15 0.063
    23  H   0.947    N   22 0.943
    24  H   0.911    N   22 0.777    O   15 0.129
    25  H   0.920    N   22 0.840    O    9 0.074
    26  H   0.915    N   22 0.796    O    5 0.110
 MOs/occ written to file <molden.input>
 
molecular dipole:
                 x           y           z       tot (Debye)
 q only:        0.632      -0.051      -1.946
   full:        1.029       0.114      -1.176       3.982
molecular quadrupole (traceless):
                xx          xy          yy          xz          yz          zz
 q only:       -5.522      -0.513     -10.353      -3.543      -5.607      15.875
  q+dip:       -4.121       0.660     -11.087      -4.032      -4.079      15.208
   full:       -4.150       0.406     -11.336      -3.905      -4.206      15.485

SCC energy    :     -50.7588172
rep           :       0.2869061
ES            :       0.2634638
AES           :      -0.0784571
AXC           :      -0.0092049
disp          :      -0.0205820
XB            :       0.0000000
fix           :       0.0000000
total E       :     -50.4716691
atomizationE  :       5.0019732     3138.79
(atE without considering molecular charge,
 total energy contains solvation terms)
H-L gap (eV)  :          9.5038
optimized geometry written to: xtbopt.xyz


------------------------------------------------------------------------
 * finished run on 2019/09/16 at 11:20:51.878     
------------------------------------------------------------------------
 total:
 * wall-time:     0 d,  0 h,  0 min,  3.283 sec
 *  cpu-time:     0 d,  0 h,  0 min,  3.221 sec
 * ratio c/w:     0.981 speedup
 SCF:
 * wall-time:     0 d,  0 h,  0 min,  0.195 sec
 *  cpu-time:     0 d,  0 h,  0 min,  0.152 sec
 * ratio c/w:     0.779 speedup
 ANC optimizer:
 * wall-time:     0 d,  0 h,  0 min,  3.062 sec
 *  cpu-time:     0 d,  0 h,  0 min,  3.045 sec
 * ratio c/w:     0.994 speedup

