      -----------------------------------------------------------      
     |                   =====================                   |     
     |                           x T B                           |     
     |                   =====================                   |     
     |                         S. Grimme                         |     
     |          Mulliken Center for Theoretical Chemistry        |     
     |                    University of Bonn                     |     
     |                 Version 6.0.1 (SAW181210)                 |     
      -----------------------------------------------------------      

   This program is distributed in the hope that it will be useful,
   but WITHOUT ANY WARRANTY; without even the implied warranty of
   MERCHANTABILITY or FITNESS FOR A PARTICULAR PURPOSE.
   
   FOR NON-COMMERCIAL, ACADEMIA USE ONLY.
   
   Cite this work as:
   S. Grimme, C. Bannwarth, P. Shushkov, J. Comput. Theory Chem., 2017,
   13, 1989-2009.
   C. Bannwarth, S. Ehlert and S. Grimme., ChemRxiv, 2018, preprint.
   http://doi.org/10.26434/chemrxiv.7246238.v1
   
   for sTDA-xTB:
   S. Grimme and C. Bannwarth, J. Chem. Phys., 2016, 145, 054103.
   
   in the mass-spec context:
   V. Asgeirsson, C. Bauer and S. Grimme, Chem. Sci., 2017, 8, 4879.
   
   if GBSA is used:
   P. Shushkov, F. März and S. Grimme, unpublished.
   
   for ANC optimizer:
   S. Grimme, unpublished.
   Rational Function algorithm used in ANCopt:
   F. Eckert, P. Pulay, H.-J. Werner, J. Comput. Chem., 1997, 18, 1473.
   
   with help from (in alphabetical order)
   C. Bannwarth, F. Bohle, G. Brandenburg, E. Caldeweyher, M. Checinski,
   S. Dohm, S. Ehlert, S. Ehrlich, F. März, H. Neugebauer, J. Pisarek,
   P. Pracht, P. Shushkov, and S. Spicher.
   
 * started run on 2019/09/16 at 11:24:58.624     
========================================================================
 # omp threads = 1
========================================================================
number of atoms            : 26
number of electrons        : 80
charge                     : 0
spin                       : .0
first test random number   : .2487

########################################################################
# WARNING! Please study the warnings concerning your input carefully
#  - XTBPATH is not set, using XTBHOME instead
#  - the use of '-opt' is discouraged, please use '--opt' next time
#  - the use of '-chrg' is discouraged, please use '--chrg' next time
#  - the use of '-uhf' is discouraged, please use '--uhf' next time
########################################################################

           ------------------------------------------------- 
          |                 G F N 2 - x T B                 |
          | Geometry, Frequencies, Noncovalent interactions |
          |            JCTC 2018 parametrisation            |
           ------------------------------------------------- 
      method parameters     
 k(s)        :  1.8500
 k(p)        :  2.2300
 k(d)        :  2.2300
 k(f)        :  2.0000
 kEN (H0ij)  : -2.0000
 D4 a1       :  0.5200
 D4 a2       :  5.0000
 D4 s6       :  1.0000
 D4 s8       :  2.7000
 D4 s9       :  5.0000
 alphaj      :  2.0000


            Z     q(EN)     CN     RAES       Cart. coordinates
     1  S   6.0    0.68    4.08    3.83     0.36917     1.34684     0.13745
     2  O   6.0   -0.33    1.25    1.80    -1.72977     0.45504    -1.51400
     3  O   6.0   -0.31    1.20    1.80    -0.47349     1.31854     2.82395
     4  O   6.0   -0.34    1.28    1.80     2.59121    -0.35546    -0.16721
     5  O   6.0   -0.31    1.25    1.80     1.08871     3.96922    -0.59294
     6  O   6.0   -0.29    2.00    1.83     1.81456    -5.22245     1.02936
     7  H   1.0    0.15    0.97    1.43     2.82265    -5.46104     2.52651
     8  H   1.0    0.17    1.06    1.44     2.16629    -3.52342     0.47783
     9  O   6.0   -0.29    2.06    1.83     6.99077     0.27683    -2.43990
    10  H   1.0    0.15    0.97    1.43     7.65201    -1.22792    -3.22291
    11  H   1.0    0.17    1.05    1.44     5.45191    -0.24437    -1.61838
    12  O   6.0   -0.28    2.02    1.83    -3.06297    -4.36930    -0.16866
    13  H   1.0    0.16    1.02    1.43    -1.45428    -5.15232     0.16838
    14  H   1.0    0.17    1.02    1.43    -2.68165    -2.89763    -1.17036
    15  O   6.0   -0.29    2.01    1.83    -6.55289     1.91961    -1.21585
    16  H   1.0    0.17    1.05    1.44    -4.83100     1.46025    -1.58830
    17  H   1.0    0.15    0.97    1.43    -7.02821     3.10101    -2.51699
    18  O   6.0   -0.22    2.88    2.50     5.68328     4.91863    -1.67072
    19  H   1.0    0.14    1.06    1.44     6.38521     3.26703    -2.18970
    20  H   1.0    0.16    1.09    1.44     3.82716     4.85820    -1.46778
    21  H   1.0    0.12    0.96    1.42     6.53122     5.59129    -0.14755
    22  N   5.0   -0.14    3.95    2.74    -5.11198    -0.80571     2.90555
    23  H   1.0    0.08    0.99    1.43    -6.14216    -1.08826     4.53138
    24  H   1.0    0.10    1.04    1.43    -4.72060    -2.52282     2.07923
    25  H   1.0    0.10    1.04    1.43    -6.13931     0.28980     1.66908
    26  H   1.0    0.12    1.08    1.44    -3.44583     0.09842     3.34251

  Z AO/shell   Hii/eV     exponent
  1     Wed Apr 25 08:07:45 CEST 2018   EN: 2.200 GM2: 0.406  GM3: 0.0800  RAES: 1.40
     1s    -10.707211    1.230000
  7     Wed Apr 25 08:07:45 CEST 2018   EN: 3.040 GM2: 0.461  GM3:-0.0640  RAES: 1.90
     2s    -16.686243    2.339881
     2p    -12.523956    2.014332
  8     Wed Apr 25 08:07:45 CEST 2018   EN: 3.440 GM2: 0.452  GM3:-0.0517  RAES: 1.80
     2s    -20.229985    2.439742
     2p    -15.503117    2.137023
 16     Tue Apr 24 11:44:34 CEST 2018   EN: 2.580 GM2: 0.340  GM3:-0.0502  RAES: 3.10
     3s    -20.029654    1.981333
     3p    -11.377694    2.025643
     3d     -0.420282    1.702555
 no old-style atom pair restraining (fixing) potential

molecular fragmentation (1/2 indicates fragments):
11111222222222222222222222
# atoms in fragment 1/2:     5    21
 fragment masses (1/2) :       96.06      109.12
CMA distance (Bohr)    :   1.918
constraining FC (au)   :  0.0500
           ------------------------------------------------- 
          |        Self-Consistent Charge Iterations        |
           ------------------------------------------------- 

 Ncao       : 65
 Nao        : 64
 Nshell     : 38
 Nel        : 80
 T(el)      :   300.0
 intcut     :    25.0
 scfconv/Eh :  0.100E-05
   qconv/e  :  0.100E-03
 intneglect :  0.100E-07
 broydamp   :      0.250
 iter      E             dE          RMSdq      gap      omega  full diag
   1    -50.6114124 -0.506114E+02  0.697E+00   10.31       0.0  T
   2    -50.6527794 -0.413670E-01  0.501E+00    9.90       1.0  T
   3    -50.6877896 -0.350102E-01  0.109E+00    7.62       1.0  T
   4    -50.6918584 -0.406877E-02  0.548E-01    7.57       1.0  T
   5    -50.6927269 -0.868542E-03  0.225E-01    7.41       1.0  T
   6    -50.6929487 -0.221788E-03  0.123E-01    7.47       1.0  T
   7    -50.6930387 -0.899482E-04  0.449E-02    7.54       1.0  T
   8    -50.6930465 -0.784440E-05  0.280E-02    7.54       1.0  T
   9    -50.6930516 -0.506474E-05  0.787E-03    7.53       2.5  T
  10    -50.6930518 -0.236428E-06  0.189E-03    7.53      10.4  T
  11    -50.6930518 -0.195203E-07  0.845E-04    7.53      23.2  T
  12    -50.6930518 -0.365247E-08  0.323E-04    7.53      60.8  T
speedup  1.03
cpu  time for SCC    0.01 s
wall time for SCC    0.01 s

   *** convergence criteria satisfied after 12 iterations ***

          eigenvalues
 #    :          28         29         30         31         32         33         34         35
 occ. :        2.000      2.000      2.000      2.000      2.000      2.000      2.000      2.000
 eps  :       -12.109    -12.049    -11.434    -11.118    -10.913    -10.737    -10.584    -10.003
 #    :          36         37         38         39         40         41         42         43
 occ. :        2.000      2.000      2.000      2.000      2.000      0.000      0.000      0.000
 eps  :        -9.928     -9.848     -9.698     -9.502     -9.494     -1.966     -0.753      0.333
 #    :          44         45         46         47         48         49         50         51
 occ. :        0.000      0.000      0.000      0.000      0.000      0.000      0.000      0.000
 eps  :         1.902      2.380      2.666      2.837      2.888      3.137      4.572      5.920


   #   Z            q   n(s)   n(p)   n(d)      C6AA      α(0)
   1  16 S      1.511  1.601  1.890  0.997    93.186    16.247
   2   8 O     -0.792  1.782  5.010  0.000    31.349     7.507
   3   8 O     -0.781  1.780  5.001  0.000    31.006     7.466
   4   8 O     -0.803  1.778  5.025  0.000    31.686     7.547
   5   8 O     -0.787  1.773  5.014  0.000    31.203     7.489
   6   8 O     -0.617  1.743  4.873  0.000    25.587     6.827
   7   1 H      0.272  0.728  0.000  0.000     0.813     1.416
   8   1 H      0.326  0.674  0.000  0.000     0.647     1.263
   9   8 O     -0.629  1.727  4.903  0.000    25.892     6.868
  10   1 H      0.296  0.704  0.000  0.000     0.733     1.345
  11   1 H      0.343  0.657  0.000  0.000     0.604     1.221
  12   8 O     -0.638  1.741  4.897  0.000    26.115     6.897
  13   1 H      0.318  0.682  0.000  0.000     0.668     1.284
  14   1 H      0.317  0.683  0.000  0.000     0.671     1.286
  15   8 O     -0.626  1.733  4.893  0.000    25.820     6.858
  16   1 H      0.335  0.665  0.000  0.000     0.625     1.242
  17   1 H      0.279  0.721  0.000  0.000     0.789     1.395
  18   8 O     -0.395  1.641  4.754  0.000    20.703     6.145
  19   1 H      0.425  0.575  0.000  0.000     0.442     1.044
  20   1 H      0.424  0.576  0.000  0.000     0.443     1.046
  21   1 H      0.377  0.623  0.000  0.000     0.528     1.142
  22   7 N     -0.291  1.249  4.042  0.000    27.483     7.786
  23   1 H      0.228  0.772  0.000  0.000     0.972     1.544
  24   1 H      0.301  0.699  0.000  0.000     0.711     1.321
  25   1 H      0.300  0.700  0.000  0.000     0.713     1.323
  26   1 H      0.307  0.693  0.000  0.000     0.694     1.305

 Mol. C6AA /au·bohr⁶  :       5482.050439
 Mol. C8AA /au·bohr⁸  :     119197.173994
 Mol. α(0) /au        :        106.814492

 
 Wiberg/Mayer (AO) data. WBOs > 0.1 written file <wbo>
 largest (>0.05) Wiberg bond orders for each atom
           total WBO             WBO to atom ...
     1  S   5.000    O    3 1.262    O    2 1.246    O    5 1.228    O    4 1.219
     2  O   1.668    S    1 1.246    O    3 0.104    O    4 0.089    O    5 0.086    H   16 0.058
     3  O   1.676    S    1 1.262    O    2 0.104    O    4 0.091    O    5 0.089    H   26 0.084
     4  O   1.667    S    1 1.219    O    5 0.093    O    3 0.091    O    2 0.089    H   11 0.064    H    8 0.058
     5  O   1.692    S    1 1.228    H   20 0.138    O    4 0.093    O    3 0.089    O    2 0.086
     6  O   1.835    H    7 0.919    H    8 0.832
     7  H   0.926    O    6 0.919
     8  H   0.894    O    6 0.832    O    4 0.058
     9  O   1.855    H   10 0.897    H   11 0.813    H   19 0.084
    10  H   0.912    O    9 0.897
    11  H   0.882    O    9 0.813    O    4 0.064
    12  O   1.862    H   14 0.858    H   13 0.857    H   24 0.068
    13  H   0.899    O   12 0.857
    14  H   0.899    O   12 0.858
    15  O   1.828    H   17 0.910    H   16 0.826
    16  H   0.888    O   15 0.826    O    2 0.058
    17  H   0.922    O   15 0.910
    18  O   2.338    H   21 0.852    H   19 0.727    H   20 0.672
    19  H   0.820    O   18 0.727    O    9 0.084
    20  H   0.820    O   18 0.672    O    5 0.138
    21  H   0.857    O   18 0.852
    22  N   3.563    H   23 0.943    H   25 0.859    H   24 0.836    H   26 0.814
    23  H   0.948    N   22 0.943
    24  H   0.909    N   22 0.836    O   12 0.068
    25  H   0.910    N   22 0.859
    26  H   0.906    N   22 0.814    O    3 0.084
 MOs/occ written to file <molden.input>
 
molecular dipole:
                 x           y           z       tot (Debye)
 q only:        0.936       1.107       0.748
   full:        1.334       1.139       0.756       4.855
molecular quadrupole (traceless):
                xx          xy          yy          xz          yz          zz
 q only:       26.935      18.612     -14.634     -18.010      -8.377     -12.301
  q+dip:       25.135      11.850     -16.150     -14.356      -7.470      -8.984
   full:       25.276      11.671     -16.074     -14.406      -7.810      -9.202

SCC energy    :     -50.6930518
rep           :       0.2956553
ES            :       0.3643442
AES           :      -0.0840438
AXC           :      -0.0104283
disp          :      -0.0182351
XB            :       0.0000000
fix           :       0.0000000
total E       :     -50.3972836
atomizationE  :       4.9275878     3092.11
(atE without considering molecular charge,
 total energy contains solvation terms)
H-L gap (eV)  :          7.5273
           ------------------------------------------------- 
          |                 ===============                 |
          |                   A N C O P T                   |
          |                 ===============                 |
          |          Approximate Normal Coordinate          |
          |           Rational Function Optimizer           |
           ------------------------------------------------- 
dumping coords to <xtbopt.coord> and <xtbopt.log>
 optlevel               2
 Maxcycle             520
 Maxmicro              25
 Econv         1.000000000000000E-007
 Gconv         2.000000000000000E-004
 Maxdispl       1.00000000000000     
 Hlow          5.000000000000000E-003
 S6             20.0000000000000     
 Nvar               72

generating ANC from model Hessian ...
 Shifting diagonal of input Hessian by   4.869487020091493E-003
 Lowest  eigenvalues of input Hessian
   -0.000000   -0.000000   -0.000000   -0.000000    0.000000    0.000000
    0.005000    0.005026    0.005098    0.005475    0.005944    0.006366
    0.007040    0.007471    0.007763    0.008495    0.008659    0.009392
 Highest eigenvalues
    1.433254    1.547667    1.564710    3.086028    3.092325    3.094109
 
cpu  time for ANC gen    0.01 s
wall time for ANC gen    0.01 s
................................................................................
.............................. CYCLE    1 ......................................
................................................................................
   1    -50.6930518 -0.506931E+02  0.856E-05    7.53       0.0  T
   2    -50.6930518 -0.164917E-10  0.681E-05    7.53     287.9  T
   3    -50.6930518 -0.173443E-10  0.327E-05    7.53     599.5  T
speedup  1.00
cpu  time for SCC    0.00 s
wall time for SCC    0.00 s
speedup  1.07
cpu  time for grad    0.01 s
wall time for grad    0.01 s
 E :    -50.39728361  G :  0.132416    pred/act E change:  0.000D+00 -0.369D-08
Maxdispl :   0.1717   ||displ|| :   0.4776   Lambda : -0.270D-01
Largest |displ|/coords:  0.1717 (  28)  0.1592 (  30)  0.1580 (  27)
................................................................................
.............................. CYCLE    2 ......................................
................................................................................
   1    -50.6945514 -0.506946E+02  0.388E-01    7.98       0.0  T
   2    -50.6948737 -0.322254E-03  0.288E-01    8.09       1.0  T
   3    -50.6950145 -0.140828E-03  0.935E-02    8.30       1.0  T
   4    -50.6950428 -0.282986E-04  0.229E-02    8.32       1.0  T
   5    -50.6950443 -0.143354E-05  0.846E-03    8.31       2.3  T
   6    -50.6950444 -0.119538E-06  0.427E-03    8.30       4.6  T
   7    -50.6950444 -0.471062E-07  0.154E-03    8.30      12.7  T
speedup  0.94
cpu  time for SCC    0.01 s
wall time for SCC    0.01 s
speedup  0.99
cpu  time for grad    0.01 s
wall time for grad    0.01 s
 E :    -50.42016788  G :  0.083874    pred/act E change:  0.000D+00 -0.229D-01
Maxdispl :   0.1993   ||displ|| :   0.4958   Lambda : -0.182D-01
Largest |displ|/coords:  0.1993 (  28)  0.1957 (  20)  0.1801 (  30)
................................................................................
.............................. CYCLE    3 ......................................
................................................................................
   1    -50.7001251 -0.507001E+02  0.316E-01    8.53       0.0  T
   2    -50.7006216 -0.496519E-03  0.226E-01    8.61       1.0  T
   3    -50.7008416 -0.219974E-03  0.103E-01    8.73       1.0  T
   4    -50.7008578 -0.162245E-04  0.285E-02    8.77       1.0  T
   5    -50.7008595 -0.174686E-05  0.104E-02    8.76       1.9  T
   6    -50.7008597 -0.210344E-06  0.539E-03    8.76       3.6  T
   7    -50.7008598 -0.740928E-07  0.191E-03    8.76      10.3  T
speedup  0.97
cpu  time for SCC    0.01 s
wall time for SCC    0.01 s
speedup  1.01
cpu  time for grad    0.01 s
wall time for grad    0.01 s
 E :    -50.43520043  G :  0.061864    pred/act E change: -0.166D-01 -0.150D-01
Maxdispl :   0.1769   ||displ|| :   0.4322   Lambda : -0.996D-02
Largest |displ|/coords:  0.1769 (  20)  0.1490 (  28)  0.1356 (  30)
................................................................................
.............................. CYCLE    4 ......................................
................................................................................
   1    -50.7044712 -0.507045E+02  0.298E-01    8.90       0.0  T
   2    -50.7049222 -0.451024E-03  0.215E-01    8.94       1.0  T
   3    -50.7051263 -0.204100E-03  0.100E-01    9.01       1.0  T
   4    -50.7051414 -0.150836E-04  0.297E-02    9.03       1.0  T
   5    -50.7051433 -0.192045E-05  0.101E-02    9.03       1.9  T
   6    -50.7051435 -0.193823E-06  0.533E-03    9.03       3.7  T
   7    -50.7051436 -0.615167E-07  0.174E-03    9.03      11.3  T
speedup  0.97
cpu  time for SCC    0.01 s
wall time for SCC    0.01 s
speedup  0.99
cpu  time for grad    0.01 s
wall time for grad    0.01 s
 E :    -50.44289998  G :  0.056065    pred/act E change: -0.114D-01 -0.770D-02
Maxdispl :   0.1389   ||displ|| :   0.3315   Lambda : -0.511D-02
Largest |displ|/coords:  0.1389 (   5)  0.1202 (   4)  0.0918 (   3)
................................................................................
.............................. CYCLE    5 ......................................
................................................................................
   1    -50.7106518 -0.507107E+02  0.206E-01    9.14       0.0  T
   2    -50.7108445 -0.192691E-03  0.152E-01    9.16       1.0  T
   3    -50.7109381 -0.935770E-04  0.698E-02    9.19       1.0  T
   4    -50.7109460 -0.795183E-05  0.224E-02    9.20       1.0  T
   5    -50.7109471 -0.109940E-05  0.693E-03    9.20       2.8  T
   6    -50.7109472 -0.859968E-07  0.381E-03    9.20       5.1  T
   7    -50.7109472 -0.237175E-07  0.113E-03    9.20      17.4  T
speedup  0.97
cpu  time for SCC    0.01 s
wall time for SCC    0.01 s
speedup  0.94
cpu  time for grad    0.01 s
wall time for grad    0.01 s
 E :    -50.44743406  G :  0.052115    pred/act E change: -0.591D-02 -0.453D-02
Maxdispl :   0.1821   ||displ|| :   0.3358   Lambda : -0.467D-02
Largest |displ|/coords:  0.1821 (   5)  0.1359 (   4)  0.1117 (   3)
................................................................................
.............................. CYCLE    6 ......................................
................................................................................
   1    -50.7196677 -0.507197E+02  0.200E-01    9.30       0.0  T
   2    -50.7198287 -0.161006E-03  0.149E-01    9.30       1.0  T
   3    -50.7199115 -0.827234E-04  0.679E-02    9.32       1.0  T
   4    -50.7199196 -0.809466E-05  0.222E-02    9.33       1.0  T
   5    -50.7199206 -0.104235E-05  0.695E-03    9.33       2.8  T
   6    -50.7199207 -0.694415E-07  0.384E-03    9.33       5.1  T
   7    -50.7199207 -0.186114E-07  0.965E-04    9.33      20.3  T
speedup  0.97
cpu  time for SCC    0.01 s
wall time for SCC    0.01 s
speedup  1.00
cpu  time for grad    0.01 s
wall time for grad    0.01 s
 E :    -50.45170357  G :  0.045845    pred/act E change: -0.284D-02 -0.427D-02
Maxdispl :   0.2564   ||displ|| :   0.6300   Lambda : -0.122D-01
Largest |displ|/coords:  0.2564 (   5)  0.2194 (  17)  0.1690 (  69)
................................................................................
.............................. CYCLE    7 ......................................
................................................................................
   1    -50.7383880 -0.507384E+02  0.601E-01    9.66       0.0  T
   2    -50.7389350 -0.547079E-03  0.450E-01    9.66       1.0  T
   3    -50.7392328 -0.297760E-03  0.138E-01    9.66       1.0  T
   4    -50.7392892 -0.564217E-04  0.437E-02    9.66       1.0  T
   5    -50.7392927 -0.345083E-05  0.152E-02    9.66       1.3  T
   6    -50.7392929 -0.250988E-06  0.858E-03    9.67       2.3  T
   7    -50.7392930 -0.128147E-06  0.187E-03    9.67      10.5  T
   8    -50.7392931 -0.128201E-07  0.569E-04    9.67      34.5  T
speedup  0.99
cpu  time for SCC    0.01 s
wall time for SCC    0.01 s
speedup  1.01
cpu  time for grad    0.01 s
wall time for grad    0.01 s
 E :    -50.45634941  G :  0.064368    pred/act E change: -0.260D-02 -0.465D-02
Maxdispl :   0.2310   ||displ|| :   0.5311   Lambda : -0.196D-01
Largest |displ|/coords:  0.2310 (  16)  0.2271 (  17)  0.2036 (  21)
................................................................................
.............................. CYCLE    8 ......................................
................................................................................
   1    -50.7463894 -0.507464E+02  0.789E-01    9.51       0.0  T
   2    -50.7468156 -0.426150E-03  0.593E-01    9.52       1.0  T
   3    -50.7471239 -0.308334E-03  0.121E-01    9.52       1.0  T
   4    -50.7471756 -0.516538E-04  0.271E-02    9.52       1.0  T
   5    -50.7471767 -0.111681E-05  0.134E-02    9.52       1.5  T
   6    -50.7471768 -0.122533E-06  0.603E-03    9.52       3.3  T
   7    -50.7471769 -0.879217E-07  0.142E-03    9.52      13.9  T
   8    -50.7471769 -0.468442E-08  0.338E-04    9.52      57.9  T
speedup  0.99
cpu  time for SCC    0.01 s
wall time for SCC    0.01 s
speedup  1.01
cpu  time for grad    0.01 s
wall time for grad    0.01 s
 E :    -50.45179711  G :  0.121881    pred/act E change: -0.854D-02  0.455D-02
Maxdispl :   0.1358   ||displ|| :   0.3516   Lambda : -0.189D-01
Largest |displ|/coords:  0.1358 (  16)  0.1250 (  17)  0.1226 (  36)
................................................................................
.............................. CYCLE    9 ......................................
................................................................................
   1    -50.7482758 -0.507483E+02  0.467E-01    9.59       0.0  T
   2    -50.7484601 -0.184299E-03  0.351E-01    9.60       1.0  T
   3    -50.7485977 -0.137570E-03  0.843E-02    9.60       1.0  T
   4    -50.7486192 -0.214847E-04  0.286E-02    9.60       1.0  T
   5    -50.7486205 -0.131587E-05  0.942E-03    9.60       2.1  T
   6    -50.7486206 -0.126679E-06  0.559E-03    9.60       3.5  T
   7    -50.7486207 -0.616984E-07  0.129E-03    9.60      15.2  T
speedup  0.97
cpu  time for SCC    0.01 s
wall time for SCC    0.01 s
speedup  1.01
cpu  time for grad    0.01 s
wall time for grad    0.01 s
 E :    -50.45941611  G :  0.039527    pred/act E change: -0.126D-01 -0.762D-02
Maxdispl :   0.1568   ||displ|| :   0.3095   Lambda : -0.528D-02
Largest |displ|/coords:  0.1568 (  15)  0.0804 (  35)  0.0795 (  20)
................................................................................
.............................. CYCLE   10 ......................................
................................................................................
   1    -50.7346144 -0.507346E+02  0.295E-01    9.50       0.0  T
   2    -50.7347021 -0.876446E-04  0.219E-01    9.50       1.0  T
   3    -50.7347637 -0.616441E-04  0.593E-02    9.50       1.0  T
   4    -50.7347728 -0.912048E-05  0.226E-02    9.50       1.0  T
   5    -50.7347738 -0.961128E-06  0.688E-03    9.50       2.8  T
   6    -50.7347739 -0.696509E-07  0.394E-03    9.50       5.0  T
   7    -50.7347739 -0.269639E-07  0.885E-04    9.50      22.2  T
speedup  1.11
cpu  time for SCC    0.01 s
wall time for SCC    0.01 s
speedup  0.99
cpu  time for grad    0.01 s
wall time for grad    0.01 s
 E :    -50.45910227  G :  0.050966    pred/act E change: -0.106D-01  0.314D-03
Maxdispl :   0.1258   ||displ|| :   0.3909   Lambda : -0.977D-02
Largest |displ|/coords:  0.1258 (   5)  0.1212 (   6)  0.1035 (  21)
................................................................................
.............................. CYCLE   11 ......................................
................................................................................
   1    -50.7614648 -0.507615E+02  0.477E-01    9.56       0.0  T
   2    -50.7617124 -0.247673E-03  0.357E-01    9.57       1.0  T
   3    -50.7619007 -0.188268E-03  0.947E-02    9.57       1.0  T
   4    -50.7619275 -0.267837E-04  0.278E-02    9.58       1.0  T
   5    -50.7619290 -0.154920E-05  0.120E-02    9.58       1.6  T
   6    -50.7619291 -0.742727E-07  0.558E-03    9.58       3.5  T
   7    -50.7619292 -0.783059E-07  0.107E-03    9.58      18.4  T
speedup  0.95
cpu  time for SCC    0.01 s
wall time for SCC    0.01 s
speedup  1.00
cpu  time for grad    0.01 s
wall time for grad    0.01 s
 E :    -50.45877681  G :  0.072062    pred/act E change: -0.289D-02  0.325D-03
Maxdispl :   0.0969   ||displ|| :   0.2906   Lambda : -0.100D-01
Largest |displ|/coords:  0.0969 (  15)  0.0817 (  12)  0.0808 (   8)
................................................................................
.............................. CYCLE   12 ......................................
................................................................................
   1    -50.7373630 -0.507374E+02  0.370E-01    9.45       0.0  T
   2    -50.7375373 -0.174336E-03  0.274E-01    9.45       1.0  T
   3    -50.7376605 -0.123141E-03  0.789E-02    9.44       1.0  T
   4    -50.7376783 -0.178005E-04  0.239E-02    9.45       1.0  T
   5    -50.7376794 -0.115911E-05  0.894E-03    9.44       2.2  T
   6    -50.7376795 -0.114656E-06  0.495E-03    9.44       4.0  T
   7    -50.7376796 -0.386186E-07  0.101E-03    9.44      19.4  T
speedup  0.98
cpu  time for SCC    0.01 s
wall time for SCC    0.01 s
speedup  1.01
cpu  time for grad    0.01 s
wall time for grad    0.01 s
 E :    -50.46052648  G :  0.040755    pred/act E change: -0.563D-02 -0.175D-02
Maxdispl :   0.0942   ||displ|| :   0.1968   Lambda : -0.266D-02
Largest |displ|/coords:  0.0942 (   2)  0.0875 (   5)  0.0829 (   6)
................................................................................
.............................. CYCLE   13 ......................................
................................................................................
   1    -50.7481208 -0.507481E+02  0.134E-01    9.49       0.0  T
   2    -50.7481501 -0.292993E-04  0.100E-01    9.49       1.0  T
   3    -50.7481724 -0.223836E-04  0.328E-02    9.49       1.0  T
   4    -50.7481755 -0.308296E-05  0.917E-03    9.49       2.1  T
   5    -50.7481757 -0.140038E-06  0.428E-03    9.50       4.6  T
   6    -50.7481757 -0.161417E-07  0.185E-03    9.50      10.6  T
speedup  1.11
cpu  time for SCC    0.01 s
wall time for SCC    0.01 s
speedup  1.07
cpu  time for grad    0.01 s
wall time for grad    0.01 s
 E :    -50.46218172  G :  0.010123    pred/act E change: -0.542D-02 -0.166D-02
Maxdispl :   0.1930   ||displ|| :   0.3388   Lambda : -0.936D-03
Largest |displ|/coords:  0.1930 (   5)  0.1504 (   1)  0.0921 (   3)
................................................................................
.............................. CYCLE   14 ......................................
................................................................................
   1    -50.7512715 -0.507513E+02  0.200E-01    9.48       0.0  T
   2    -50.7512861 -0.145825E-04  0.151E-01    9.49       1.0  T
   3    -50.7512991 -0.129340E-04  0.247E-02    9.49       1.0  T
   4    -50.7513011 -0.198972E-05  0.841E-03    9.49       2.3  T
   5    -50.7513012 -0.113337E-06  0.372E-03    9.49       5.3  T
   6    -50.7513012 -0.184613E-07  0.180E-03    9.49      10.9  T
   7    -50.7513012 -0.955728E-08  0.387E-04    9.49      50.7  T
speedup  0.98
cpu  time for SCC    0.01 s
wall time for SCC    0.01 s
speedup  1.01
cpu  time for grad    0.01 s
wall time for grad    0.01 s
 E :    -50.46251116  G :  0.017731    pred/act E change: -0.138D-02 -0.329D-03
Maxdispl :   0.1554   ||displ|| :   0.2982   Lambda : -0.813D-03
Largest |displ|/coords:  0.1554 (   2)  0.1421 (   5)  0.1075 (   3)
................................................................................
.............................. CYCLE   15 ......................................
................................................................................
   1    -50.7517239 -0.507517E+02  0.166E-01    9.46       0.0  T
   2    -50.7517292 -0.530697E-05  0.125E-01    9.46       1.0  T
   3    -50.7517326 -0.336534E-05  0.140E-02    9.46       1.4  T
   4    -50.7517335 -0.885466E-06  0.473E-03    9.46       4.1  T
   5    -50.7517335 -0.348957E-07  0.140E-03    9.46      14.0  T
   6    -50.7517335 -0.148905E-08  0.785E-04    9.46      25.0  T
speedup  1.13
cpu  time for SCC    0.01 s
wall time for SCC    0.01 s
speedup  0.99
cpu  time for grad    0.01 s
wall time for grad    0.01 s
 E :    -50.46301784  G :  0.010950    pred/act E change: -0.522D-03 -0.507D-03
Maxdispl :   0.1553   ||displ|| :   0.3153   Lambda : -0.597D-03
Largest |displ|/coords:  0.1553 (   5)  0.1389 (   1)  0.1096 (   3)
................................................................................
.............................. CYCLE   16 ......................................
................................................................................
   1    -50.7522726 -0.507523E+02  0.127E-01    9.43       0.0  T
   2    -50.7522753 -0.271167E-05  0.949E-02    9.43       1.0  T
   3    -50.7522772 -0.186780E-05  0.123E-02    9.43       1.6  T
   4    -50.7522776 -0.377458E-06  0.326E-03    9.43       6.0  T
   5    -50.7522776 -0.178841E-07  0.117E-03    9.43      16.7  T
   6    -50.7522776 -0.118764E-08  0.583E-04    9.43      33.6  T
speedup  1.09
cpu  time for SCC    0.01 s
wall time for SCC    0.01 s
speedup  0.98
cpu  time for grad    0.01 s
wall time for grad    0.01 s
 E :    -50.46338583  G :  0.010490    pred/act E change: -0.443D-03 -0.368D-03
Maxdispl :   0.2061   ||displ|| :   0.4270   Lambda : -0.732D-03
Largest |displ|/coords:  0.2061 (   1)  0.2057 (   5)  0.1315 (  14)
................................................................................
.............................. CYCLE   17 ......................................
................................................................................
   1    -50.7485118 -0.507485E+02  0.242E-01    9.42       0.0  T
   2    -50.7485254 -0.136195E-04  0.181E-01    9.42       1.0  T
   3    -50.7485369 -0.115058E-04  0.283E-02    9.42       1.0  T
   4    -50.7485384 -0.148486E-05  0.584E-03    9.42       3.4  T
   5    -50.7485385 -0.602796E-07  0.251E-03    9.42       7.8  T
   6    -50.7485385 -0.494500E-08  0.129E-03    9.42      15.2  T
speedup  1.03
cpu  time for SCC    0.01 s
wall time for SCC    0.01 s
speedup  0.96
cpu  time for grad    0.01 s
wall time for grad    0.01 s
 E :    -50.46375542  G :  0.015818    pred/act E change: -0.328D-03 -0.370D-03
Maxdispl :   0.2391   ||displ|| :   0.4070   Lambda : -0.982D-03
Largest |displ|/coords:  0.2391 (   1)  0.1235 (   5)  0.1114 (  19)
................................................................................
.............................. CYCLE   18 ......................................
................................................................................
   1    -50.7517842 -0.507518E+02  0.213E-01    9.44       0.0  T
   2    -50.7518015 -0.172780E-04  0.158E-01    9.44       1.0  T
   3    -50.7518133 -0.118582E-04  0.301E-02    9.43       1.0  T
   4    -50.7518153 -0.198165E-05  0.934E-03    9.44       2.1  T
   5    -50.7518154 -0.128674E-06  0.269E-03    9.44       7.3  T
   6    -50.7518154 -0.697941E-08  0.167E-03    9.44      11.7  T
speedup  0.93
cpu  time for SCC    0.00 s
wall time for SCC    0.01 s
speedup  0.99
cpu  time for grad    0.01 s
wall time for grad    0.01 s
 E :    -50.46397116  G :  0.021918    pred/act E change: -0.433D-03 -0.216D-03
Maxdispl :   0.1197   ||displ|| :   0.2458   Lambda : -0.897D-03
Largest |displ|/coords:  0.1197 (   1)  0.1108 (   6)  0.1072 (   7)
................................................................................
.............................. CYCLE   19 ......................................
................................................................................
   1    -50.7543400 -0.507543E+02  0.161E-01    9.42       0.0  T
   2    -50.7543519 -0.119316E-04  0.121E-01    9.42       1.0  T
   3    -50.7543598 -0.793085E-05  0.196E-02    9.42       1.0  T
   4    -50.7543614 -0.162910E-05  0.415E-03    9.42       4.7  T
   5    -50.7543615 -0.188168E-07  0.234E-03    9.42       8.4  T
speedup  0.87
cpu  time for SCC    0.00 s
wall time for SCC    0.00 s
speedup  0.98
cpu  time for grad    0.01 s
wall time for grad    0.01 s
 E :    -50.46423033  G :  0.019163    pred/act E change: -0.572D-03 -0.259D-03
Maxdispl :   0.0976   ||displ|| :   0.2211   Lambda : -0.731D-03
Largest |displ|/coords:  0.0976 (   5)  0.0850 (   3)  0.0710 (   1)
................................................................................
.............................. CYCLE   20 ......................................
................................................................................
   1    -50.7507219 -0.507507E+02  0.162E-01    9.40       0.0  T
   2    -50.7507295 -0.756917E-05  0.121E-01    9.40       1.0  T
   3    -50.7507343 -0.479998E-05  0.189E-02    9.40       1.0  T
   4    -50.7507353 -0.999485E-06  0.580E-03    9.40       3.4  T
   5    -50.7507353 -0.596386E-07  0.156E-03    9.40      12.6  T
   6    -50.7507353 -0.272562E-08  0.101E-03    9.40      19.5  T
speedup  0.93
cpu  time for SCC    0.00 s
wall time for SCC    0.01 s
speedup  0.99
cpu  time for grad    0.01 s
wall time for grad    0.01 s
 E :    -50.46450488  G :  0.011931    pred/act E change: -0.476D-03 -0.275D-03
Maxdispl :   0.0637   ||displ|| :   0.1354   Lambda : -0.368D-03
Largest |displ|/coords:  0.0637 (   1)  0.0479 (  16)  0.0450 (   4)
................................................................................
.............................. CYCLE   21 ......................................
................................................................................
   1    -50.7527362 -0.507527E+02  0.787E-02    9.47       0.0  T
   2    -50.7527393 -0.303549E-05  0.588E-02    9.47       1.0  T
   3    -50.7527418 -0.247087E-05  0.107E-02    9.47       1.8  T
   4    -50.7527421 -0.330711E-06  0.202E-03    9.47       9.7  T
   5    -50.7527421 -0.615135E-08  0.105E-03    9.47      18.8  T
speedup  1.09
cpu  time for SCC    0.00 s
wall time for SCC    0.00 s
speedup  1.05
cpu  time for grad    0.01 s
wall time for grad    0.01 s
 E :    -50.46472158  G :  0.006805    pred/act E change: -0.383D-03 -0.217D-03
Maxdispl :   0.1913   ||displ|| :   0.3120   Lambda : -0.373D-03
Largest |displ|/coords:  0.1913 (   1)  0.1110 (   2)  0.0763 (   6)
................................................................................
.............................. CYCLE   22 ......................................
................................................................................
   1    -50.7519208 -0.507519E+02  0.167E-01    9.52       0.0  T
   2    -50.7519254 -0.460563E-05  0.125E-01    9.52       1.0  T
   3    -50.7519294 -0.391998E-05  0.123E-02    9.52       1.6  T
   4    -50.7519299 -0.538946E-06  0.488E-03    9.52       4.0  T
   5    -50.7519299 -0.318723E-07  0.175E-03    9.52      11.2  T
   6    -50.7519299 -0.343157E-08  0.100E-03    9.52      19.6  T
speedup  1.11
cpu  time for SCC    0.01 s
wall time for SCC    0.01 s
speedup  1.06
cpu  time for grad    0.01 s
wall time for grad    0.01 s
 E :    -50.46475268  G :  0.018768    pred/act E change: -0.188D-03 -0.311D-04
Maxdispl :   0.0479   ||displ|| :   0.1369   Lambda : -0.516D-03
Largest |displ|/coords:  0.0479 (  16)  0.0474 (   6)  0.0447 (   1)
................................................................................
.............................. CYCLE   23 ......................................
................................................................................
   1    -50.7540008 -0.507540E+02  0.961E-02    9.53       0.0  T
   2    -50.7540063 -0.540570E-05  0.723E-02    9.53       1.0  T
   3    -50.7540103 -0.408537E-05  0.130E-02    9.53       1.5  T
   4    -50.7540110 -0.682972E-06  0.318E-03    9.53       6.2  T
   5    -50.7540110 -0.204304E-07  0.142E-03    9.53      13.8  T
   6    -50.7540110 -0.203751E-08  0.652E-04    9.53      30.1  T
speedup  1.11
cpu  time for SCC    0.01 s
wall time for SCC    0.01 s
speedup  1.05
cpu  time for grad    0.01 s
wall time for grad    0.01 s
 E :    -50.46495248  G :  0.009190    pred/act E change: -0.205D-03 -0.200D-03
Maxdispl :   0.0683   ||displ|| :   0.1478   Lambda : -0.371D-03
Largest |displ|/coords:  0.0683 (   7)  0.0642 (   3)  0.0585 (  10)
................................................................................
.............................. CYCLE   24 ......................................
................................................................................
   1    -50.7571693 -0.507572E+02  0.141E-01    9.55       0.0  T
   2    -50.7571747 -0.542300E-05  0.106E-01    9.55       1.0  T
   3    -50.7571798 -0.504215E-05  0.135E-02    9.55       1.5  T
   4    -50.7571803 -0.574484E-06  0.426E-03    9.55       4.6  T
   5    -50.7571804 -0.259735E-07  0.172E-03    9.55      11.4  T
   6    -50.7571804 -0.256843E-08  0.738E-04    9.55      26.6  T
speedup  1.13
cpu  time for SCC    0.01 s
wall time for SCC    0.01 s
speedup  1.06
cpu  time for grad    0.01 s
wall time for grad    0.01 s
 E :    -50.46488057  G :  0.016456    pred/act E change: -0.263D-03  0.719D-04
Maxdispl :   0.0768   ||displ|| :   0.1301   Lambda : -0.483D-03
Largest |displ|/coords:  0.0768 (   7)  0.0423 (   3)  0.0367 (   5)
................................................................................
.............................. CYCLE   25 ......................................
................................................................................
   1    -50.7534167 -0.507534E+02  0.116E-01    9.54       0.0  T
   2    -50.7534209 -0.412648E-05  0.867E-02    9.54       1.0  T
   3    -50.7534240 -0.314993E-05  0.111E-02    9.54       1.8  T
   4    -50.7534246 -0.532467E-06  0.407E-03    9.54       4.8  T
   5    -50.7534246 -0.255298E-07  0.152E-03    9.54      12.9  T
   6    -50.7534246 -0.291998E-08  0.843E-04    9.54      23.3  T
speedup  1.11
cpu  time for SCC    0.01 s
wall time for SCC    0.01 s
speedup  0.98
cpu  time for grad    0.01 s
wall time for grad    0.01 s
 E :    -50.46510593  G :  0.007649    pred/act E change: -0.189D-03 -0.225D-03
Maxdispl :   0.0833   ||displ|| :   0.1473   Lambda : -0.208D-03
Largest |displ|/coords:  0.0833 (   1)  0.0766 (   5)  0.0467 (   2)

generating ANC from model Hessian ...
 Shifting diagonal of input Hessian by   4.751625470757075E-003
 Lowest  eigenvalues of input Hessian
   -0.000000   -0.000000    0.000000    0.000000    0.000000    0.000000
    0.005000    0.005100    0.005203    0.005481    0.005677    0.006411
    0.007146    0.007722    0.008402    0.009369    0.009896    0.010449
 Highest eigenvalues
    1.402265    1.415238    1.490422    2.794529    3.451539    3.545452
 
cpu  time for ANC gen    0.01 s
wall time for ANC gen    0.01 s
................................................................................
.............................. CYCLE   26 ......................................
................................................................................
   1    -50.7523571 -0.507524E+02  0.908E-02    9.52       0.0  T
   2    -50.7523586 -0.159034E-05  0.681E-02    9.52       1.0  T
   3    -50.7523600 -0.138245E-05  0.768E-03    9.52       2.6  T
   4    -50.7523602 -0.181276E-06  0.206E-03    9.52       9.5  T
   5    -50.7523602 -0.836793E-08  0.972E-04    9.52      20.2  T
   6    -50.7523602 -0.121010E-08  0.471E-04    9.52      41.6  T
speedup  0.93
cpu  time for SCC    0.00 s
wall time for SCC    0.01 s
speedup  1.01
cpu  time for grad    0.01 s
wall time for grad    0.01 s
 E :    -50.46512645  G :  0.010392    pred/act E change:  0.000D+00 -0.205D-04
Maxdispl :   0.1102   ||displ|| :   0.1862   Lambda : -0.485D-03
Largest |displ|/coords:  0.1102 (   5)  0.0693 (   4)  0.0689 (  10)
................................................................................
.............................. CYCLE   27 ......................................
................................................................................
   1    -50.7535689 -0.507536E+02  0.161E-01    9.52       0.0  T
   2    -50.7535726 -0.366900E-05  0.122E-01    9.52       1.0  T
   3    -50.7535770 -0.438086E-05  0.837E-03    9.52       2.3  T
   4    -50.7535772 -0.227599E-06  0.372E-03    9.52       5.3  T
   5    -50.7535772 -0.122326E-07  0.121E-03    9.52      16.2  T
   6    -50.7535772 -0.104266E-08  0.570E-04    9.52      34.4  T
speedup  0.89
cpu  time for SCC    0.00 s
wall time for SCC    0.01 s
speedup  0.97
cpu  time for grad    0.01 s
wall time for grad    0.01 s
 E :    -50.46545682  G :  0.005533    pred/act E change:  0.000D+00 -0.330D-03
Maxdispl :   0.1430   ||displ|| :   0.2479   Lambda : -0.340D-03
Largest |displ|/coords:  0.1430 (   5)  0.0979 (   6)  0.0891 (   4)
................................................................................
.............................. CYCLE   28 ......................................
................................................................................
   1    -50.7537988 -0.507538E+02  0.164E-01    9.52       0.0  T
   2    -50.7538016 -0.283154E-05  0.124E-01    9.52       1.0  T
   3    -50.7538046 -0.296615E-05  0.845E-03    9.52       2.3  T
   4    -50.7538048 -0.250076E-06  0.404E-03    9.52       4.9  T
   5    -50.7538048 -0.142479E-07  0.124E-03    9.52      15.8  T
   6    -50.7538048 -0.140822E-08  0.651E-04    9.52      30.1  T
speedup  0.93
cpu  time for SCC    0.00 s
wall time for SCC    0.01 s
speedup  0.98
cpu  time for grad    0.01 s
wall time for grad    0.01 s
 E :    -50.46568704  G :  0.008992    pred/act E change: -0.251D-03 -0.230D-03
Maxdispl :   0.1808   ||displ|| :   0.2687   Lambda : -0.265D-03
Largest |displ|/coords:  0.1808 (   5)  0.0933 (   6)  0.0853 (  10)
................................................................................
.............................. CYCLE   29 ......................................
................................................................................
   1    -50.7530005 -0.507530E+02  0.172E-01    9.52       0.0  T
   2    -50.7530037 -0.318922E-05  0.130E-01    9.52       1.0  T
   3    -50.7530074 -0.367980E-05  0.909E-03    9.52       2.2  T
   4    -50.7530076 -0.237917E-06  0.287E-03    9.52       6.8  T
   5    -50.7530076 -0.876940E-08  0.150E-03    9.52      13.0  T
speedup  1.09
cpu  time for SCC    0.00 s
wall time for SCC    0.00 s
speedup  1.05
cpu  time for grad    0.01 s
wall time for grad    0.01 s
 E :    -50.46588728  G :  0.008604    pred/act E change: -0.180D-03 -0.200D-03
Maxdispl :   0.2377   ||displ|| :   0.4197   Lambda : -0.360D-03
Largest |displ|/coords:  0.2377 (   5)  0.1912 (   6)  0.1448 (  10)
................................................................................
.............................. CYCLE   30 ......................................
................................................................................
   1    -50.7487560 -0.507488E+02  0.277E-01    9.49       0.0  T
   2    -50.7487669 -0.109552E-04  0.208E-01    9.49       1.0  T
   3    -50.7487771 -0.101522E-04  0.195E-02    9.49       1.0  T
   4    -50.7487783 -0.122406E-05  0.553E-03    9.49       3.5  T
   5    -50.7487783 -0.389690E-07  0.270E-03    9.49       7.3  T
   6    -50.7487783 -0.574780E-08  0.116E-03    9.49      16.9  T
speedup  0.93
cpu  time for SCC    0.00 s
wall time for SCC    0.01 s
speedup  0.98
cpu  time for grad    0.01 s
wall time for grad    0.01 s
 E :    -50.46605251  G :  0.017396    pred/act E change: -0.142D-03 -0.165D-03
Maxdispl :   0.1585   ||displ|| :   0.2707   Lambda : -0.591D-03
Largest |displ|/coords:  0.1585 (   5)  0.1429 (   6)  0.0673 (  10)
................................................................................
.............................. CYCLE   31 ......................................
................................................................................
   1    -50.7508499 -0.507508E+02  0.152E-01    9.48       0.0  T
   2    -50.7508579 -0.804399E-05  0.114E-01    9.48       1.0  T
   3    -50.7508640 -0.602371E-05  0.157E-02    9.48       1.2  T
   4    -50.7508650 -0.102189E-05  0.592E-03    9.48       3.3  T
   5    -50.7508651 -0.674627E-07  0.177E-03    9.48      11.1  T
   6    -50.7508651 -0.280103E-08  0.102E-03    9.48      19.1  T
speedup  0.74
cpu  time for SCC    0.00 s
wall time for SCC    0.01 s
speedup  0.91
cpu  time for grad    0.01 s
wall time for grad    0.01 s
 E :    -50.46624124  G :  0.013290    pred/act E change: -0.212D-03 -0.189D-03
Maxdispl :   0.0473   ||displ|| :   0.1128   Lambda : -0.316D-03
Largest |displ|/coords:  0.0473 (   4)  0.0385 (   5)  0.0360 (  13)
................................................................................
.............................. CYCLE   32 ......................................
................................................................................
   1    -50.7507912 -0.507508E+02  0.959E-02    9.50       0.0  T
   2    -50.7507941 -0.288835E-05  0.723E-02    9.50       1.0  T
   3    -50.7507964 -0.228383E-05  0.107E-02    9.50       1.8  T
   4    -50.7507967 -0.369165E-06  0.315E-03    9.50       6.2  T
   5    -50.7507967 -0.207711E-07  0.108E-03    9.50      18.1  T
   6    -50.7507967 -0.728363E-09  0.609E-04    9.50      32.2  T
speedup  1.11
cpu  time for SCC    0.01 s
wall time for SCC    0.01 s
speedup  0.98
cpu  time for grad    0.01 s
wall time for grad    0.01 s
 E :    -50.46645994  G :  0.007281    pred/act E change: -0.317D-03 -0.219D-03
Maxdispl :   0.1451   ||displ|| :   0.2766   Lambda : -0.316D-03
Largest |displ|/coords:  0.1451 (   5)  0.1364 (   6)  0.0712 (  18)
................................................................................
.............................. CYCLE   33 ......................................
................................................................................
   1    -50.7482839 -0.507483E+02  0.204E-01    9.52       0.0  T
   2    -50.7482944 -0.104470E-04  0.154E-01    9.52       1.0  T
   3    -50.7483031 -0.871486E-05  0.207E-02    9.52       1.0  T
   4    -50.7483044 -0.130182E-05  0.611E-03    9.52       3.2  T
   5    -50.7483045 -0.597664E-07  0.216E-03    9.52       9.1  T
   6    -50.7483045 -0.319621E-08  0.123E-03    9.52      15.9  T
speedup  0.96
cpu  time for SCC    0.00 s
wall time for SCC    0.01 s
speedup  0.99
cpu  time for grad    0.01 s
wall time for grad    0.01 s
 E :    -50.46656602  G :  0.016298    pred/act E change: -0.160D-03 -0.106D-03
Maxdispl :   0.0559   ||displ|| :   0.1116   Lambda : -0.351D-03
Largest |displ|/coords:  0.0559 (   2)  0.0408 (   5)  0.0377 (   3)
................................................................................
.............................. CYCLE   34 ......................................
................................................................................
   1    -50.7527538 -0.507528E+02  0.717E-02    9.58       0.0  T
   2    -50.7527570 -0.327544E-05  0.537E-02    9.58       1.0  T
   3    -50.7527594 -0.239353E-05  0.106E-02    9.58       1.8  T
   4    -50.7527598 -0.393685E-06  0.342E-03    9.58       5.7  T
   5    -50.7527599 -0.196829E-07  0.115E-03    9.58      17.1  T
   6    -50.7527599 -0.138533E-08  0.602E-04    9.58      32.6  T
speedup  0.96
cpu  time for SCC    0.00 s
wall time for SCC    0.01 s
speedup  0.99
cpu  time for grad    0.01 s
wall time for grad    0.01 s
 E :    -50.46674123  G :  0.008061    pred/act E change: -0.170D-03 -0.175D-03
Maxdispl :   0.2138   ||displ|| :   0.3121   Lambda : -0.298D-03
Largest |displ|/coords:  0.2138 (   5)  0.1683 (   6)  0.0583 (   4)
................................................................................
.............................. CYCLE   35 ......................................
................................................................................
   1    -50.7516692 -0.507517E+02  0.165E-01    9.56       0.0  T
   2    -50.7516738 -0.459224E-05  0.125E-01    9.56       1.0  T
   3    -50.7516786 -0.476572E-05  0.120E-02    9.56       1.6  T
   4    -50.7516790 -0.453793E-06  0.496E-03    9.56       4.0  T
   5    -50.7516790 -0.290644E-07  0.145E-03    9.56      13.5  T
   6    -50.7516791 -0.226400E-08  0.885E-04    9.56      22.2  T
speedup  0.94
cpu  time for SCC    0.00 s
wall time for SCC    0.01 s
speedup  0.99
cpu  time for grad    0.01 s
wall time for grad    0.01 s
 E :    -50.46693447  G :  0.009015    pred/act E change: -0.178D-03 -0.193D-03
Maxdispl :   0.2528   ||displ|| :   0.4014   Lambda : -0.432D-03
Largest |displ|/coords:  0.2528 (   6)  0.2201 (   5)  0.1241 (  18)
................................................................................
.............................. CYCLE   36 ......................................
................................................................................
   1    -50.7540912 -0.507541E+02  0.217E-01    9.57       0.0  T
   2    -50.7541061 -0.149098E-04  0.164E-01    9.57       1.0  T
   3    -50.7541171 -0.109863E-04  0.212E-02    9.57       1.0  T
   4    -50.7541193 -0.217670E-05  0.841E-03    9.57       2.3  T
   5    -50.7541194 -0.135906E-06  0.238E-03    9.57       8.2  T
   6    -50.7541195 -0.380223E-08  0.144E-03    9.57      13.6  T
speedup  1.13
cpu  time for SCC    0.01 s
wall time for SCC    0.01 s
speedup  1.04
cpu  time for grad    0.01 s
wall time for grad    0.01 s
 E :    -50.46703167  G :  0.017161    pred/act E change: -0.164D-03 -0.972D-04
Maxdispl :   0.2398   ||displ|| :   0.3169   Lambda : -0.449D-03
Largest |displ|/coords:  0.2398 (   5)  0.1139 (   6)  0.0578 (  18)
................................................................................
.............................. CYCLE   37 ......................................
................................................................................
   1    -50.7497835 -0.507498E+02  0.182E-01    9.56       0.0  T
   2    -50.7497923 -0.875883E-05  0.137E-01    9.56       1.0  T
   3    -50.7497988 -0.656032E-05  0.191E-02    9.56       1.0  T
   4    -50.7498000 -0.117089E-05  0.537E-03    9.56       3.7  T
   5    -50.7498001 -0.569642E-07  0.188E-03    9.56      10.4  T
   6    -50.7498001 -0.161128E-08  0.105E-03    9.56      18.6  T
speedup  1.11
cpu  time for SCC    0.01 s
wall time for SCC    0.01 s
speedup  1.05
cpu  time for grad    0.01 s
wall time for grad    0.01 s
 E :    -50.46721517  G :  0.012458    pred/act E change: -0.251D-03 -0.184D-03
Maxdispl :   0.0511   ||displ|| :   0.1293   Lambda : -0.340D-03
Largest |displ|/coords:  0.0511 (  10)  0.0478 (   6)  0.0419 (  15)
................................................................................
.............................. CYCLE   38 ......................................
................................................................................
   1    -50.7539516 -0.507540E+02  0.107E-01    9.60       0.0  T
   2    -50.7539589 -0.725147E-05  0.798E-02    9.60       1.0  T
   3    -50.7539631 -0.424505E-05  0.162E-02    9.60       1.2  T
   4    -50.7539640 -0.885548E-06  0.560E-03    9.60       3.5  T
   5    -50.7539641 -0.567470E-07  0.133E-03    9.60      14.7  T
   6    -50.7539641 -0.143571E-08  0.809E-04    9.60      24.2  T
speedup  1.13
cpu  time for SCC    0.01 s
wall time for SCC    0.01 s
speedup  0.98
cpu  time for grad    0.01 s
wall time for grad    0.01 s
 E :    -50.46727668  G :  0.011039    pred/act E change: -0.247D-03 -0.615D-04
Maxdispl :   0.1306   ||displ|| :   0.2120   Lambda : -0.233D-03
Largest |displ|/coords:  0.1306 (   5)  0.0971 (   6)  0.0647 (  18)
................................................................................
.............................. CYCLE   39 ......................................
................................................................................
   1    -50.7533154 -0.507533E+02  0.117E-01    9.60       0.0  T
   2    -50.7533193 -0.389970E-05  0.887E-02    9.60       1.0  T
   3    -50.7533225 -0.313007E-05  0.106E-02    9.60       1.8  T
   4    -50.7533230 -0.509350E-06  0.386E-03    9.60       5.1  T
   5    -50.7533230 -0.279388E-07  0.115E-03    9.60      17.1  T
   6    -50.7533230 -0.971774E-09  0.672E-04    9.60      29.2  T
speedup  0.94
cpu  time for SCC    0.00 s
wall time for SCC    0.01 s
speedup  0.98
cpu  time for grad    0.01 s
wall time for grad    0.01 s
 E :    -50.46741922  G :  0.004350    pred/act E change: -0.173D-03 -0.143D-03
Maxdispl :   0.2562   ||displ|| :   0.4124   Lambda : -0.156D-03
Largest |displ|/coords:  0.2562 (   5)  0.2248 (   6)  0.0777 (   2)
................................................................................
.............................. CYCLE   40 ......................................
................................................................................
   1    -50.7497123 -0.507497E+02  0.189E-01    9.54       0.0  T
   2    -50.7497188 -0.651345E-05  0.142E-01    9.54       1.0  T
   3    -50.7497247 -0.590207E-05  0.156E-02    9.54       1.3  T
   4    -50.7497254 -0.717044E-06  0.568E-03    9.54       3.5  T
   5    -50.7497255 -0.412373E-07  0.162E-03    9.54      12.1  T
   6    -50.7497255 -0.217512E-08  0.987E-04    9.54      19.9  T
speedup  0.94
cpu  time for SCC    0.01 s
wall time for SCC    0.01 s
speedup  0.98
cpu  time for grad    0.01 s
wall time for grad    0.01 s
 E :    -50.46741128  G :  0.011857    pred/act E change: -0.122D-03  0.794D-05
Maxdispl :   0.0600   ||displ|| :   0.1147   Lambda : -0.283D-03
Largest |displ|/coords:  0.0600 (   5)  0.0427 (  15)  0.0323 (  23)
................................................................................
.............................. CYCLE   41 ......................................
................................................................................
   1    -50.7520149 -0.507520E+02  0.666E-02    9.56       0.0  T
   2    -50.7520178 -0.285413E-05  0.500E-02    9.56       1.0  T
   3    -50.7520199 -0.212556E-05  0.970E-03    9.56       2.0  T
   4    -50.7520203 -0.352436E-06  0.389E-03    9.56       5.0  T
   5    -50.7520203 -0.227951E-07  0.111E-03    9.56      17.6  T
   6    -50.7520203 -0.105774E-08  0.644E-04    9.56      30.4  T
speedup  0.94
cpu  time for SCC    0.00 s
wall time for SCC    0.01 s
speedup  0.98
cpu  time for grad    0.01 s
wall time for grad    0.01 s
 E :    -50.46751367  G :  0.009271    pred/act E change: -0.910D-04 -0.102D-03
Maxdispl :   0.0559   ||displ|| :   0.1152   Lambda : -0.203D-03
Largest |displ|/coords:  0.0559 (   2)  0.0495 (   1)  0.0435 (   7)
................................................................................
.............................. CYCLE   42 ......................................
................................................................................
   1    -50.7542135 -0.507542E+02  0.837E-02    9.59       0.0  T
   2    -50.7542161 -0.266002E-05  0.625E-02    9.59       1.0  T
   3    -50.7542180 -0.184509E-05  0.101E-02    9.59       1.9  T
   4    -50.7542183 -0.351352E-06  0.391E-03    9.59       5.0  T
   5    -50.7542184 -0.249520E-07  0.110E-03    9.59      17.9  T
   6    -50.7542184 -0.121484E-08  0.671E-04    9.59      29.2  T
speedup  0.94
cpu  time for SCC    0.00 s
wall time for SCC    0.01 s
speedup  0.98
cpu  time for grad    0.01 s
wall time for grad    0.01 s
 E :    -50.46752667  G :  0.007610    pred/act E change: -0.143D-03 -0.130D-04
Maxdispl :   0.1124   ||displ|| :   0.1836   Lambda : -0.180D-03
Largest |displ|/coords:  0.1124 (   5)  0.0907 (   6)  0.0532 (   1)
................................................................................
.............................. CYCLE   43 ......................................
................................................................................
   1    -50.7525000 -0.507525E+02  0.832E-02    9.58       0.0  T
   2    -50.7525012 -0.117250E-05  0.625E-02    9.58       1.0  T
   3    -50.7525024 -0.126304E-05  0.747E-03    9.58       2.6  T
   4    -50.7525025 -0.102103E-06  0.241E-03    9.58       8.2  T
   5    -50.7525025 -0.865933E-08  0.834E-04    9.58      23.5  T
speedup  1.06
cpu  time for SCC    0.01 s
wall time for SCC    0.00 s
speedup  1.03
cpu  time for grad    0.01 s
wall time for grad    0.01 s
 E :    -50.46762847  G :  0.003788    pred/act E change: -0.103D-03 -0.102D-03
Maxdispl :   0.1890   ||displ|| :   0.3105   Lambda : -0.966D-04
Largest |displ|/coords:  0.1890 (   5)  0.1568 (   6)  0.0750 (   2)
................................................................................
.............................. CYCLE   44 ......................................
................................................................................
   1    -50.7514419 -0.507514E+02  0.113E-01    9.56       0.0  T
   2    -50.7514449 -0.296416E-05  0.854E-02    9.56       1.0  T
   3    -50.7514474 -0.255556E-05  0.108E-02    9.56       1.8  T
   4    -50.7514478 -0.365042E-06  0.401E-03    9.56       4.9  T
   5    -50.7514478 -0.199492E-07  0.102E-03    9.56      19.2  T
   6    -50.7514478 -0.991008E-09  0.652E-04    9.56      30.1  T
   7    -50.7514478 -0.665331E-09  0.138E-04    9.56     141.9  T
speedup  0.97
cpu  time for SCC    0.01 s
wall time for SCC    0.01 s
speedup  0.96
cpu  time for grad    0.01 s
wall time for grad    0.01 s
 E :    -50.46767667  G :  0.004239    pred/act E change: -0.931D-04 -0.482D-04
Maxdispl :   0.1373   ||displ|| :   0.2396   Lambda : -0.776D-04
Largest |displ|/coords:  0.1373 (   5)  0.1113 (   1)  0.0934 (   6)
................................................................................
.............................. CYCLE   45 ......................................
................................................................................
   1    -50.7514073 -0.507514E+02  0.822E-02    9.56       0.0  T
   2    -50.7514082 -0.916471E-06  0.621E-02    9.56       1.0  T
   3    -50.7514093 -0.103991E-05  0.528E-03    9.56       3.7  T
   4    -50.7514093 -0.706139E-07  0.225E-03    9.56       8.7  T
   5    -50.7514094 -0.552466E-08  0.714E-04    9.56      27.5  T
speedup  0.89
cpu  time for SCC    0.00 s
wall time for SCC    0.00 s
speedup  0.98
cpu  time for grad    0.01 s
wall time for grad    0.01 s
 E :    -50.46773796  G :  0.003981    pred/act E change: -0.529D-04 -0.613D-04
Maxdispl :   0.2479   ||displ|| :   0.4353   Lambda : -0.185D-03
Largest |displ|/coords:  0.2479 (   1)  0.1814 (   5)  0.1385 (   6)
................................................................................
.............................. CYCLE   46 ......................................
................................................................................
   1    -50.7551401 -0.507551E+02  0.128E-01    9.62       0.0  T
   2    -50.7551441 -0.401558E-05  0.963E-02    9.62       1.0  T
   3    -50.7551466 -0.250712E-05  0.119E-02    9.62       1.7  T
   4    -50.7551472 -0.603575E-06  0.462E-03    9.62       4.2  T
   5    -50.7551472 -0.357806E-07  0.122E-03    9.62      16.0  T
   6    -50.7551472 -0.115951E-08  0.756E-04    9.62      25.9  T
   7    -50.7551472 -0.918220E-09  0.162E-04    9.62     120.9  T
speedup  0.81
cpu  time for SCC    0.00 s
wall time for SCC    0.01 s
speedup  0.95
cpu  time for grad    0.01 s
wall time for grad    0.01 s
 E :    -50.46779727  G :  0.007024    pred/act E change: -0.410D-04 -0.593D-04
Maxdispl :   0.2917   ||displ|| :   0.4637   Lambda : -0.162D-03
Largest |displ|/coords:  0.2917 (   5)  0.1908 (   1)  0.1788 (   6)
................................................................................
.............................. CYCLE   47 ......................................
................................................................................
   1    -50.7516155 -0.507516E+02  0.163E-01    9.60       0.0  T
   2    -50.7516201 -0.455680E-05  0.123E-01    9.60       1.0  T
   3    -50.7516241 -0.404552E-05  0.125E-02    9.60       1.6  T
   4    -50.7516247 -0.532290E-06  0.500E-03    9.60       3.9  T
   5    -50.7516247 -0.324954E-07  0.136E-03    9.60      14.5  T
   6    -50.7516247 -0.146883E-08  0.820E-04    9.60      23.9  T
speedup  1.13
cpu  time for SCC    0.01 s
wall time for SCC    0.01 s
speedup  1.05
cpu  time for grad    0.01 s
wall time for grad    0.01 s
 E :    -50.46785526  G :  0.009003    pred/act E change: -0.110D-03 -0.580D-04
Maxdispl :   0.0245   ||displ|| :   0.0468   Lambda : -0.108D-03
Largest |displ|/coords:  0.0245 (   8)  0.0140 (  21)  0.0139 (  13)
................................................................................
.............................. CYCLE   48 ......................................
................................................................................
   1    -50.7523426 -0.507523E+02  0.312E-02    9.60       0.0  T
   2    -50.7523434 -0.755004E-06  0.232E-02    9.60       1.0  T
   3    -50.7523439 -0.466560E-06  0.514E-03    9.59       3.8  T
   4    -50.7523440 -0.854052E-07  0.164E-03    9.59      11.9  T
   5    -50.7523440 -0.615558E-08  0.530E-04    9.59      37.0  T
speedup  1.11
cpu  time for SCC    0.00 s
wall time for SCC    0.00 s
speedup  1.05
cpu  time for grad    0.01 s
wall time for grad    0.01 s
 E :    -50.46790968  G :  0.004119    pred/act E change: -0.985D-04 -0.544D-04
Maxdispl :   0.1026   ||displ|| :   0.1634   Lambda : -0.839D-04
Largest |displ|/coords:  0.1026 (   1)  0.0652 (   5)  0.0493 (  21)
................................................................................
.............................. CYCLE   49 ......................................
................................................................................
   1    -50.7532454 -0.507532E+02  0.579E-02    9.60       0.0  T
   2    -50.7532460 -0.572378E-06  0.437E-02    9.60       1.0  T
   3    -50.7532466 -0.589430E-06  0.381E-03    9.60       5.1  T
   4    -50.7532466 -0.603291E-07  0.164E-03    9.60      12.0  T
   5    -50.7532466 -0.435768E-08  0.607E-04    9.60      32.3  T
speedup  0.89
cpu  time for SCC    0.00 s
wall time for SCC    0.00 s
speedup  0.94
cpu  time for grad    0.01 s
wall time for grad    0.01 s
 E :    -50.46796938  G :  0.003225    pred/act E change: -0.543D-04 -0.597D-04
Maxdispl :   0.3425   ||displ|| :   0.5489   Lambda : -0.157D-03
Largest |displ|/coords:  0.3425 (   1)  0.2585 (   5)  0.1434 (  21)
................................................................................
.............................. CYCLE   50 ......................................
................................................................................
   1    -50.7528971 -0.507529E+02  0.183E-01    9.61       0.0  T
   2    -50.7529009 -0.375781E-05  0.138E-01    9.61       1.0  T
   3    -50.7529048 -0.390380E-05  0.102E-02    9.61       1.9  T
   4    -50.7529052 -0.398818E-06  0.437E-03    9.61       4.5  T
   5    -50.7529052 -0.246468E-07  0.150E-03    9.61      13.1  T
   6    -50.7529052 -0.251188E-08  0.656E-04    9.61      29.9  T
   7    -50.7529052 -0.124230E-08  0.148E-04    9.61     132.2  T
speedup  1.11
cpu  time for SCC    0.01 s
wall time for SCC    0.01 s
speedup  0.99
cpu  time for grad    0.01 s
wall time for grad    0.02 s
 E :    -50.46809667  G :  0.006957    pred/act E change: -0.431D-04 -0.127D-03
Maxdispl :   0.3781   ||displ|| :   0.6139   Lambda : -0.199D-03
Largest |displ|/coords:  0.3781 (   1)  0.2720 (   5)  0.1679 (  21)
................................................................................
.............................. CYCLE   51 ......................................
................................................................................
   1    -50.7518271 -0.507518E+02  0.204E-01    9.60       0.0  T
   2    -50.7518320 -0.486600E-05  0.154E-01    9.60       1.0  T
   3    -50.7518362 -0.423252E-05  0.127E-02    9.60       1.5  T
   4    -50.7518369 -0.628718E-06  0.457E-03    9.60       4.3  T
   5    -50.7518369 -0.324969E-07  0.171E-03    9.60      11.5  T
   6    -50.7518369 -0.279927E-08  0.785E-04    9.60      25.0  T
speedup  1.05
cpu  time for SCC    0.01 s
wall time for SCC    0.01 s
speedup  0.94
cpu  time for grad    0.01 s
wall time for grad    0.01 s
 E :    -50.46821718  G :  0.010970    pred/act E change: -0.102D-03 -0.121D-03
Maxdispl :   0.1583   ||displ|| :   0.2813   Lambda : -0.273D-03
Largest |displ|/coords:  0.1583 (   1)  0.1161 (   3)  0.0890 (   4)
................................................................................
.............................. CYCLE   52 ......................................
................................................................................
   1    -50.7549932 -0.507550E+02  0.140E-01    9.60       0.0  T
   2    -50.7549984 -0.515710E-05  0.104E-01    9.60       1.0  T
   3    -50.7550020 -0.365905E-05  0.146E-02    9.60       1.3  T
   4    -50.7550027 -0.651993E-06  0.354E-03    9.60       5.5  T
   5    -50.7550027 -0.207709E-07  0.158E-03    9.60      12.4  T
   6    -50.7550027 -0.270681E-08  0.839E-04    9.60      23.4  T
speedup  0.93
cpu  time for SCC    0.00 s
wall time for SCC    0.01 s
speedup  0.96
cpu  time for grad    0.01 s
wall time for grad    0.01 s
 E :    -50.46831234  G :  0.010773    pred/act E change: -0.137D-03 -0.952D-04
Maxdispl :   0.2673   ||displ|| :   0.4605   Lambda : -0.283D-03
Largest |displ|/coords:  0.2673 (   1)  0.2181 (   5)  0.1362 (   2)

generating ANC from model Hessian ...
 Shifting diagonal of input Hessian by   4.931840875232909E-003
 Lowest  eigenvalues of input Hessian
   -0.000000   -0.000000   -0.000000   -0.000000    0.000000    0.000000
    0.005000    0.005244    0.005379    0.005625    0.005873    0.006475
    0.007470    0.007861    0.008311    0.009254    0.009659    0.010187
 Highest eigenvalues
    1.394440    1.397748    1.487478    2.833172    3.416215    3.491052
 
cpu  time for ANC gen    0.01 s
wall time for ANC gen    0.01 s
................................................................................
.............................. CYCLE   53 ......................................
................................................................................
   1    -50.7511222 -0.507511E+02  0.156E-01    9.57       0.0  T
   2    -50.7511264 -0.427655E-05  0.118E-01    9.57       1.0  T
   3    -50.7511309 -0.440800E-05  0.114E-02    9.57       1.7  T
   4    -50.7511313 -0.427526E-06  0.417E-03    9.57       4.7  T
   5    -50.7511313 -0.264092E-07  0.165E-03    9.57      11.9  T
   6    -50.7511313 -0.254450E-08  0.801E-04    9.57      24.5  T
   7    -50.7511313 -0.158035E-08  0.157E-04    9.57     124.6  T
speedup  0.95
cpu  time for SCC    0.01 s
wall time for SCC    0.01 s
speedup  1.01
cpu  time for grad    0.01 s
wall time for grad    0.01 s
 E :    -50.46845537  G :  0.009560    pred/act E change:  0.000D+00 -0.143D-03
Maxdispl :   0.0865   ||displ|| :   0.1489   Lambda : -0.267D-03
Largest |displ|/coords:  0.0865 (   2)  0.0641 (   7)  0.0574 (   6)
................................................................................
.............................. CYCLE   54 ......................................
................................................................................
   1    -50.7529585 -0.507530E+02  0.101E-01    9.58       0.0  T
   2    -50.7529601 -0.167357E-05  0.760E-02    9.58       1.0  T
   3    -50.7529619 -0.174776E-05  0.770E-03    9.58       2.5  T
   4    -50.7529621 -0.172315E-06  0.274E-03    9.58       7.2  T
   5    -50.7529621 -0.107275E-07  0.105E-03    9.58      18.6  T
speedup  0.87
cpu  time for SCC    0.00 s
wall time for SCC    0.00 s
speedup  0.94
cpu  time for grad    0.01 s
wall time for grad    0.01 s
 E :    -50.46861293  G :  0.004784    pred/act E change:  0.000D+00 -0.158D-03
Maxdispl :   0.0929   ||displ|| :   0.1356   Lambda : -0.143D-03
Largest |displ|/coords:  0.0929 (   2)  0.0621 (   3)  0.0325 (  17)
................................................................................
.............................. CYCLE   55 ......................................
................................................................................
   1    -50.7546484 -0.507546E+02  0.863E-02    9.60       0.0  T
   2    -50.7546494 -0.983212E-06  0.650E-02    9.60       1.0  T
   3    -50.7546503 -0.857041E-06  0.634E-03    9.60       3.1  T
   4    -50.7546504 -0.117332E-06  0.229E-03    9.60       8.5  T
   5    -50.7546504 -0.607246E-08  0.710E-04    9.60      27.6  T
speedup  0.82
cpu  time for SCC    0.00 s
wall time for SCC    0.00 s
speedup  0.93
cpu  time for grad    0.01 s
wall time for grad    0.01 s
 E :    -50.46871732  G :  0.003387    pred/act E change: -0.137D-03 -0.104D-03
Maxdispl :   0.1822   ||displ|| :   0.2531   Lambda : -0.151D-03
Largest |displ|/coords:  0.1822 (   2)  0.1126 (   3)  0.0556 (  12)
................................................................................
.............................. CYCLE   56 ......................................
................................................................................
   1    -50.7546918 -0.507547E+02  0.155E-01    9.61       0.0  T
   2    -50.7546945 -0.272364E-05  0.117E-01    9.61       1.0  T
   3    -50.7546976 -0.310495E-05  0.934E-03    9.62       2.1  T
   4    -50.7546978 -0.210154E-06  0.379E-03    9.62       5.2  T
   5    -50.7546978 -0.144615E-07  0.122E-03    9.62      16.1  T
   6    -50.7546978 -0.200926E-08  0.731E-04    9.62      26.8  T
   7    -50.7546978 -0.102397E-08  0.171E-04    9.62     114.7  T
speedup  0.92
cpu  time for SCC    0.01 s
wall time for SCC    0.01 s
speedup  0.99
cpu  time for grad    0.01 s
wall time for grad    0.02 s
 E :    -50.46882556  G :  0.007011    pred/act E change: -0.730D-04 -0.108D-03
Maxdispl :   0.2357   ||displ|| :   0.3240   Lambda : -0.176D-03
Largest |displ|/coords:  0.2357 (   2)  0.1423 (   3)  0.0750 (  12)
................................................................................
.............................. CYCLE   57 ......................................
................................................................................
   1    -50.7539853 -0.507540E+02  0.158E-01    9.62       0.0  T
   2    -50.7539883 -0.293354E-05  0.119E-01    9.62       1.0  T
   3    -50.7539918 -0.351280E-05  0.963E-03    9.62       2.0  T
   4    -50.7539920 -0.189639E-06  0.406E-03    9.62       4.8  T
   5    -50.7539920 -0.171319E-07  0.121E-03    9.62      16.1  T
   6    -50.7539920 -0.178462E-08  0.758E-04    9.62      25.9  T
speedup  0.91
cpu  time for SCC    0.00 s
wall time for SCC    0.01 s
speedup  0.96
cpu  time for grad    0.01 s
wall time for grad    0.01 s
 E :    -50.46895567  G :  0.007283    pred/act E change: -0.806D-04 -0.130D-03
Maxdispl :   0.2823   ||displ|| :   0.3854   Lambda : -0.192D-03
Largest |displ|/coords:  0.2823 (   2)  0.1835 (   3)  0.0782 (  12)
................................................................................
.............................. CYCLE   58 ......................................
................................................................................
   1    -50.7523894 -0.507524E+02  0.167E-01    9.60       0.0  T
   2    -50.7523931 -0.369261E-05  0.126E-01    9.60       1.0  T
   3    -50.7523975 -0.443674E-05  0.102E-02    9.61       1.9  T
   4    -50.7523978 -0.240912E-06  0.437E-03    9.61       4.5  T
   5    -50.7523978 -0.220090E-07  0.132E-03    9.61      14.8  T
   6    -50.7523978 -0.211630E-08  0.793E-04    9.61      24.7  T
speedup  1.11
cpu  time for SCC    0.01 s
wall time for SCC    0.01 s
speedup  1.03
cpu  time for grad    0.01 s
wall time for grad    0.01 s
 E :    -50.46909483  G :  0.008351    pred/act E change: -0.972D-04 -0.139D-03
Maxdispl :   0.2468   ||displ|| :   0.3343   Lambda : -0.200D-03
Largest |displ|/coords:  0.2468 (   2)  0.1360 (   3)  0.0770 (   4)
................................................................................
.............................. CYCLE   59 ......................................
................................................................................
   1    -50.7533647 -0.507534E+02  0.114E-01    9.59       0.0  T
   2    -50.7533671 -0.242049E-05  0.859E-02    9.59       1.0  T
   3    -50.7533694 -0.225868E-05  0.875E-03    9.59       2.2  T
   4    -50.7533696 -0.267737E-06  0.319E-03    9.59       6.2  T
   5    -50.7533696 -0.149596E-07  0.101E-03    9.59      19.5  T
   6    -50.7533696 -0.899831E-09  0.576E-04    9.59      34.0  T
speedup  0.93
cpu  time for SCC    0.00 s
wall time for SCC    0.01 s
speedup  0.96
cpu  time for grad    0.01 s
wall time for grad    0.01 s
 E :    -50.46920618  G :  0.007639    pred/act E change: -0.110D-03 -0.111D-03
Maxdispl :   0.4112   ||displ|| :   0.5455   Lambda : -0.301D-03
Largest |displ|/coords:  0.4112 (   2)  0.2426 (   3)  0.1377 (   4)
................................................................................
.............................. CYCLE   60 ......................................
................................................................................
   1    -50.7492128 -0.507492E+02  0.257E-01    9.56       0.0  T
   2    -50.7492279 -0.150971E-04  0.194E-01    9.56       1.0  T
   3    -50.7492426 -0.147771E-04  0.209E-02    9.57       1.0  T
   4    -50.7492444 -0.179195E-05  0.778E-03    9.57       2.5  T
   5    -50.7492445 -0.971473E-07  0.303E-03    9.57       6.5  T
   6    -50.7492445 -0.940332E-08  0.159E-03    9.57      12.3  T
   7    -50.7492445 -0.705180E-08  0.300E-04    9.57      65.3  T
speedup  0.97
cpu  time for SCC    0.01 s
wall time for SCC    0.01 s
speedup  1.04
cpu  time for grad    0.01 s
wall time for grad    0.01 s
 E :    -50.46907353  G :  0.022067    pred/act E change: -0.111D-03  0.133D-03
Maxdispl :   0.1602   ||displ|| :   0.2450   Lambda : -0.684D-03
Largest |displ|/coords:  0.1602 (   2)  0.0985 (   3)  0.0704 (   6)
................................................................................
.............................. CYCLE   61 ......................................
................................................................................
   1    -50.7545196 -0.507545E+02  0.148E-01    9.63       0.0  T
   2    -50.7545295 -0.989329E-05  0.111E-01    9.63       1.0  T
   3    -50.7545361 -0.662196E-05  0.188E-02    9.62       1.0  T
   4    -50.7545374 -0.135360E-05  0.506E-03    9.62       3.9  T
   5    -50.7545375 -0.654509E-07  0.197E-03    9.62      10.0  T
speedup  1.11
cpu  time for SCC    0.00 s
wall time for SCC    0.00 s
speedup  1.02
cpu  time for grad    0.01 s
wall time for grad    0.01 s
 E :    -50.46938922  G :  0.004998    pred/act E change: -0.196D-03 -0.316D-03
Maxdispl :   0.0993   ||displ|| :   0.1312   Lambda : -0.779D-04
Largest |displ|/coords:  0.0993 (   2)  0.0440 (   3)  0.0331 (   4)
................................................................................
.............................. CYCLE   62 ......................................
................................................................................
   1    -50.7544743 -0.507545E+02  0.649E-02    9.63       0.0  T
   2    -50.7544748 -0.490870E-06  0.489E-02    9.63       1.0  T
   3    -50.7544752 -0.446672E-06  0.424E-03    9.63       4.6  T
   4    -50.7544753 -0.588647E-07  0.165E-03    9.63      11.9  T
   5    -50.7544753 -0.294653E-08  0.518E-04    9.63      37.8  T
speedup  0.89
cpu  time for SCC    0.00 s
wall time for SCC    0.00 s
speedup  0.95
cpu  time for grad    0.01 s
wall time for grad    0.01 s
 E :    -50.46944747  G :  0.004634    pred/act E change: -0.363D-03 -0.583D-04
Maxdispl :   0.2196   ||displ|| :   0.2966   Lambda : -0.161D-03
Largest |displ|/coords:  0.2196 (   2)  0.1147 (   3)  0.1032 (   4)
................................................................................
.............................. CYCLE   63 ......................................
................................................................................
   1    -50.7556089 -0.507556E+02  0.141E-01    9.65       0.0  T
   2    -50.7556114 -0.253484E-05  0.106E-01    9.65       1.0  T
   3    -50.7556135 -0.205241E-05  0.975E-03    9.65       2.0  T
   4    -50.7556138 -0.353203E-06  0.413E-03    9.65       4.8  T
   5    -50.7556138 -0.184004E-07  0.119E-03    9.65      16.4  T
   6    -50.7556138 -0.122758E-08  0.688E-04    9.65      28.5  T
speedup  1.13
cpu  time for SCC    0.01 s
wall time for SCC    0.01 s
speedup  1.04
cpu  time for grad    0.01 s
wall time for grad    0.01 s
 E :    -50.46953579  G :  0.006344    pred/act E change: -0.396D-04 -0.883D-04
Maxdispl :   0.2359   ||displ|| :   0.3225   Lambda : -0.119D-03
Largest |displ|/coords:  0.2359 (   2)  0.1432 (   3)  0.1024 (   5)
................................................................................
.............................. CYCLE   64 ......................................
................................................................................
   1    -50.7530038 -0.507530E+02  0.154E-01    9.66       0.0  T
   2    -50.7530083 -0.453626E-05  0.116E-01    9.66       1.0  T
   3    -50.7530124 -0.404432E-05  0.133E-02    9.66       1.5  T
   4    -50.7530129 -0.579769E-06  0.479E-03    9.66       4.1  T
   5    -50.7530130 -0.375918E-07  0.173E-03    9.66      11.3  T
   6    -50.7530130 -0.287599E-08  0.940E-04    9.66      20.9  T
speedup  1.13
cpu  time for SCC    0.01 s
wall time for SCC    0.01 s
speedup  1.04
cpu  time for grad    0.01 s
wall time for grad    0.01 s
 E :    -50.46950111  G :  0.011377    pred/act E change: -0.875D-04  0.347D-04
Maxdispl :   0.0981   ||displ|| :   0.1359   Lambda : -0.218D-03
Largest |displ|/coords:  0.0981 (   2)  0.0631 (   3)  0.0495 (   5)
................................................................................
.............................. CYCLE   65 ......................................
................................................................................
   1    -50.7559396 -0.507559E+02  0.701E-02    9.66       0.0  T
   2    -50.7559410 -0.142486E-05  0.527E-02    9.66       1.0  T
   3    -50.7559421 -0.112474E-05  0.713E-03    9.66       2.8  T
   4    -50.7559423 -0.192384E-06  0.241E-03    9.66       8.2  T
[...]
speedup  1.08
cpu  time for SCC    0.00 s
wall time for SCC    0.00 s
speedup  0.98
cpu  time for grad    0.01 s
wall time for grad    0.01 s
 E :    -50.47015650  G :  0.000405    pred/act E change: -0.111D-05 -0.411D-06
Maxdispl :   0.0126   ||displ|| :   0.0195   Lambda : -0.629D-06
Largest |displ|/coords:  0.0126 (   3)  0.0119 (   1)  0.0038 (   7)
................................................................................
.............................. CYCLE   99 ......................................
................................................................................
   1    -50.7559601 -0.507560E+02  0.123E-02    9.63       0.0  T
   2    -50.7559602 -0.177059E-07  0.928E-03    9.63       2.1  T
   3    -50.7559602 -0.213383E-07  0.868E-04    9.63      22.6  T
   4    -50.7559602 -0.121543E-08  0.277E-04    9.63      70.9  T
speedup  1.08
cpu  time for SCC    0.00 s
wall time for SCC    0.00 s
speedup  1.04
cpu  time for grad    0.01 s
wall time for grad    0.01 s
 E :    -50.47015688  G :  0.000274    pred/act E change: -0.281D-06 -0.383D-06
Maxdispl :   0.0036   ||displ|| :   0.0071   Lambda : -0.311D-06
Largest |displ|/coords:  0.0036 (   1)  0.0032 (   3)  0.0022 (   2)
................................................................................
.............................. CYCLE  100 ......................................
................................................................................
   1    -50.7560428 -0.507560E+02  0.510E-03    9.63       0.0  T
   2    -50.7560428 -0.652163E-08  0.382E-03    9.63       5.1  T
   3    -50.7560428 -0.463437E-08  0.501E-04    9.63      39.2  T
   4    -50.7560428 -0.928779E-09  0.171E-04    9.63     114.9  T
speedup  1.08
cpu  time for SCC    0.00 s
wall time for SCC    0.00 s
speedup  0.97
cpu  time for grad    0.01 s
wall time for grad    0.01 s
 E :    -50.47015700  G :  0.000375    pred/act E change: -0.315D-06 -0.118D-06
Maxdispl :   0.0075   ||displ|| :   0.0106   Lambda : -0.258D-06
Largest |displ|/coords:  0.0075 (   1)  0.0061 (   3)  0.0023 (   5)
................................................................................
.............................. CYCLE  101 ......................................
................................................................................
   1    -50.7559949 -0.507560E+02  0.551E-03    9.63       0.0  T
   2    -50.7559950 -0.503725E-08  0.414E-03    9.63       4.7  T
   3    -50.7559950 -0.479638E-08  0.459E-04    9.63      42.7  T
   4    -50.7559950 -0.618890E-09  0.158E-04    9.63     123.8  T
speedup  0.81
cpu  time for SCC    0.00 s
wall time for SCC    0.00 s
speedup  0.98
cpu  time for grad    0.01 s
wall time for grad    0.01 s
 E :    -50.47015718  G :  0.000251    pred/act E change: -0.156D-06 -0.178D-06
Maxdispl :   0.0029   ||displ|| :   0.0057   Lambda : -0.261D-06
Largest |displ|/coords:  0.0029 (   2)  0.0025 (   4)  0.0022 (  17)
................................................................................
.............................. CYCLE  102 ......................................
................................................................................
   1    -50.7560202 -0.507560E+02  0.464E-03    9.63       0.0  T
   2    -50.7560202 -0.371062E-08  0.346E-03    9.63       5.7  T
   3    -50.7560202 -0.308280E-08  0.458E-04    9.63      42.8  T
   4    -50.7560202 -0.411035E-09  0.106E-04    9.63     184.9  T
speedup  1.08
cpu  time for SCC    0.00 s
wall time for SCC    0.00 s
speedup  0.98
cpu  time for grad    0.01 s
wall time for grad    0.01 s
 E :    -50.47015737  G :  0.000271    pred/act E change: -0.129D-06 -0.190D-06
Maxdispl :   0.0176   ||displ|| :   0.0235   Lambda : -0.379D-06
Largest |displ|/coords:  0.0176 (   1)  0.0118 (   3)  0.0055 (   4)
................................................................................
.............................. CYCLE  103 ......................................
................................................................................
   1    -50.7559872 -0.507560E+02  0.114E-02    9.63       0.0  T
   2    -50.7559873 -0.145619E-07  0.859E-03    9.63       2.3  T
   3    -50.7559873 -0.143172E-07  0.886E-04    9.63      22.1  T
   4    -50.7559873 -0.157991E-08  0.286E-04    9.63      68.6  T
speedup  1.08
cpu  time for SCC    0.00 s
wall time for SCC    0.00 s
speedup  1.06
cpu  time for grad    0.01 s
wall time for grad    0.01 s
 E :    -50.47015761  G :  0.000311    pred/act E change: -0.131D-06 -0.242D-06
Maxdispl :   0.0100   ||displ|| :   0.0151   Lambda : -0.297D-06
Largest |displ|/coords:  0.0100 (   1)  0.0069 (   3)  0.0054 (   2)
................................................................................
.............................. CYCLE  104 ......................................
................................................................................
   1    -50.7560266 -0.507560E+02  0.812E-03    9.63       0.0  T
   2    -50.7560266 -0.799715E-08  0.610E-03    9.63       3.2  T
   3    -50.7560266 -0.760534E-08  0.613E-04    9.63      32.0  T
   4    -50.7560266 -0.850036E-09  0.190E-04    9.63     103.2  T
speedup  0.79
cpu  time for SCC    0.00 s
wall time for SCC    0.00 s
speedup  0.97
cpu  time for grad    0.01 s
wall time for grad    0.01 s
 E :    -50.47015784  G :  0.000250    pred/act E change: -0.190D-06 -0.224D-06
Maxdispl :   0.0121   ||displ|| :   0.0204   Lambda : -0.356D-06
Largest |displ|/coords:  0.0121 (   1)  0.0098 (   2)  0.0092 (   3)
................................................................................
.............................. CYCLE  105 ......................................
................................................................................
   1    -50.7560686 -0.507561E+02  0.113E-02    9.63       0.0  T
   2    -50.7560686 -0.165965E-07  0.851E-03    9.63       2.3  T
   3    -50.7560687 -0.169480E-07  0.763E-04    9.63      25.7  T
   4    -50.7560687 -0.161180E-08  0.267E-04    9.63      73.5  T
speedup  1.11
cpu  time for SCC    0.00 s
wall time for SCC    0.00 s
speedup  0.98
cpu  time for grad    0.01 s
wall time for grad    0.01 s
 E :    -50.47015808  G :  0.000192    pred/act E change: -0.136D-06 -0.248D-06
Maxdispl :   0.0087   ||displ|| :   0.0154   Lambda : -0.200D-06
Largest |displ|/coords:  0.0087 (   1)  0.0079 (   2)  0.0073 (   3)
................................................................................
.............................. CYCLE  106 ......................................
................................................................................
   1    -50.7560810 -0.507561E+02  0.785E-03    9.63       0.0  T
   2    -50.7560810 -0.863333E-08  0.593E-03    9.63       3.3  T
   3    -50.7560810 -0.857261E-08  0.537E-04    9.63      36.5  T
   4    -50.7560810 -0.895461E-09  0.210E-04    9.63      93.5  T
speedup  1.11
cpu  time for SCC    0.00 s
wall time for SCC    0.00 s
speedup  1.05
cpu  time for grad    0.01 s
wall time for grad    0.01 s
 E :    -50.47015824  G :  0.000182    pred/act E change: -0.178D-06 -0.153D-06
Maxdispl :   0.0080   ||displ|| :   0.0111   Lambda : -0.145D-06
Largest |displ|/coords:  0.0080 (   2)  0.0040 (   3)  0.0038 (   1)
................................................................................
.............................. CYCLE  107 ......................................
................................................................................
   1    -50.7560815 -0.507561E+02  0.618E-03    9.63       0.0  T
   2    -50.7560815 -0.637612E-08  0.467E-03    9.63       4.2  T
   3    -50.7560815 -0.639497E-08  0.440E-04    9.63      44.5  T
   4    -50.7560815 -0.640448E-09  0.185E-04    9.63     106.1  T
speedup  1.11
cpu  time for SCC    0.00 s
wall time for SCC    0.00 s
speedup  0.98
cpu  time for grad    0.01 s
wall time for grad    0.01 s
 E :    -50.47015834  G :  0.000145    pred/act E change: -0.100D-06 -0.105D-06
Maxdispl :   0.0038   ||displ|| :   0.0052   Lambda : -0.717D-07
Largest |displ|/coords:  0.0038 (   2)  0.0018 (   6)  0.0016 (   1)
................................................................................
.............................. CYCLE  108 ......................................
................................................................................
   1    -50.7560739 -0.507561E+02  0.302E-03    9.63       0.0  T
   2    -50.7560739 -0.124330E-08  0.227E-03    9.63       8.6  T
   3    -50.7560739 -0.122040E-08  0.204E-04    9.63      96.2  T
   4    -50.7560739 -0.120657E-09  0.846E-05    9.63     231.7  T
speedup  1.11
cpu  time for SCC    0.00 s
wall time for SCC    0.00 s
speedup  0.98
cpu  time for grad    0.01 s
wall time for grad    0.01 s
 E :    -50.47015840  G :  0.000113    pred/act E change: -0.725D-07 -0.565D-07
Maxdispl :   0.0033   ||displ|| :   0.0053   Lambda : -0.512D-07
Largest |displ|/coords:  0.0033 (   2)  0.0019 (   1)  0.0019 (   6)

   *** GEOMETRY OPTIMIZATION CONVERGED AFTER 108 ITERATIONS ***

------------------------------------------------------------------------
 total energy gain (kcal):     -0.0603
------------------------------------------------------------------------
================
 final structure:
================
$coord
        1.19015827281792        0.90012743959264        1.28081845298021      S 
       -0.16849855334824        0.59243452776571       -1.12450918649007      O 
       -0.39363256114935        0.16413366839086        3.40649164176122      O 
        3.58327243449611       -0.44907368743121        1.22448404556301      O 
        1.71787513134601        3.75394977025593        1.62334997427875      O 
        1.40240821356625       -4.82872704629687        2.46134147982899      O 
        0.79996700687218       -4.38233268264277        4.11308900305600      H 
        2.49299297274167       -3.42222770979468        1.97578208795348      H 
        4.45828275210788        0.14864531965037       -3.65110808875644      O 
        2.71856069629646       -0.00273234798104       -4.15669760958361      H 
        4.46047809282476       -0.37070771557176       -1.87465633288577      H 
       -2.18590343756073       -4.06684820560754       -1.04415993029967      O 
       -0.95441000487639       -4.85321435862903        0.09548289098221      H 
       -1.36669941850317       -2.48804025183869       -1.53884060750274      H 
       -4.69937690763571        2.63355897706897       -1.38864366924385      O 
       -2.90557432985493        2.13462596767605       -1.36074715455573      H 
       -5.14465574351398        2.82395836334183       -3.13389692922260      H 
        4.74245486885636        4.86060635793093       -2.06746225532319      O 
        4.76711386992138        3.20705013908340       -2.94935720366135      H 
        2.82389717119186        4.31607242128069        0.20035960389987      H 
        6.40984180913012        5.09917507664309       -1.39576292399751      H 
       -4.83947259399168       -1.17361435386520        1.90193458950013      N 
       -6.19170732736515       -1.70491448234245        3.14880354407099      H 
       -4.16202353647528       -2.67022768622994        0.71985547354474      H 
       -5.40656488670614        0.30437011327930        0.73221621859143      H 
       -3.14878399120103       -0.52604757592143        2.80183286661595      H 
$end
 
 Bond Distances (Angstroems)
 ---------------------------
S1-O2=1.4709         S1-O3=1.4558         S1-O4=1.4541         S1-O5=1.5464         O2-S1=1.4709         O3-S1=1.4558         
O4-S1=1.4541         O5-S1=1.5464         O5-H20=0.9990        O6-H7=0.9599         O6-H8=0.9762         H7-O6=0.9599         
H8-O6=0.9762         O9-H10=0.9621        O9-H11=0.9794        H10-O9=0.9621        H11-O9=0.9794        O12-H13=0.9806       
O12-H14=0.9770       H13-O12=0.9806       H14-O12=0.9770       O15-H16=0.9854       O15-H17=0.9584       H16-O15=0.9854       
H17-O15=0.9584       O18-H19=0.9918       O18-H21=0.9596       H19-O18=0.9918       H20-O5=0.9990        H21-O18=0.9596       
N22-H23=1.0131       N22-H24=1.0710       N22-H25=1.0416       N22-H26=1.0699       H23-N22=1.0131       H24-N22=1.0710       
H25-N22=1.0416       H26-N22=1.0699       
 N  H  Rav=1.0489 sigma=0.0238  Rmin=1.0131  Rmax=1.0710     4
 O  H  Rav=0.9754 sigma=0.0132  Rmin=0.9584  Rmax=0.9990    11
 S  O  Rav=1.4818 sigma=0.0379  Rmin=1.4541  Rmax=1.5464     4
 
 selected bond angles (degree)
 --------------------
O3-S1-O2=110.95                O4-S1-O2=110.71                O4-S1-O3=112.70                O5-S1-O2=107.33                
O5-S1-O3=105.94                O5-S1-O4=108.94                H20-O5-S1=107.95               H8-O6-H7=104.38                
H11-O9-H10=104.16              
 
 selected dihedral angles (degree)
 ---------------------------------
H20-O5-S1-O2=297.88           H20-O5-S1-O3=179.28           H20-O5-S1-O4= 57.80           
 
 CMA Distance (Angstroems)
 ---------------------------
R(CMA):  1.4086

========================================================================
 FINAL SINGLEPOINT CALCULATION ON OPTIMIZED GEOMETRY
========================================================================

 Ncao       : 65
 Nao        : 64
 Nshell     : 38
 Nel        : 80
 T(el)      :   300.0
 intcut     :    25.0
 scfconv/Eh :  0.100E-05
   qconv/e  :  0.100E-03
 intneglect :  0.100E-07
 broydamp   :      0.250
 iter      E             dE          RMSdq      gap      omega  full diag
   1    -50.7560739 -0.507561E+02  0.360E-05    9.63       0.0  T
   2    -50.7560739 -0.824230E-12  0.223E-05    9.63     880.6  T
   3    -50.7560739 -0.319744E-12  0.303E-06    9.63    6476.8  T
speedup  0.74
cpu  time for SCC    0.00 s
wall time for SCC    0.00 s

   *** convergence criteria satisfied after 3 iterations ***

          eigenvalues
 #    :          28         29         30         31         32         33         34         35
 occ. :        2.000      2.000      2.000      2.000      2.000      2.000      2.000      2.000
 eps  :       -13.599    -13.173    -12.646    -12.456    -12.344    -12.295    -12.215    -12.170
 #    :          36         37         38         39         40         41         42         43
 occ. :        2.000      2.000      2.000      2.000      2.000      0.000      0.000      0.000
 eps  :       -12.114    -12.039    -11.907    -11.889    -11.852     -2.224     -0.878     -0.114
 #    :          44         45         46         47         48         49         50         51
 occ. :        0.000      0.000      0.000      0.000      0.000      0.000      0.000      0.000
 eps  :         0.810      1.258      1.512      1.922      2.707      3.696      3.984      5.400


   #   Z            q   n(s)   n(p)   n(d)      C6AA      α(0)
   1  16 S      1.721  1.581  1.761  0.936    88.286    15.814
   2   8 O     -0.792  1.778  5.014  0.000    31.338     7.506
   3   8 O     -0.735  1.760  4.976  0.000    29.681     7.305
   4   8 O     -0.759  1.779  4.980  0.000    30.366     7.388
   5   8 O     -0.626  1.761  4.864  0.000    25.778     6.854
   6   8 O     -0.611  1.741  4.870  0.000    25.449     6.809
   7   1 H      0.292  0.708  0.000  0.000     0.745     1.356
   8   1 H      0.315  0.685  0.000  0.000     0.678     1.293
   9   8 O     -0.607  1.746  4.861  0.000    25.352     6.796
  10   1 H      0.299  0.701  0.000  0.000     0.725     1.337
  11   1 H      0.319  0.681  0.000  0.000     0.666     1.282
  12   8 O     -0.617  1.754  4.863  0.000    25.600     6.829
  13   1 H      0.327  0.673  0.000  0.000     0.645     1.262
  14   1 H      0.316  0.684  0.000  0.000     0.676     1.292
  15   8 O     -0.614  1.743  4.871  0.000    25.527     6.819
  16   1 H      0.327  0.673  0.000  0.000     0.645     1.262
  17   1 H      0.289  0.711  0.000  0.000     0.754     1.364
  18   8 O     -0.611  1.756  4.856  0.000    25.458     6.810
  19   1 H      0.336  0.664  0.000  0.000     0.622     1.239
  20   1 H      0.381  0.619  0.000  0.000     0.518     1.128
  21   1 H      0.296  0.704  0.000  0.000     0.734     1.346
  22   7 N     -0.351  1.275  4.076  0.000    29.023     8.001
  23   1 H      0.228  0.772  0.000  0.000     0.974     1.546
  24   1 H      0.296  0.704  0.000  0.000     0.726     1.334
  25   1 H      0.284  0.716  0.000  0.000     0.764     1.369
  26   1 H      0.297  0.703  0.000  0.000     0.722     1.330

 Mol. C6AA /au·bohr⁶  :       5460.087710
 Mol. C8AA /au·bohr⁸  :     118070.421455
 Mol. α(0) /au        :        106.670698

 
 Wiberg/Mayer (AO) data. WBOs > 0.1 written file <wbo>
 largest (>0.05) Wiberg bond orders for each atom
           total WBO             WBO to atom ...
     1  S   4.814    O    3 1.297    O    4 1.280    O    2 1.224    O    5 0.969
     2  O   1.681    S    1 1.224    O    3 0.105    O    4 0.101    O    5 0.078    H   16 0.065
     3  O   1.751    S    1 1.297    H   26 0.120    O    2 0.105    O    4 0.100    O    5 0.064
     4  O   1.722    S    1 1.280    O    2 0.101    O    3 0.100    O    5 0.082    H   11 0.055
     5  O   1.963    S    1 0.969    H   20 0.722    O    4 0.082    O    2 0.078    O    3 0.064
     6  O   1.864    H    7 0.909    H    8 0.846    H   13 0.053
     7  H   0.915    O    6 0.909
     8  H   0.901    O    6 0.846
     9  O   1.896    H   10 0.901    H   11 0.840    H   19 0.083
    10  H   0.911    O    9 0.901
    11  H   0.898    O    9 0.840    O    4 0.055
    12  O   1.934    H   14 0.851    H   13 0.837    H   24 0.128    N   22 0.063
    13  H   0.893    O   12 0.837    O    6 0.053
    14  H   0.900    O   12 0.851
    15  O   1.872    H   17 0.910    H   16 0.824    H   25 0.069
    16  H   0.893    O   15 0.824    O    2 0.065
    17  H   0.916    O   15 0.910
    18  O   1.913    H   21 0.911    H   19 0.802    H   20 0.115
    19  H   0.887    O   18 0.802    O    9 0.083
    20  H   0.855    O    5 0.722    O   18 0.115
    21  H   0.913    O   18 0.911
    22  N   3.518    H   23 0.944    H   25 0.846    H   26 0.783    H   24 0.779    O   12 0.063
    23  H   0.948    N   22 0.944
    24  H   0.912    N   22 0.779    O   12 0.128
    25  H   0.919    N   22 0.846    O   15 0.069
    26  H   0.912    N   22 0.783    O    3 0.120
 MOs/occ written to file <molden.input>
 
molecular dipole:
                 x           y           z       tot (Debye)
 q only:       -2.317      -0.211       0.273
   full:       -1.796       0.126       0.410       4.694
molecular quadrupole (traceless):
                xx          xy          yy          xz          yz          zz
 q only:       13.689       9.304     -11.078      -4.822      -5.850      -2.612
  q+dip:       14.430       9.663     -14.611      -2.150      -6.685       0.181
   full:       14.529       9.973     -14.706      -2.162      -6.868       0.177

SCC energy    :     -50.7560739
rep           :       0.2856677
ES            :       0.2640722
AES           :      -0.0771091
AXC           :      -0.0095509
disp          :      -0.0202256
XB            :       0.0000000
fix           :       0.0000000
total E       :     -50.4701584
atomizationE  :       5.0004626     3137.84
(atE without considering molecular charge,
 total energy contains solvation terms)
H-L gap (eV)  :          9.6280
optimized geometry written to: xtbopt.xyz


------------------------------------------------------------------------
 * finished run on 2019/09/16 at 11:25:01.061     
------------------------------------------------------------------------
 total:
 * wall-time:     0 d,  0 h,  0 min,  2.435 sec
 *  cpu-time:     0 d,  0 h,  0 min,  2.413 sec
 * ratio c/w:     0.991 speedup
 SCF:
 * wall-time:     0 d,  0 h,  0 min,  0.147 sec
 *  cpu-time:     0 d,  0 h,  0 min,  0.144 sec
 * ratio c/w:     0.978 speedup
 ANC optimizer:
 * wall-time:     0 d,  0 h,  0 min,  2.261 sec
 *  cpu-time:     0 d,  0 h,  0 min,  2.245 sec
 * ratio c/w:     0.993 speedup

