      -----------------------------------------------------------      
     |                   =====================                   |     
     |                           x T B                           |     
     |                   =====================                   |     
     |                         S. Grimme                         |     
     |          Mulliken Center for Theoretical Chemistry        |     
     |                    University of Bonn                     |     
     |                 Version 6.0.1 (SAW181210)                 |     
      -----------------------------------------------------------      

   This program is distributed in the hope that it will be useful,
   but WITHOUT ANY WARRANTY; without even the implied warranty of
   MERCHANTABILITY or FITNESS FOR A PARTICULAR PURPOSE.
   
   FOR NON-COMMERCIAL, ACADEMIA USE ONLY.
   
   Cite this work as:
   S. Grimme, C. Bannwarth, P. Shushkov, J. Comput. Theory Chem., 2017,
   13, 1989-2009.
   C. Bannwarth, S. Ehlert and S. Grimme., ChemRxiv, 2018, preprint.
   http://doi.org/10.26434/chemrxiv.7246238.v1
   
   for sTDA-xTB:
   S. Grimme and C. Bannwarth, J. Chem. Phys., 2016, 145, 054103.
   
   in the mass-spec context:
   V. Asgeirsson, C. Bauer and S. Grimme, Chem. Sci., 2017, 8, 4879.
   
   if GBSA is used:
   P. Shushkov, F. März and S. Grimme, unpublished.
   
   for ANC optimizer:
   S. Grimme, unpublished.
   Rational Function algorithm used in ANCopt:
   F. Eckert, P. Pulay, H.-J. Werner, J. Comput. Chem., 1997, 18, 1473.
   
   with help from (in alphabetical order)
   C. Bannwarth, F. Bohle, G. Brandenburg, E. Caldeweyher, M. Checinski,
   S. Dohm, S. Ehlert, S. Ehrlich, F. März, H. Neugebauer, J. Pisarek,
   P. Pracht, P. Shushkov, and S. Spicher.
   
 * started run on 2019/09/16 at 11:35:29.897     
========================================================================
 # omp threads = 1
========================================================================
number of atoms            : 26
number of electrons        : 80
charge                     : 0
spin                       : .0
first test random number   : .4757

########################################################################
# WARNING! Please study the warnings concerning your input carefully
#  - XTBPATH is not set, using XTBHOME instead
#  - the use of '-opt' is discouraged, please use '--opt' next time
#  - the use of '-chrg' is discouraged, please use '--chrg' next time
#  - the use of '-uhf' is discouraged, please use '--uhf' next time
########################################################################

           ------------------------------------------------- 
          |                 G F N 2 - x T B                 |
          | Geometry, Frequencies, Noncovalent interactions |
          |            JCTC 2018 parametrisation            |
           ------------------------------------------------- 
      method parameters     
 k(s)        :  1.8500
 k(p)        :  2.2300
 k(d)        :  2.2300
 k(f)        :  2.0000
 kEN (H0ij)  : -2.0000
 D4 a1       :  0.5200
 D4 a2       :  5.0000
 D4 s6       :  1.0000
 D4 s8       :  2.7000
 D4 s9       :  5.0000
 alphaj      :  2.0000


            Z     q(EN)     CN     RAES       Cart. coordinates
     1  S   6.0    0.67    4.16    3.97     1.32265    -0.01117    -0.52493
     2  O   6.0   -0.32    1.19    1.80     0.31450     0.53736     2.04623
     3  O   6.0   -0.31    1.20    1.80     3.66078    -1.56446    -0.30459
     4  O   6.0   -0.32    1.19    1.80    -0.60788    -1.42614    -2.00784
     5  O   6.0   -0.32    1.22    1.80     1.92320     2.40855    -1.83351
     6  O   6.0   -0.29    2.05    1.83     0.93199    -8.08730     2.26536
     7  H   1.0    0.16    1.04    1.43     1.35570    -6.64399     3.29100
     8  H   1.0    0.15    0.97    1.43     0.46934    -9.39598     3.44347
     9  O   6.0   -0.29    2.04    1.83    -2.60476     3.05764    -4.19953
    10  H   1.0    0.16    0.99    1.43    -2.96886     1.29438    -3.92942
    11  H   1.0    0.17    1.03    1.43    -0.80568     3.21824    -3.97114
    12  O   6.0   -0.29    2.04    1.83     2.29372    -3.72883     4.31239
    13  H   1.0    0.16    1.00    1.43     3.65335    -3.17246     3.23699
    14  H   1.0    0.17    1.01    1.43     1.09767    -2.35627     4.32541
    15  O   6.0   -0.29    2.03    1.83    -4.47815     6.84957    -1.51299
    16  H   1.0    0.15    0.97    1.43    -5.98382     7.56762    -2.24237
    17  H   1.0    0.16    1.04    1.43    -3.98547     5.51177    -2.64530
    18  O   6.0   -0.22    2.92    2.58     1.73353    -5.82176    -1.99957
    19  H   1.0    0.14    1.06    1.44     1.34019    -6.98102    -0.58845
    20  H   1.0    0.14    1.02    1.43     0.25611    -4.78902    -2.49018
    21  H   1.0    0.14    1.02    1.43     3.23460    -4.76820    -1.64132
    22  N   5.0   -0.14    3.96    2.75    -0.43054     5.66029     1.39406
    23  H   1.0    0.08    0.99    1.43     0.34240     7.05968     2.50254
    24  H   1.0    0.10    1.06    1.44    -2.08903     6.30057     0.60418
    25  H   1.0    0.11    1.04    1.44     0.82026     5.18708    -0.01875
    26  H   1.0    0.11    1.02    1.43    -0.79579     4.09384     2.48826

  Z AO/shell   Hii/eV     exponent
  1     Wed Apr 25 08:07:45 CEST 2018   EN: 2.200 GM2: 0.406  GM3: 0.0800  RAES: 1.40
     1s    -10.707211    1.230000
  7     Wed Apr 25 08:07:45 CEST 2018   EN: 3.040 GM2: 0.461  GM3:-0.0640  RAES: 1.90
     2s    -16.686243    2.339881
     2p    -12.523956    2.014332
  8     Wed Apr 25 08:07:45 CEST 2018   EN: 3.440 GM2: 0.452  GM3:-0.0517  RAES: 1.80
     2s    -20.229985    2.439742
     2p    -15.503117    2.137023
 16     Tue Apr 24 11:44:34 CEST 2018   EN: 2.580 GM2: 0.340  GM3:-0.0502  RAES: 3.10
     3s    -20.029654    1.981333
     3p    -11.377694    2.025643
     3d     -0.420282    1.702555
 no old-style atom pair restraining (fixing) potential

molecular fragmentation (1/2 indicates fragments):
11111222222222222222222222
# atoms in fragment 1/2:     5    21
 fragment masses (1/2) :       96.06      109.12
CMA distance (Bohr)    :   1.854
constraining FC (au)   :  0.0500
           ------------------------------------------------- 
          |        Self-Consistent Charge Iterations        |
           ------------------------------------------------- 

 Ncao       : 65
 Nao        : 64
 Nshell     : 38
 Nel        : 80
 T(el)      :   300.0
 intcut     :    25.0
 scfconv/Eh :  0.100E-05
   qconv/e  :  0.100E-03
 intneglect :  0.100E-07
 broydamp   :      0.250
 iter      E             dE          RMSdq      gap      omega  full diag
   1    -50.6084279 -0.506084E+02  0.699E+00   10.53       0.0  T
   2    -50.6469690 -0.385412E-01  0.503E+00   10.14       1.0  T
   3    -50.6807383 -0.337692E-01  0.105E+00    8.04       1.0  T
   4    -50.6842780 -0.353976E-02  0.547E-01    7.96       1.0  T
   5    -50.6852019 -0.923887E-03  0.201E-01    7.81       1.0  T
   6    -50.6853985 -0.196620E-03  0.923E-02    7.88       1.0  T
   7    -50.6854491 -0.506124E-04  0.390E-02    7.91       1.0  T
   8    -50.6854556 -0.645734E-05  0.216E-02    7.91       1.0  T
   9    -50.6854586 -0.296873E-05  0.501E-03    7.90       3.9  T
  10    -50.6854586 -0.333315E-07  0.143E-03    7.90      13.7  T
  11    -50.6854586 -0.123409E-07  0.510E-04    7.90      38.5  T
  12    -50.6854586 -0.269978E-09  0.322E-04    7.90      60.8  T
speedup  0.92
cpu  time for SCC    0.01 s
wall time for SCC    0.01 s

   *** convergence criteria satisfied after 12 iterations ***

          eigenvalues
 #    :          28         29         30         31         32         33         34         35
 occ. :        2.000      2.000      2.000      2.000      2.000      2.000      2.000      2.000
 eps  :       -11.909    -11.890    -11.868    -11.347    -11.236    -10.482    -10.265     -9.767
 #    :          36         37         38         39         40         41         42         43
 occ. :        2.000      2.000      2.000      2.000      2.000      0.000      0.000      0.000
 eps  :        -9.597     -9.569     -9.455     -9.385     -9.274     -1.375     -1.136      0.728
 #    :          44         45         46         47         48         49         50         51
 occ. :        0.000      0.000      0.000      0.000      0.000      0.000      0.000      0.000
 eps  :         1.840      2.403      2.816      2.894      3.117      3.826      3.980      4.073


   #   Z            q   n(s)   n(p)   n(d)      C6AA      α(0)
   1  16 S      1.483  1.611  1.913  0.993    93.862    16.306
   2   8 O     -0.810  1.781  5.029  0.000    31.891     7.571
   3   8 O     -0.802  1.779  5.023  0.000    31.640     7.542
   4   8 O     -0.810  1.780  5.030  0.000    31.878     7.570
   5   8 O     -0.798  1.781  5.017  0.000    31.529     7.528
   6   8 O     -0.626  1.728  4.898  0.000    25.812     6.857
   7   1 H      0.341  0.659  0.000  0.000     0.610     1.226
   8   1 H      0.290  0.710  0.000  0.000     0.750     1.361
   9   8 O     -0.620  1.732  4.888  0.000    25.670     6.838
  10   1 H      0.307  0.693  0.000  0.000     0.699     1.313
  11   1 H      0.317  0.683  0.000  0.000     0.671     1.287
  12   8 O     -0.616  1.732  4.884  0.000    25.567     6.824
  13   1 H      0.311  0.689  0.000  0.000     0.690     1.304
  14   1 H      0.316  0.684  0.000  0.000     0.675     1.291
  15   8 O     -0.627  1.732  4.896  0.000    25.850     6.862
  16   1 H      0.284  0.716  0.000  0.000     0.772     1.380
  17   1 H      0.337  0.663  0.000  0.000     0.618     1.235
  18   8 O     -0.398  1.632  4.766  0.000    20.750     6.152
  19   1 H      0.416  0.584  0.000  0.000     0.456     1.060
  20   1 H      0.412  0.588  0.000  0.000     0.464     1.070
  21   1 H      0.413  0.587  0.000  0.000     0.461     1.067
  22   7 N     -0.274  1.240  4.034  0.000    27.058     7.726
  23   1 H      0.241  0.759  0.000  0.000     0.921     1.503
  24   1 H      0.306  0.694  0.000  0.000     0.694     1.305
  25   1 H      0.307  0.693  0.000  0.000     0.692     1.303
  26   1 H      0.297  0.703  0.000  0.000     0.723     1.332

 Mol. C6AA /au·bohr⁶  :       5483.672074
 Mol. C8AA /au·bohr⁸  :     119346.625400
 Mol. α(0) /au        :        106.814762

 
 Wiberg/Mayer (AO) data. WBOs > 0.1 written file <wbo>
 largest (>0.05) Wiberg bond orders for each atom
           total WBO             WBO to atom ...
     1  S   4.997    O    2 1.248    O    3 1.245    O    4 1.240    O    5 1.238
     2  O   1.634    S    1 1.248    O    5 0.099    O    4 0.096    O    3 0.094
     3  O   1.653    S    1 1.245    O    4 0.100    O    2 0.094    O    5 0.087    H   21 0.064
     4  O   1.640    S    1 1.240    O    3 0.100    O    2 0.096    O    5 0.092    H   20 0.063
     5  O   1.665    S    1 1.238    O    2 0.099    O    4 0.092    O    3 0.087    H   25 0.060
     6  O   1.852    H    8 0.901    H    7 0.817    H   19 0.077
     7  H   0.884    O    6 0.817    O   12 0.066
     8  H   0.916    O    6 0.901
     9  O   1.863    H   10 0.886    H   11 0.859    H   17 0.063
    10  H   0.905    O    9 0.886
    11  H   0.899    O    9 0.859
    12  O   1.871    H   13 0.880    H   14 0.870    H    7 0.066
    13  H   0.903    O   12 0.880
    14  H   0.900    O   12 0.870
    15  O   1.837    H   16 0.906    H   17 0.822    H   24 0.055
    16  H   0.919    O   15 0.906
    17  H   0.886    O   15 0.822    O    9 0.063
    18  O   2.348    H   20 0.761    H   21 0.758    H   19 0.742
    19  H   0.827    O   18 0.742    O    6 0.077
    20  H   0.830    O   18 0.761    O    4 0.063
    21  H   0.829    O   18 0.758    O    3 0.064
    22  N   3.578    H   23 0.937    H   26 0.869    H   24 0.844    H   25 0.838
    23  H   0.942    N   22 0.937
    24  H   0.906    N   22 0.844    O   15 0.055
    25  H   0.906    N   22 0.838    O    5 0.060
    26  H   0.912    N   22 0.869
 MOs/occ written to file <molden.input>
 
molecular dipole:
                 x           y           z       tot (Debye)
 q only:       -1.087       0.258       0.859
   full:       -1.054       0.380       0.976       3.777
molecular quadrupole (traceless):
                xx          xy          yy          xz          yz          zz
 q only:      -20.743      -9.074      38.896      -0.240      12.953     -18.153
  q+dip:      -17.835      -6.976      34.842       0.559      10.132     -17.007
   full:      -17.791      -7.002      35.076       0.604      10.066     -17.285

SCC energy    :     -50.6854586
rep           :       0.2955162
ES            :       0.3773058
AES           :      -0.0857157
AXC           :      -0.0105445
disp          :      -0.0179135
XB            :       0.0000000
fix           :       0.0000000
total E       :     -50.3898918
atomizationE  :       4.9201959     3087.47
(atE without considering molecular charge,
 total energy contains solvation terms)
H-L gap (eV)  :          7.8992
           ------------------------------------------------- 
          |                 ===============                 |
          |                   A N C O P T                   |
          |                 ===============                 |
          |          Approximate Normal Coordinate          |
          |           Rational Function Optimizer           |
           ------------------------------------------------- 
dumping coords to <xtbopt.coord> and <xtbopt.log>
 optlevel               2
 Maxcycle             520
 Maxmicro              25
 Econv         1.000000000000000E-007
 Gconv         2.000000000000000E-004
 Maxdispl       1.00000000000000     
 Hlow          5.000000000000000E-003
 S6             20.0000000000000     
 Nvar               72

generating ANC from model Hessian ...
 Shifting diagonal of input Hessian by   5.134882839500325E-003
 Lowest  eigenvalues of input Hessian
    0.005000   -0.000000   -0.000000   -0.000000    0.000000    0.000000
    0.000000    0.005141    0.005257    0.005506    0.005589    0.005623
    0.005661    0.005842    0.006296    0.006709    0.007319    0.007808
 Highest eigenvalues
    1.432899    1.545912    1.560251    3.073922    3.075138    3.077293
 
cpu  time for ANC gen    0.01 s
wall time for ANC gen    0.01 s
................................................................................
.............................. CYCLE    1 ......................................
................................................................................
   1    -50.6854586 -0.506855E+02  0.625E-05    7.90       0.0  T
   2    -50.6854586 -0.119869E-10  0.434E-05    7.90     452.4  T
   3    -50.6854586 -0.694911E-11  0.168E-05    7.90    1168.1  T
speedup  1.07
cpu  time for SCC    0.00 s
wall time for SCC    0.00 s
speedup  1.00
cpu  time for grad    0.01 s
wall time for grad    0.01 s
 E :    -50.38989177  G :  0.104188    pred/act E change:  0.000D+00  0.105D-07
Maxdispl :   0.4006   ||displ|| :   0.5891   Lambda : -0.300D-01
Largest |displ|/coords:  0.4006 (  19)  0.1748 (  30)  0.1551 (  21)
................................................................................
.............................. CYCLE    2 ......................................
................................................................................
   1    -50.6914117 -0.506914E+02  0.459E-01    8.12       0.0  T
   2    -50.6916343 -0.222556E-03  0.338E-01    8.21       1.0  T
   3    -50.6917455 -0.111202E-03  0.801E-02    8.39       1.0  T
   4    -50.6917707 -0.252502E-04  0.288E-02    8.38       1.0  T
   5    -50.6917718 -0.104394E-05  0.839E-03    8.38       2.3  T
   6    -50.6917719 -0.162736E-06  0.474E-03    8.38       4.1  T
   7    -50.6917720 -0.877132E-07  0.217E-03    8.37       9.1  T
speedup  0.94
cpu  time for SCC    0.01 s
wall time for SCC    0.01 s
speedup  1.00
cpu  time for grad    0.01 s
wall time for grad    0.01 s
 E :    -50.41643887  G :  0.065979    pred/act E change:  0.000D+00 -0.265D-01
Maxdispl :   0.4655   ||displ|| :   0.6566   Lambda : -0.232D-01
Largest |displ|/coords:  0.4655 (  19)  0.2078 (  21)  0.1985 (  30)
................................................................................
.............................. CYCLE    3 ......................................
................................................................................
   1    -50.6987829 -0.506988E+02  0.411E-01    8.61       0.0  T
   2    -50.6992798 -0.496931E-03  0.289E-01    8.70       1.0  T
   3    -50.6995069 -0.227118E-03  0.936E-02    8.84       1.0  T
   4    -50.6995310 -0.240679E-04  0.290E-02    8.85       1.0  T
   5    -50.6995326 -0.158223E-05  0.106E-02    8.85       1.8  T
   6    -50.6995329 -0.314130E-06  0.585E-03    8.85       3.4  T
   7    -50.6995331 -0.166809E-06  0.279E-03    8.84       7.0  T
speedup  0.94
cpu  time for SCC    0.01 s
wall time for SCC    0.01 s
speedup  1.00
cpu  time for grad    0.01 s
wall time for grad    0.01 s
 E :    -50.43561597  G :  0.041446    pred/act E change: -0.202D-01 -0.192D-01
Maxdispl :   0.4255   ||displ|| :   0.6535   Lambda : -0.151D-01
Largest |displ|/coords:  0.4255 (  19)  0.1916 (  21)  0.1641 (   9)
................................................................................
.............................. CYCLE    4 ......................................
................................................................................
   1    -50.7007825 -0.507008E+02  0.487E-01    9.05       0.0  T
   2    -50.7018467 -0.106420E-02  0.331E-01    9.12       1.0  T
   3    -50.7023033 -0.456585E-03  0.120E-01    9.20       1.0  T
   4    -50.7023332 -0.299330E-04  0.343E-02    9.21       1.0  T
   5    -50.7023357 -0.246401E-05  0.143E-02    9.21       1.4  T
   6    -50.7023362 -0.475998E-06  0.698E-03    9.21       2.8  T
   7    -50.7023364 -0.223470E-06  0.340E-03    9.21       5.8  T
   8    -50.7023364 -0.727939E-07  0.109E-03    9.21      18.0  T
speedup  0.97
cpu  time for SCC    0.01 s
wall time for SCC    0.01 s
speedup  1.00
cpu  time for grad    0.01 s
wall time for grad    0.01 s
 E :    -50.44408288  G :  0.029432    pred/act E change: -0.166D-01 -0.847D-02
Maxdispl :   0.2194   ||displ|| :   0.4238   Lambda : -0.313D-02
Largest |displ|/coords:  0.2194 (   9)  0.1726 (  19)  0.1375 (  10)
................................................................................
.............................. CYCLE    5 ......................................
................................................................................
   1    -50.7043834 -0.507044E+02  0.247E-01    9.36       0.0  T
   2    -50.7044866 -0.103284E-03  0.183E-01    9.38       1.0  T
   3    -50.7045179 -0.312318E-04  0.625E-02    9.40       1.0  T
   4    -50.7045291 -0.112630E-04  0.119E-02    9.39       1.7  T
   5    -50.7045294 -0.232565E-06  0.371E-03    9.39       5.3  T
   6    -50.7045294 -0.176931E-07  0.186E-03    9.39      10.5  T
speedup  0.91
cpu  time for SCC    0.00 s
wall time for SCC    0.01 s
speedup  0.98
cpu  time for grad    0.01 s
wall time for grad    0.01 s
 E :    -50.44559824  G :  0.022598    pred/act E change: -0.107D-01 -0.152D-02
Maxdispl :   0.2557   ||displ|| :   0.4461   Lambda : -0.252D-02
Largest |displ|/coords:  0.2557 (   9)  0.1918 (   1)  0.1287 (   4)
................................................................................
.............................. CYCLE    6 ......................................
................................................................................
   1    -50.7115451 -0.507115E+02  0.214E-01    9.59       0.0  T
   2    -50.7115586 -0.135166E-04  0.155E-01    9.59       1.0  T
   3    -50.7115647 -0.614016E-05  0.303E-02    9.59       1.0  T
   4    -50.7115662 -0.148568E-05  0.126E-02    9.59       1.6  T
   5    -50.7115663 -0.855742E-07  0.176E-03    9.59      11.1  T
   6    -50.7115663 -0.284116E-08  0.118E-03    9.59      16.6  T
speedup  1.11
cpu  time for SCC    0.01 s
wall time for SCC    0.01 s
speedup  1.07
cpu  time for grad    0.01 s
wall time for grad    0.01 s
 E :    -50.44667993  G :  0.013828    pred/act E change: -0.185D-02 -0.108D-02
Maxdispl :   0.1761   ||displ|| :   0.3918   Lambda : -0.182D-02
Largest |displ|/coords:  0.1761 (   1)  0.1669 (   6)  0.1371 (   9)
................................................................................
.............................. CYCLE    7 ......................................
................................................................................
   1    -50.7125616 -0.507126E+02  0.341E-01    9.67       0.0  T
   2    -50.7126627 -0.101062E-03  0.255E-01    9.67       1.0  T
   3    -50.7127003 -0.376332E-04  0.629E-02    9.66       1.0  T
   4    -50.7127157 -0.154021E-04  0.179E-02    9.66       1.1  T
   5    -50.7127162 -0.517927E-06  0.381E-03    9.66       5.1  T
   6    -50.7127162 -0.154299E-07  0.207E-03    9.66       9.5  T
   7    -50.7127163 -0.684024E-08  0.659E-04    9.66      29.8  T
speedup  0.97
cpu  time for SCC    0.01 s
wall time for SCC    0.01 s
speedup  1.00
cpu  time for grad    0.01 s
wall time for grad    0.01 s
 E :    -50.44701082  G :  0.028958    pred/act E change: -0.151D-02 -0.331D-03
Maxdispl :   0.1756   ||displ|| :   0.3483   Lambda : -0.205D-02
Largest |displ|/coords:  0.1756 (   1)  0.1396 (   6)  0.1188 (   5)
................................................................................
.............................. CYCLE    8 ......................................
................................................................................
   1    -50.7188015 -0.507188E+02  0.386E-01    9.68       0.0  T
   2    -50.7188673 -0.658377E-04  0.293E-01    9.69       1.0  T
   3    -50.7189195 -0.521834E-04  0.440E-02    9.69       1.0  T
   4    -50.7189283 -0.877613E-05  0.756E-03    9.69       2.6  T
   5    -50.7189283 -0.575411E-07  0.469E-03    9.69       4.2  T
   6    -50.7189283 -0.179822E-07  0.131E-03    9.69      15.0  T
speedup  0.91
cpu  time for SCC    0.00 s
wall time for SCC    0.01 s
speedup  0.98
cpu  time for grad    0.01 s
wall time for grad    0.01 s
 E :    -50.44657502  G :  0.033690    pred/act E change: -0.105D-02  0.436D-03
Maxdispl :   0.1228   ||displ|| :   0.2701   Lambda : -0.259D-02
Largest |displ|/coords:  0.1228 (  22)  0.1052 (   7)  0.0807 (   8)
................................................................................
.............................. CYCLE    9 ......................................
................................................................................
   1    -50.7137073 -0.507137E+02  0.267E-01    9.65       0.0  T
   2    -50.7137856 -0.783093E-04  0.200E-01    9.65       1.0  T
   3    -50.7138146 -0.289409E-04  0.501E-02    9.66       1.0  T
   4    -50.7138265 -0.119739E-04  0.953E-03    9.66       2.1  T
   5    -50.7138267 -0.207948E-06  0.321E-03    9.66       6.1  T
   6    -50.7138267 -0.963641E-08  0.183E-03    9.66      10.7  T
speedup  1.11
cpu  time for SCC    0.01 s
wall time for SCC    0.01 s
speedup  1.04
cpu  time for grad    0.01 s
wall time for grad    0.01 s
 E :    -50.44718682  G :  0.023507    pred/act E change: -0.115D-02 -0.612D-03
Maxdispl :   0.1483   ||displ|| :   0.2540   Lambda : -0.169D-02
Largest |displ|/coords:  0.1483 (   6)  0.1041 (   7)  0.0727 (  26)
................................................................................
.............................. CYCLE   10 ......................................
................................................................................
   1    -50.7106662 -0.507107E+02  0.273E-01    9.66       0.0  T
   2    -50.7106923 -0.260825E-04  0.206E-01    9.66       1.0  T
   3    -50.7107087 -0.164647E-04  0.291E-02    9.65       1.0  T
   4    -50.7107128 -0.411023E-05  0.821E-03    9.65       2.4  T
   5    -50.7107130 -0.148354E-06  0.294E-03    9.65       6.7  T
   6    -50.7107130 -0.572712E-08  0.155E-03    9.65      12.7  T
speedup  0.93
cpu  time for SCC    0.01 s
wall time for SCC    0.01 s
speedup  0.98
cpu  time for grad    0.01 s
wall time for grad    0.01 s
 E :    -50.44777605  G :  0.018170    pred/act E change: -0.139D-02 -0.589D-03
Maxdispl :   0.2045   ||displ|| :   0.3171   Lambda : -0.134D-02
Largest |displ|/coords:  0.2045 (   7)  0.1392 (   1)  0.0809 (  22)
................................................................................
.............................. CYCLE   11 ......................................
................................................................................
   1    -50.7142749 -0.507143E+02  0.406E-01    9.68       0.0  T
   2    -50.7143388 -0.639360E-04  0.309E-01    9.68       1.0  T
   3    -50.7143788 -0.399531E-04  0.431E-02    9.67       1.0  T
   4    -50.7143901 -0.112890E-04  0.964E-03    9.67       2.0  T
   5    -50.7143903 -0.233457E-06  0.364E-03    9.67       5.4  T
   6    -50.7143903 -0.103190E-07  0.184E-03    9.67      10.6  T
   7    -50.7143903 -0.408525E-08  0.422E-04    9.67      46.5  T
speedup  0.97
cpu  time for SCC    0.01 s
wall time for SCC    0.01 s
speedup  1.00
cpu  time for grad    0.01 s
wall time for grad    0.01 s
 E :    -50.44708478  G :  0.031733    pred/act E change: -0.898D-03  0.691D-03
Maxdispl :   0.1240   ||displ|| :   0.2489   Lambda : -0.221D-02
Largest |displ|/coords:  0.1240 (   7)  0.1036 (   8)  0.0928 (   4)
................................................................................
.............................. CYCLE   12 ......................................
................................................................................
   1    -50.7163403 -0.507163E+02  0.311E-01    9.68       0.0  T
   2    -50.7163667 -0.264541E-04  0.236E-01    9.68       1.0  T
   3    -50.7163904 -0.236578E-04  0.272E-02    9.68       1.0  T
   4    -50.7163935 -0.316447E-05  0.591E-03    9.68       3.3  T
   5    -50.7163936 -0.342540E-07  0.346E-03    9.68       5.7  T
speedup  0.87
cpu  time for SCC    0.00 s
wall time for SCC    0.00 s
speedup  0.97
cpu  time for grad    0.01 s
wall time for grad    0.01 s
 E :    -50.44802005  G :  0.014411    pred/act E change: -0.735D-03 -0.935D-03
Maxdispl :   0.1734   ||displ|| :   0.2721   Lambda : -0.108D-02
Largest |displ|/coords:  0.1734 (   6)  0.0783 (   7)  0.0723 (  18)
................................................................................
.............................. CYCLE   13 ......................................
................................................................................
   1    -50.7079635 -0.507080E+02  0.296E-01    9.66       0.0  T
   2    -50.7080130 -0.494943E-04  0.222E-01    9.67       1.0  T
   3    -50.7080340 -0.210126E-04  0.404E-02    9.68       1.0  T
   4    -50.7080429 -0.889879E-05  0.855E-03    9.67       2.3  T
   5    -50.7080431 -0.174172E-06  0.337E-03    9.67       5.8  T
   6    -50.7080431 -0.940674E-08  0.171E-03    9.67      11.5  T
   7    -50.7080431 -0.559982E-08  0.438E-04    9.67      44.8  T
speedup  0.92
cpu  time for SCC    0.01 s
wall time for SCC    0.01 s
speedup  0.98
cpu  time for grad    0.01 s
wall time for grad    0.01 s
 E :    -50.44792409  G :  0.027107    pred/act E change: -0.117D-02  0.960D-04
Maxdispl :   0.0994   ||displ|| :   0.1746   Lambda : -0.120D-02
Largest |displ|/coords:  0.0994 (   6)  0.0834 (   5)  0.0640 (   7)
................................................................................
.............................. CYCLE   14 ......................................
................................................................................
   1    -50.7139028 -0.507139E+02  0.222E-01    9.68       0.0  T
   2    -50.7139247 -0.219066E-04  0.167E-01    9.68       1.0  T
   3    -50.7139370 -0.123128E-04  0.261E-02    9.67       1.0  T
   4    -50.7139406 -0.359357E-05  0.576E-03    9.67       3.4  T
   5    -50.7139407 -0.826313E-07  0.255E-03    9.67       7.7  T
speedup  0.87
cpu  time for SCC    0.00 s
wall time for SCC    0.00 s
speedup  0.97
cpu  time for grad    0.01 s
wall time for grad    0.01 s
 E :    -50.44836671  G :  0.009931    pred/act E change: -0.581D-03 -0.443D-03
Maxdispl :   0.1122   ||displ|| :   0.2445   Lambda : -0.577D-03
Largest |displ|/coords:  0.1122 (   1)  0.1070 (   5)  0.0760 (   3)
................................................................................
.............................. CYCLE   15 ......................................
................................................................................
   1    -50.7134621 -0.507135E+02  0.202E-01    9.69       0.0  T
   2    -50.7134821 -0.200127E-04  0.152E-01    9.68       1.0  T
   3    -50.7134928 -0.107532E-04  0.257E-02    9.68       1.0  T
   4    -50.7134963 -0.349680E-05  0.780E-03    9.68       2.5  T
   5    -50.7134964 -0.106248E-06  0.269E-03    9.68       7.3  T
   6    -50.7134964 -0.666122E-08  0.147E-03    9.68      13.3  T
speedup  0.93
cpu  time for SCC    0.00 s
wall time for SCC    0.01 s
speedup  0.98
cpu  time for grad    0.01 s
wall time for grad    0.01 s
 E :    -50.44836053  G :  0.015717    pred/act E change: -0.617D-03  0.618D-05
Maxdispl :   0.0672   ||displ|| :   0.1273   Lambda : -0.532D-03
Largest |displ|/coords:  0.0672 (   5)  0.0496 (   1)  0.0365 (   3)
................................................................................
.............................. CYCLE   16 ......................................
................................................................................
   1    -50.7132630 -0.507133E+02  0.105E-01    9.67       0.0  T
   2    -50.7132683 -0.529837E-05  0.787E-02    9.67       1.0  T
   3    -50.7132712 -0.286925E-05  0.130E-02    9.68       1.5  T
   4    -50.7132721 -0.943160E-06  0.338E-03    9.68       5.8  T
   5    -50.7132721 -0.203652E-07  0.138E-03    9.68      14.2  T
   6    -50.7132721 -0.183341E-08  0.649E-04    9.68      30.2  T
speedup  0.89
cpu  time for SCC    0.00 s
wall time for SCC    0.01 s
speedup  0.97
cpu  time for grad    0.01 s
wall time for grad    0.01 s
 E :    -50.44868467  G :  0.009011    pred/act E change: -0.306D-03 -0.324D-03
Maxdispl :   0.1089   ||displ|| :   0.2010   Lambda : -0.335D-03
Largest |displ|/coords:  0.1089 (   1)  0.0844 (   3)  0.0527 (   2)
................................................................................
.............................. CYCLE   17 ......................................
................................................................................
   1    -50.7118911 -0.507119E+02  0.123E-01    9.67       0.0  T
   2    -50.7118983 -0.716866E-05  0.927E-02    9.67       1.0  T
   3    -50.7119021 -0.389972E-05  0.175E-02    9.67       1.1  T
   4    -50.7119033 -0.117298E-05  0.638E-03    9.67       3.1  T
   5    -50.7119034 -0.542730E-07  0.159E-03    9.67      12.3  T
   6    -50.7119034 -0.315933E-08  0.949E-04    9.67      20.7  T
speedup  0.93
cpu  time for SCC    0.01 s
wall time for SCC    0.01 s
speedup  0.98
cpu  time for grad    0.01 s
wall time for grad    0.01 s
 E :    -50.44883004  G :  0.010831    pred/act E change: -0.271D-03 -0.145D-03
Maxdispl :   0.1755   ||displ|| :   0.3176   Lambda : -0.437D-03
Largest |displ|/coords:  0.1755 (   1)  0.1458 (   3)  0.0949 (   6)
................................................................................
.............................. CYCLE   18 ......................................
................................................................................
   1    -50.7090923 -0.507091E+02  0.190E-01    9.65       0.0  T
   2    -50.7091112 -0.189457E-04  0.144E-01    9.65       1.0  T
   3    -50.7091220 -0.107163E-04  0.274E-02    9.65       1.0  T
   4    -50.7091252 -0.322418E-05  0.107E-02    9.65       1.8  T
   5    -50.7091253 -0.156013E-06  0.253E-03    9.65       7.8  T
   6    -50.7091253 -0.791162E-08  0.155E-03    9.65      12.7  T
speedup  1.09
cpu  time for SCC    0.01 s
wall time for SCC    0.01 s
speedup  1.05
cpu  time for grad    0.01 s
wall time for grad    0.01 s
 E :    -50.44906102  G :  0.018487    pred/act E change: -0.174D-03 -0.231D-03
Maxdispl :   0.1906   ||displ|| :   0.3463   Lambda : -0.683D-03
Largest |displ|/coords:  0.1906 (   1)  0.1713 (   3)  0.0715 (  22)
................................................................................
.............................. CYCLE   19 ......................................
................................................................................
   1    -50.7118535 -0.507119E+02  0.191E-01    9.63       0.0  T
   2    -50.7118764 -0.228580E-04  0.147E-01    9.63       1.0  T
   3    -50.7118880 -0.116178E-04  0.311E-02    9.62       1.0  T
   4    -50.7118921 -0.410577E-05  0.129E-02    9.62       1.5  T
   5    -50.7118923 -0.163104E-06  0.248E-03    9.62       7.9  T
   6    -50.7118923 -0.106765E-07  0.159E-03    9.62      12.4  T
speedup  1.09
cpu  time for SCC    0.01 s
wall time for SCC    0.01 s
speedup  0.98
cpu  time for grad    0.01 s
wall time for grad    0.01 s
 E :    -50.44948391  G :  0.018409    pred/act E change: -0.240D-03 -0.423D-03
Maxdispl :   0.2151   ||displ|| :   0.4698   Lambda : -0.108D-02
Largest |displ|/coords:  0.2151 (   1)  0.2028 (   3)  0.1229 (  22)
................................................................................
.............................. CYCLE   20 ......................................
................................................................................
   1    -50.7135314 -0.507135E+02  0.264E-01    9.60       0.0  T
   2    -50.7136704 -0.138982E-03  0.201E-01    9.59       1.0  T
   3    -50.7137291 -0.587279E-04  0.711E-02    9.58       1.0  T
   4    -50.7137440 -0.149134E-04  0.251E-02    9.59       1.0  T
   5    -50.7137451 -0.108386E-05  0.661E-03    9.59       3.0  T
   6    -50.7137452 -0.629288E-07  0.323E-03    9.59       6.1  T
   7    -50.7137452 -0.151095E-07  0.955E-04    9.59      20.5  T
   8    -50.7137452 -0.267506E-08  0.274E-04    9.59      71.4  T
speedup  0.99
cpu  time for SCC    0.01 s
wall time for SCC    0.01 s
speedup  1.00
cpu  time for grad    0.01 s
wall time for grad    0.01 s
 E :    -50.45031683  G :  0.021628    pred/act E change: -0.382D-03 -0.833D-03
Maxdispl :   0.2475   ||displ|| :   0.6432   Lambda : -0.197D-02
Largest |displ|/coords:  0.2475 (   3)  0.2271 (  33)  0.1977 (   1)
................................................................................
.............................. CYCLE   21 ......................................
................................................................................
   1    -50.7160900 -0.507161E+02  0.506E-01    9.58       0.0  T
   2    -50.7167379 -0.647843E-03  0.380E-01    9.56       1.0  T
   3    -50.7170288 -0.290924E-03  0.148E-01    9.55       1.0  T
   4    -50.7170787 -0.498727E-04  0.456E-02    9.57       1.0  T
   5    -50.7170828 -0.411341E-05  0.140E-02    9.57       1.4  T
   6    -50.7170829 -0.142622E-06  0.690E-03    9.57       2.8  T
   7    -50.7170830 -0.805138E-07  0.166E-03    9.57      11.8  T
   8    -50.7170830 -0.976033E-08  0.605E-04    9.57      32.4  T
speedup  1.01
cpu  time for SCC    0.01 s
wall time for SCC    0.01 s
speedup  1.01
cpu  time for grad    0.01 s
wall time for grad    0.01 s
 E :    -50.45162383  G :  0.038418    pred/act E change: -0.659D-03 -0.131D-02
Maxdispl :   0.1060   ||displ|| :   0.3162   Lambda : -0.256D-02
Largest |displ|/coords:  0.1060 (  33)  0.1022 (   9)  0.0889 (   4)
................................................................................
.............................. CYCLE   22 ......................................
................................................................................
   1    -50.7302686 -0.507303E+02  0.234E-01    9.62       0.0  T
   2    -50.7303696 -0.101004E-03  0.176E-01    9.62       1.0  T
   3    -50.7304222 -0.526653E-04  0.626E-02    9.62       1.0  T
   4    -50.7304315 -0.924959E-05  0.171E-02    9.62       1.1  T
   5    -50.7304323 -0.769847E-06  0.588E-03    9.62       3.3  T
   6    -50.7304323 -0.338770E-07  0.324E-03    9.62       6.0  T
speedup  0.93
cpu  time for SCC    0.01 s
wall time for SCC    0.01 s
speedup  0.97
cpu  time for grad    0.01 s
wall time for grad    0.01 s
 E :    -50.45332054  G :  0.040843    pred/act E change: -0.139D-02 -0.170D-02
Maxdispl :   0.1544   ||displ|| :   0.4306   Lambda : -0.738D-02
Largest |displ|/coords:  0.1544 (  30)  0.1283 (  27)  0.1233 (   6)
................................................................................
.............................. CYCLE   23 ......................................
................................................................................
   1    -50.7330759 -0.507331E+02  0.356E-01    9.71       0.0  T
   2    -50.7331872 -0.111230E-03  0.261E-01    9.71       1.0  T
   3    -50.7332482 -0.610074E-04  0.614E-02    9.72       1.0  T
   4    -50.7332584 -0.102576E-04  0.238E-02    9.72       1.0  T
   5    -50.7332590 -0.604991E-06  0.504E-03    9.72       3.9  T
   6    -50.7332591 -0.620463E-07  0.305E-03    9.72       6.4  T
speedup  0.93
cpu  time for SCC    0.00 s
wall time for SCC    0.01 s
speedup  0.98
cpu  time for grad    0.01 s
wall time for grad    0.01 s
 E :    -50.45372677  G :  0.055115    pred/act E change: -0.141D-02 -0.406D-03
Maxdispl :   0.1328   ||displ|| :   0.3813   Lambda : -0.107D-01
Largest |displ|/coords:  0.1328 (  21)  0.1158 (  33)  0.1135 (  25)
................................................................................
.............................. CYCLE   24 ......................................
................................................................................
   1    -50.7385317 -0.507385E+02  0.417E-01    9.57       0.0  T
   2    -50.7387968 -0.265144E-03  0.307E-01    9.56       1.0  T
   3    -50.7389616 -0.164813E-03  0.102E-01    9.54       1.0  T
   4    -50.7389833 -0.217067E-04  0.332E-02    9.54       1.0  T
   5    -50.7389851 -0.177739E-05  0.102E-02    9.54       1.9  T
   6    -50.7389852 -0.109167E-06  0.512E-03    9.54       3.8  T
   7    -50.7389853 -0.457526E-07  0.140E-03    9.54      14.0  T
speedup  0.97
cpu  time for SCC    0.01 s
wall time for SCC    0.01 s
speedup  0.99
cpu  time for grad    0.01 s
wall time for grad    0.01 s
 E :    -50.45394145  G :  0.059379    pred/act E change: -0.437D-02 -0.215D-03
Maxdispl :   0.1057   ||displ|| :   0.3456   Lambda : -0.131D-01
Largest |displ|/coords:  0.1057 (   7)  0.1029 (  33)  0.1028 (  29)
................................................................................
.............................. CYCLE   25 ......................................
................................................................................
   1    -50.7358725 -0.507359E+02  0.413E-01    9.57       0.0  T
   2    -50.7362466 -0.374125E-03  0.299E-01    9.58       1.0  T
   3    -50.7364494 -0.202842E-03  0.109E-01    9.59       1.0  T
   4    -50.7364740 -0.245360E-04  0.318E-02    9.59       1.0  T
   5    -50.7364757 -0.177537E-05  0.101E-02    9.59       1.9  T
   6    -50.7364760 -0.231046E-06  0.632E-03    9.59       3.1  T
   7    -50.7364760 -0.600176E-07  0.152E-03    9.59      12.9  T
   8    -50.7364760 -0.538852E-08  0.384E-04    9.59      51.0  T
speedup  0.97
cpu  time for SCC    0.01 s
wall time for SCC    0.01 s
speedup  0.99
cpu  time for grad    0.01 s
wall time for grad    0.02 s
 E :    -50.45416810  G :  0.055453    pred/act E change: -0.615D-02 -0.227D-03
Maxdispl :   0.1349   ||displ|| :   0.3155   Lambda : -0.880D-02
Largest |displ|/coords:  0.1349 (   7)  0.1085 (   5)  0.0889 (   4)

generating ANC from model Hessian ...
 Shifting diagonal of input Hessian by   5.171162885802790E-003
 Lowest  eigenvalues of input Hessian
    0.005000    0.005139   -0.000000   -0.000000   -0.000000    0.000000
    0.000000    0.000000    0.005414    0.005786    0.005997    0.006273
    0.006971    0.007113    0.007603    0.008465    0.009904    0.010524
 Highest eigenvalues
    1.376790    1.470835    1.505693    2.777208    3.284980    3.641894
 
cpu  time for ANC gen    0.01 s
wall time for ANC gen    0.01 s
................................................................................
.............................. CYCLE   26 ......................................
................................................................................
   1    -50.7269630 -0.507270E+02  0.424E-01    9.55       0.0  T
   2    -50.7272572 -0.294203E-03  0.307E-01    9.54       1.0  T
   3    -50.7274125 -0.155287E-03  0.927E-02    9.51       1.0  T
   4    -50.7274354 -0.228443E-04  0.224E-02    9.50       1.0  T
   5    -50.7274362 -0.842298E-06  0.833E-03    9.50       2.4  T
   6    -50.7274363 -0.104405E-06  0.478E-03    9.50       4.1  T
   7    -50.7274363 -0.263728E-07  0.103E-03    9.50      19.0  T
   8    -50.7274363 -0.244479E-08  0.311E-04    9.50      63.1  T
   9    -50.7274363 -0.270489E-09  0.115E-04    9.50     170.3  T
speedup  0.99
cpu  time for SCC    0.01 s
wall time for SCC    0.01 s
speedup  0.97
cpu  time for grad    0.02 s
wall time for grad    0.02 s
 E :    -50.45455666  G :  0.061974    pred/act E change:  0.000D+00 -0.389D-03
Maxdispl :   0.0802   ||displ|| :   0.2099   Lambda : -0.440D-02
Largest |displ|/coords:  0.0802 (   4)  0.0713 (   1)  0.0693 (   3)
................................................................................
.............................. CYCLE   27 ......................................
................................................................................
   1    -50.7335393 -0.507335E+02  0.180E-01    9.49       0.0  T
   2    -50.7335769 -0.375606E-04  0.132E-01    9.49       1.0  T
   3    -50.7335967 -0.197939E-04  0.337E-02    9.48       1.0  T
   4    -50.7336003 -0.365769E-05  0.650E-03    9.48       3.0  T
   5    -50.7336004 -0.640750E-07  0.294E-03    9.48       6.7  T
   6    -50.7336004 -0.535582E-08  0.145E-03    9.48      13.5  T
speedup  0.93
cpu  time for SCC    0.00 s
wall time for SCC    0.01 s
speedup  0.98
cpu  time for grad    0.01 s
wall time for grad    0.01 s
 E :    -50.45737377  G :  0.023172    pred/act E change:  0.000D+00 -0.282D-02
Maxdispl :   0.1760   ||displ|| :   0.2733   Lambda : -0.158D-02
Largest |displ|/coords:  0.1760 (   4)  0.1419 (   1)  0.0596 (   3)
................................................................................
.............................. CYCLE   28 ......................................
................................................................................
   1    -50.7395577 -0.507396E+02  0.186E-01    9.45       0.0  T
   2    -50.7395803 -0.225421E-04  0.140E-01    9.45       1.0  T
   3    -50.7395963 -0.160650E-04  0.272E-02    9.44       1.0  T
   4    -50.7395994 -0.304867E-05  0.777E-03    9.44       2.5  T
   5    -50.7395995 -0.101642E-06  0.314E-03    9.44       6.2  T
   6    -50.7395995 -0.902523E-08  0.171E-03    9.44      11.5  T
speedup  1.05
cpu  time for SCC    0.01 s
wall time for SCC    0.01 s
speedup  0.96
cpu  time for grad    0.01 s
wall time for grad    0.01 s
 E :    -50.45787290  G :  0.015770    pred/act E change: -0.230D-02 -0.499D-03
Maxdispl :   0.0806   ||displ|| :   0.1668   Lambda : -0.524D-03
Largest |displ|/coords:  0.0806 (   3)  0.0753 (   6)  0.0736 (   1)
................................................................................
.............................. CYCLE   29 ......................................
................................................................................
   1    -50.7390576 -0.507391E+02  0.109E-01    9.42       0.0  T
   2    -50.7390603 -0.267428E-05  0.822E-02    9.42       1.0  T
   3    -50.7390632 -0.293116E-05  0.979E-03    9.41       2.0  T
   4    -50.7390635 -0.258506E-06  0.336E-03    9.41       5.8  T
   5    -50.7390635 -0.151073E-07  0.134E-03    9.41      14.6  T
   6    -50.7390635 -0.182310E-08  0.672E-04    9.41      29.2  T
speedup  1.09
cpu  time for SCC    0.01 s
wall time for SCC    0.01 s
speedup  1.04
cpu  time for grad    0.01 s
wall time for grad    0.01 s
 E :    -50.45825763  G :  0.011145    pred/act E change: -0.851D-03 -0.385D-03
Maxdispl :   0.1556   ||displ|| :   0.2408   Lambda : -0.456D-03
Largest |displ|/coords:  0.1556 (   1)  0.0905 (   3)  0.0753 (   7)
................................................................................
.............................. CYCLE   30 ......................................
................................................................................
   1    -50.7385631 -0.507386E+02  0.140E-01    9.38       0.0  T
   2    -50.7385689 -0.577670E-05  0.105E-01    9.37       1.0  T
   3    -50.7385739 -0.501201E-05  0.153E-02    9.37       1.3  T
   4    -50.7385746 -0.739591E-06  0.461E-03    9.37       4.3  T
   5    -50.7385747 -0.326112E-07  0.200E-03    9.37       9.8  T
   6    -50.7385747 -0.476982E-08  0.108E-03    9.37      18.2  T
speedup  1.07
cpu  time for SCC    0.01 s
wall time for SCC    0.01 s
speedup  1.04
cpu  time for grad    0.01 s
wall time for grad    0.01 s
 E :    -50.45854016  G :  0.008426    pred/act E change: -0.269D-03 -0.283D-03
Maxdispl :   0.1484   ||displ|| :   0.1839   Lambda : -0.196D-03
Largest |displ|/coords:  0.1484 (   1)  0.0480 (   6)  0.0414 (  12)
................................................................................
.............................. CYCLE   31 ......................................
................................................................................
   1    -50.7403588 -0.507404E+02  0.698E-02    9.36       0.0  T
   2    -50.7403610 -0.229769E-05  0.519E-02    9.35       1.0  T
   3    -50.7403625 -0.143752E-05  0.985E-03    9.34       2.0  T
   4    -50.7403628 -0.318419E-06  0.265E-03    9.34       7.4  T
   5    -50.7403628 -0.133065E-07  0.112E-03    9.34      17.5  T
speedup  0.85
cpu  time for SCC    0.00 s
wall time for SCC    0.00 s
speedup  0.96
cpu  time for grad    0.01 s
wall time for grad    0.01 s
 E :    -50.45869023  G :  0.005837    pred/act E change: -0.241D-03 -0.150D-03
Maxdispl :   0.2440   ||displ|| :   0.2843   Lambda : -0.218D-03
Largest |displ|/coords:  0.2440 (   1)  0.0600 (   6)  0.0513 (   3)
................................................................................
.............................. CYCLE   32 ......................................
................................................................................
   1    -50.7421310 -0.507421E+02  0.119E-01    9.32       0.0  T
   2    -50.7421354 -0.447277E-05  0.895E-02    9.31       1.0  T
   3    -50.7421391 -0.368186E-05  0.133E-02    9.30       1.5  T
   4    -50.7421397 -0.619550E-06  0.394E-03    9.30       5.0  T
   5    -50.7421398 -0.254073E-07  0.169E-03    9.30      11.6  T
   6    -50.7421398 -0.381939E-08  0.962E-04    9.30      20.4  T
speedup  1.07
cpu  time for SCC    0.01 s
wall time for SCC    0.01 s
speedup  0.97
cpu  time for grad    0.01 s
wall time for grad    0.01 s
 E :    -50.45882614  G :  0.006282    pred/act E change: -0.101D-03 -0.136D-03
Maxdispl :   0.1821   ||displ|| :   0.2208   Lambda : -0.161D-03
Largest |displ|/coords:  0.1821 (   1)  0.0731 (   5)  0.0428 (   6)
................................................................................
.............................. CYCLE   33 ......................................
................................................................................
   1    -50.7453400 -0.507453E+02  0.889E-02    9.33       0.0  T
   2    -50.7453424 -0.242433E-05  0.665E-02    9.32       1.0  T
   3    -50.7453443 -0.187882E-05  0.100E-02    9.31       2.0  T
   4    -50.7453446 -0.317480E-06  0.299E-03    9.32       6.6  T
   5    -50.7453446 -0.134420E-07  0.115E-03    9.32      17.0  T
speedup  1.09
cpu  time for SCC    0.00 s
wall time for SCC    0.00 s
speedup  0.97
cpu  time for grad    0.01 s
wall time for grad    0.01 s
 E :    -50.45886484  G :  0.006765    pred/act E change: -0.118D-03 -0.387D-04
Maxdispl :   0.1165   ||displ|| :   0.1482   Lambda : -0.130D-03
Largest |displ|/coords:  0.1165 (   1)  0.0410 (   3)  0.0386 (   9)
................................................................................
.............................. CYCLE   34 ......................................
................................................................................
   1    -50.7441004 -0.507441E+02  0.907E-02    9.29       0.0  T
   2    -50.7441018 -0.143448E-05  0.689E-02    9.29       1.0  T
   3    -50.7441037 -0.188435E-05  0.608E-03    9.28       3.2  T
   4    -50.7441038 -0.809182E-07  0.275E-03    9.28       7.1  T
   5    -50.7441038 -0.785570E-08  0.816E-04    9.28      24.0  T
speedup  1.09
cpu  time for SCC    0.00 s
wall time for SCC    0.00 s
speedup  1.05
cpu  time for grad    0.01 s
wall time for grad    0.01 s
 E :    -50.45894863  G :  0.004295    pred/act E change: -0.845D-04 -0.838D-04
Maxdispl :   0.0964   ||displ|| :   0.1224   Lambda : -0.701D-04
Largest |displ|/coords:  0.0964 (   1)  0.0268 (   9)  0.0259 (  11)
................................................................................
.............................. CYCLE   35 ......................................
................................................................................
   1    -50.7430897 -0.507431E+02  0.790E-02    9.28       0.0  T
   2    -50.7430908 -0.112235E-05  0.598E-02    9.28       1.0  T
   3    -50.7430919 -0.109533E-05  0.567E-03    9.28       3.5  T
   4    -50.7430920 -0.130876E-06  0.242E-03    9.28       8.1  T
   5    -50.7430920 -0.573819E-08  0.762E-04    9.28      25.8  T
speedup  1.09
cpu  time for SCC    0.00 s
wall time for SCC    0.00 s
speedup  1.05
cpu  time for grad    0.01 s
wall time for grad    0.01 s
 E :    -50.45899989  G :  0.005631    pred/act E change: -0.662D-04 -0.513D-04
Maxdispl :   0.1348   ||displ|| :   0.1766   Lambda : -0.985D-04
Largest |displ|/coords:  0.1348 (   1)  0.0434 (   9)  0.0386 (  11)
................................................................................
.............................. CYCLE   36 ......................................
................................................................................
   1    -50.7419859 -0.507420E+02  0.110E-01    9.28       0.0  T
   2    -50.7419885 -0.257893E-05  0.826E-02    9.28       1.0  T
   3    -50.7419903 -0.179542E-05  0.923E-03    9.28       2.1  T
   4    -50.7419907 -0.409107E-06  0.361E-03    9.28       5.4  T
   5    -50.7419907 -0.155169E-07  0.109E-03    9.28      18.0  T
   6    -50.7419907 -0.124447E-08  0.643E-04    9.28      30.5  T
speedup  1.09
cpu  time for SCC    0.01 s
wall time for SCC    0.01 s
speedup  1.04
cpu  time for grad    0.01 s
wall time for grad    0.01 s
 E :    -50.45906755  G :  0.005768    pred/act E change: -0.356D-04 -0.677D-04
Maxdispl :   0.1388   ||displ|| :   0.1705   Lambda : -0.781D-04
Largest |displ|/coords:  0.1388 (   1)  0.0386 (   9)  0.0381 (   8)
................................................................................
.............................. CYCLE   37 ......................................
................................................................................
   1    -50.7415820 -0.507416E+02  0.891E-02    9.28       0.0  T
   2    -50.7415836 -0.155057E-05  0.674E-02    9.29       1.0  T
   3    -50.7415849 -0.131353E-05  0.717E-03    9.29       2.7  T
   4    -50.7415851 -0.209146E-06  0.329E-03    9.29       6.0  T
   5    -50.7415851 -0.115085E-07  0.873E-04    9.29      22.5  T
   6    -50.7415851 -0.879176E-09  0.532E-04    9.29      36.8  T
speedup  0.93
cpu  time for SCC    0.01 s
wall time for SCC    0.01 s
speedup  0.98
cpu  time for grad    0.01 s
wall time for grad    0.01 s
 E :    -50.45912369  G :  0.004570    pred/act E change: -0.508D-04 -0.561D-04
Maxdispl :   0.2732   ||displ|| :   0.3156   Lambda : -0.843D-04
Largest |displ|/coords:  0.2732 (   1)  0.0650 (   9)  0.0583 (   5)
................................................................................
.............................. CYCLE   38 ......................................
................................................................................
   1    -50.7407699 -0.507408E+02  0.142E-01    9.27       0.0  T
   2    -50.7407733 -0.347252E-05  0.108E-01    9.27       1.0  T
   3    -50.7407771 -0.374476E-05  0.107E-02    9.28       1.8  T
   4    -50.7407774 -0.342610E-06  0.513E-03    9.28       3.8  T
   5    -50.7407774 -0.228220E-07  0.126E-03    9.28      15.6  T
   6    -50.7407774 -0.168995E-08  0.789E-04    9.28      24.8  T
speedup  1.09
cpu  time for SCC    0.01 s
wall time for SCC    0.01 s
speedup  1.04
cpu  time for grad    0.01 s
wall time for grad    0.01 s
 E :    -50.45917127  G :  0.006149    pred/act E change: -0.402D-04 -0.476D-04
Maxdispl :   0.1156   ||displ|| :   0.1518   Lambda : -0.102D-03
Largest |displ|/coords:  0.1156 (   1)  0.0367 (   9)  0.0360 (   8)
................................................................................
.............................. CYCLE   39 ......................................
................................................................................
   1    -50.7431631 -0.507432E+02  0.699E-02    9.29       0.0  T
   2    -50.7431650 -0.191197E-05  0.528E-02    9.29       1.0  T
   3    -50.7431665 -0.148842E-05  0.831E-03    9.30       2.4  T
   4    -50.7431668 -0.248366E-06  0.316E-03    9.30       6.2  T
   5    -50.7431668 -0.153059E-07  0.874E-04    9.30      22.4  T
   6    -50.7431668 -0.900812E-09  0.503E-04    9.30      39.0  T
speedup  1.09
cpu  time for SCC    0.01 s
wall time for SCC    0.01 s
speedup  1.05
cpu  time for grad    0.01 s
wall time for grad    0.01 s
 E :    -50.45919430  G :  0.005902    pred/act E change: -0.463D-04 -0.230D-04
Maxdispl :   0.0785   ||displ|| :   0.1057   Lambda : -0.566D-04
Largest |displ|/coords:  0.0785 (   1)  0.0320 (   7)  0.0293 (   5)
................................................................................
.............................. CYCLE   40 ......................................
................................................................................
   1    -50.7420710 -0.507421E+02  0.653E-02    9.29       0.0  T
   2    -50.7420719 -0.893398E-06  0.494E-02    9.29       1.0  T
   3    -50.7420729 -0.999702E-06  0.555E-03    9.29       3.5  T
   4    -50.7420730 -0.801724E-07  0.214E-03    9.29       9.2  T
   5    -50.7420730 -0.570080E-08  0.705E-04    9.29      27.8  T
speedup  1.09
cpu  time for SCC    0.00 s
wall time for SCC    0.00 s
speedup  1.05
cpu  time for grad    0.01 s
wall time for grad    0.01 s
 E :    -50.45922762  G :  0.003338    pred/act E change: -0.520D-04 -0.333D-04
Maxdispl :   0.0253   ||displ|| :   0.0472   Lambda : -0.254D-04
Largest |displ|/coords:  0.0253 (   1)  0.0173 (   3)  0.0149 (   4)
................................................................................
.............................. CYCLE   41 ......................................
................................................................................
   1    -50.7422003 -0.507422E+02  0.334E-02    9.30       0.0  T
   2    -50.7422006 -0.335403E-06  0.251E-02    9.30       1.0  T
   3    -50.7422009 -0.299189E-06  0.343E-03    9.29       5.7  T
   4    -50.7422010 -0.393055E-07  0.120E-03    9.29      16.4  T
   5    -50.7422010 -0.203814E-08  0.400E-04    9.29      49.0  T
   6    -50.7422010 -0.187526E-09  0.227E-04    9.29      86.5  T
speedup  0.91
cpu  time for SCC    0.01 s
wall time for SCC    0.01 s
speedup  1.01
cpu  time for grad    0.01 s
wall time for grad    0.01 s
 E :    -50.45924070  G :  0.002703    pred/act E change: -0.286D-04 -0.131D-04
Maxdispl :   0.0463   ||displ|| :   0.0784   Lambda : -0.231D-04
Largest |displ|/coords:  0.0463 (   1)  0.0246 (   8)  0.0203 (   3)
................................................................................
.............................. CYCLE   42 ......................................
................................................................................
   1    -50.7421943 -0.507422E+02  0.584E-02    9.30       0.0  T
   2    -50.7421950 -0.696636E-06  0.444E-02    9.29       1.0  T
   3    -50.7421957 -0.694029E-06  0.483E-03    9.29       4.1  T
   4    -50.7421957 -0.797442E-07  0.196E-03    9.29      10.0  T
   5    -50.7421957 -0.452685E-08  0.586E-04    9.29      33.5  T
   6    -50.7421957 -0.373717E-09  0.344E-04    9.29      57.0  T
speedup  0.93
cpu  time for SCC    0.01 s
wall time for SCC    0.01 s
speedup  0.95
cpu  time for grad    0.01 s
wall time for grad    0.01 s
 E :    -50.45925522  G :  0.002853    pred/act E change: -0.127D-04 -0.145D-04
Maxdispl :   0.0230   ||displ|| :   0.0604   Lambda : -0.270D-04
Largest |displ|/coords:  0.0230 (   1)  0.0225 (   8)  0.0209 (  10)
................................................................................
.............................. CYCLE   43 ......................................
................................................................................
   1    -50.7434934 -0.507435E+02  0.462E-02    9.32       0.0  T
   2    -50.7434939 -0.494028E-06  0.349E-02    9.32       1.0  T
   3    -50.7434944 -0.433781E-06  0.448E-03    9.32       4.4  T
   4    -50.7434944 -0.598349E-07  0.168E-03    9.32      11.7  T
   5    -50.7434944 -0.323521E-08  0.455E-04    9.32      43.1  T
   6    -50.7434944 -0.183718E-09  0.271E-04    9.32      72.3  T
speedup  1.09
cpu  time for SCC    0.01 s
wall time for SCC    0.01 s
speedup  1.02
cpu  time for grad    0.01 s
wall time for grad    0.01 s
 E :    -50.45926423  G :  0.002605    pred/act E change: -0.116D-04 -0.901D-05
Maxdispl :   0.0477   ||displ|| :   0.0790   Lambda : -0.189D-04
Largest |displ|/coords:  0.0477 (   1)  0.0287 (   9)  0.0262 (   3)
................................................................................
.............................. CYCLE   44 ......................................
................................................................................
   1    -50.7427581 -0.507428E+02  0.472E-02    9.31       0.0  T
   2    -50.7427586 -0.494011E-06  0.359E-02    9.31       1.0  T
   3    -50.7427591 -0.545522E-06  0.382E-03    9.30       5.1  T
   4    -50.7427592 -0.483349E-07  0.188E-03    9.30      10.4  T
   5    -50.7427592 -0.353986E-08  0.446E-04    9.30      44.0  T
   6    -50.7427592 -0.208807E-09  0.272E-04    9.30      72.0  T
speedup  0.93
cpu  time for SCC    0.00 s
wall time for SCC    0.01 s
speedup  0.95
cpu  time for grad    0.01 s
wall time for grad    0.01 s
 E :    -50.45927285  G :  0.002786    pred/act E change: -0.135D-04 -0.862D-05
Maxdispl :   0.0142   ||displ|| :   0.0309   Lambda : -0.111D-04
Largest |displ|/coords:  0.0142 (   1)  0.0112 (  12)  0.0100 (   8)
................................................................................
.............................. CYCLE   45 ......................................
................................................................................
   1    -50.7424245 -0.507424E+02  0.225E-02    9.30       0.0  T
   2    -50.7424247 -0.165584E-06  0.170E-02    9.30       1.2  T
   3    -50.7424248 -0.101887E-06  0.233E-03    9.30       8.4  T
   4    -50.7424248 -0.255071E-07  0.794E-04    9.30      24.7  T
   5    -50.7424248 -0.125399E-08  0.217E-04    9.30      90.5  T
speedup  1.04
cpu  time for SCC    0.00 s
wall time for SCC    0.00 s
speedup  1.00
cpu  time for grad    0.01 s
wall time for grad    0.01 s
 E :    -50.45927899  G :  0.001611    pred/act E change: -0.950D-05 -0.614D-05
Maxdispl :   0.0231   ||displ|| :   0.0320   Lambda : -0.891D-05
Largest |displ|/coords:  0.0231 (   1)  0.0085 (   4)  0.0068 (  12)
................................................................................
.............................. CYCLE   46 ......................................
................................................................................
   1    -50.7427294 -0.507427E+02  0.149E-02    9.30       0.0  T
   2    -50.7427295 -0.927018E-07  0.111E-02    9.30       1.8  T
   3    -50.7427296 -0.650712E-07  0.180E-03    9.31      10.9  T
   4    -50.7427296 -0.137747E-07  0.568E-04    9.31      34.5  T
   5    -50.7427296 -0.558643E-09  0.210E-04    9.31      93.5  T
speedup  1.06
cpu  time for SCC    0.00 s
wall time for SCC    0.00 s
speedup  1.00
cpu  time for grad    0.01 s
wall time for grad    0.01 s
 E :    -50.45928416  G :  0.001432    pred/act E change: -0.557D-05 -0.517D-05
Maxdispl :   0.0271   ||displ|| :   0.0542   Lambda : -0.932D-05
Largest |displ|/coords:  0.0271 (   2)  0.0176 (   1)  0.0137 (  15)
................................................................................
.............................. CYCLE   47 ......................................
................................................................................
   1    -50.7426997 -0.507427E+02  0.389E-02    9.31       0.0  T
   2    -50.7427000 -0.233518E-06  0.295E-02    9.31       1.0  T
   3    -50.7427002 -0.266189E-06  0.246E-03    9.31       8.0  T
   4    -50.7427002 -0.195763E-07  0.810E-04    9.31      24.2  T
   5    -50.7427002 -0.931145E-09  0.356E-04    9.31      55.1  T
speedup  1.06
cpu  time for SCC    0.00 s
wall time for SCC    0.00 s
speedup  1.00
cpu  time for grad    0.01 s
wall time for grad    0.01 s
 E :    -50.45929049  G :  0.000888    pred/act E change: -0.446D-05 -0.634D-05
Maxdispl :   0.0319   ||displ|| :   0.0557   Lambda : -0.755D-05
Largest |displ|/coords:  0.0319 (   2)  0.0187 (   4)  0.0161 (   1)
................................................................................
.............................. CYCLE   48 ......................................
................................................................................
   1    -50.7427824 -0.507428E+02  0.360E-02    9.30       0.0  T
   2    -50.7427826 -0.189794E-06  0.273E-02    9.30       1.0  T
   3    -50.7427829 -0.238903E-06  0.221E-03    9.30       8.9  T
   4    -50.7427829 -0.119285E-07  0.949E-04    9.30      20.7  T
   5    -50.7427829 -0.102244E-08  0.316E-04    9.30      62.0  T
speedup  1.09
cpu  time for SCC    0.00 s
wall time for SCC    0.00 s
speedup  1.01
cpu  time for grad    0.01 s
wall time for grad    0.01 s
 E :    -50.45929615  G :  0.001099    pred/act E change: -0.467D-05 -0.566D-05
Maxdispl :   0.0475   ||displ|| :   0.0854   Lambda : -0.110D-04
Largest |displ|/coords:  0.0475 (   2)  0.0441 (   1)  0.0285 (   4)
................................................................................
.............................. CYCLE   49 ......................................
................................................................................
   1    -50.7430614 -0.507431E+02  0.452E-02    9.30       0.0  T
   2    -50.7430617 -0.337212E-06  0.340E-02    9.30       1.0  T
   3    -50.7430620 -0.283694E-06  0.374E-03    9.30       5.2  T
   4    -50.7430620 -0.434960E-07  0.141E-03    9.30      13.9  T
   5    -50.7430620 -0.278348E-08  0.392E-04    9.30      50.0  T
   6    -50.7430620 -0.144730E-09  0.233E-04    9.30      84.3  T
speedup  0.93
cpu  time for SCC    0.00 s
wall time for SCC    0.01 s
speedup  1.01
cpu  time for grad    0.01 s
wall time for grad    0.01 s
 E :    -50.45930379  G :  0.001517    pred/act E change: -0.379D-05 -0.764D-05
Maxdispl :   0.0601   ||displ|| :   0.0937   Lambda : -0.125D-04
Largest |displ|/coords:  0.0601 (   2)  0.0279 (   4)  0.0262 (  23)
................................................................................
.............................. CYCLE   50 ......................................
................................................................................
   1    -50.7427768 -0.507428E+02  0.580E-02    9.30       0.0  T
   2    -50.7427774 -0.573650E-06  0.437E-02    9.30       1.0  T
   3    -50.7427780 -0.683546E-06  0.468E-03    9.30       4.2  T
   4    -50.7427781 -0.456546E-07  0.191E-03    9.30      10.3  T
   5    -50.7427781 -0.488325E-08  0.561E-04    9.30      35.0  T
   6    -50.7427781 -0.316739E-09  0.314E-04    9.30      62.5  T
speedup  0.91
cpu  time for SCC    0.00 s
wall time for SCC    0.01 s
speedup  0.95
cpu  time for grad    0.01 s
wall time for grad    0.01 s
 E :    -50.45931022  G :  0.002467    pred/act E change: -0.556D-05 -0.643D-05
Maxdispl :   0.0442   ||displ|| :   0.0861   Lambda : -0.135D-04
Largest |displ|/coords:  0.0442 (   1)  0.0331 (   2)  0.0283 (   5)
................................................................................
.............................. CYCLE   51 ......................................
................................................................................
   1    -50.7431531 -0.507432E+02  0.518E-02    9.30       0.0  T
   2    -50.7431536 -0.499021E-06  0.389E-02    9.30       1.0  T
   3    -50.7431540 -0.366844E-06  0.493E-03    9.30       4.0  T
   4    -50.7431541 -0.671842E-07  0.177E-03    9.30      11.1  T
   5    -50.7431541 -0.354598E-08  0.423E-04    9.30      46.4  T
   6    -50.7431541 -0.163887E-09  0.264E-04    9.30      74.3  T
speedup  1.11
cpu  time for SCC    0.01 s
wall time for SCC    0.01 s
speedup  1.02
cpu  time for grad    0.01 s
wall time for grad    0.01 s
 E :    -50.45931708  G :  0.001980    pred/act E change: -0.629D-05 -0.686D-05
Maxdispl :   0.0192   ||displ|| :   0.0297   Lambda : -0.735D-05
Largest |displ|/coords:  0.0192 (   1)  0.0089 (   4)  0.0084 (   6)
................................................................................
.............................. CYCLE   52 ......................................
................................................................................
   1    -50.7429990 -0.507430E+02  0.142E-02    9.30       0.0  T
   2    -50.7429991 -0.113763E-06  0.107E-02    9.30       1.8  T
   3    -50.7429991 -0.586569E-07  0.206E-03    9.30       9.5  T
   4    -50.7429992 -0.175777E-07  0.619E-04    9.30      31.7  T
   5    -50.7429992 -0.107743E-08  0.200E-04    9.30      97.8  T
speedup  0.87
cpu  time for SCC    0.00 s
wall time for SCC    0.00 s
speedup  1.01
cpu  time for grad    0.01 s
wall time for grad    0.01 s
 E :    -50.45932213  G :  0.001253    pred/act E change: -0.682D-05 -0.505D-05
Maxdispl :   0.0150   ||displ|| :   0.0364   Lambda : -0.596D-05
Largest |displ|/coords:  0.0150 (   2)  0.0134 (   1)  0.0118 (   6)

generating ANC from model Hessian ...
 Shifting diagonal of input Hessian by   5.180713614919810E-003
 Lowest  eigenvalues of input Hessian
    0.005000    0.005114   -0.000000   -0.000000   -0.000000    0.000000
    0.000000    0.000000    0.005378    0.005652    0.005946    0.006062
    0.006481    0.007054    0.008525    0.009325    0.010135    0.012295
 Highest eigenvalues
    1.397111    1.397656    1.491542    2.703301    3.326410    3.604646
 
cpu  time for ANC gen    0.01 s
wall time for ANC gen    0.01 s
................................................................................
.............................. CYCLE   53 ......................................
................................................................................
   1    -50.7427355 -0.507427E+02  0.207E-02    9.31       0.0  T
   2    -50.7427356 -0.118127E-06  0.156E-02    9.31       1.3  T
   3    -50.7427358 -0.115379E-06  0.193E-03    9.31      10.2  T
   4    -50.7427358 -0.138521E-07  0.706E-04    9.31      27.8  T
   5    -50.7427358 -0.843187E-09  0.251E-04    9.31      78.0  T
speedup  1.09
cpu  time for SCC    0.01 s
wall time for SCC    0.00 s
speedup  1.01
cpu  time for grad    0.01 s
wall time for grad    0.01 s
 E :    -50.45932612  G :  0.000888    pred/act E change:  0.000D+00 -0.399D-05
Maxdispl :   0.0058   ||displ|| :   0.0151   Lambda : -0.335D-05
Largest |displ|/coords:  0.0058 (   6)  0.0055 (   7)  0.0053 (   4)
................................................................................
.............................. CYCLE   54 ......................................
................................................................................
   1    -50.7427685 -0.507428E+02  0.109E-02    9.31       0.0  T
   2    -50.7427686 -0.214554E-07  0.820E-03    9.31       2.4  T
   3    -50.7427686 -0.200620E-07  0.926E-04    9.31      21.2  T
   4    -50.7427686 -0.283309E-08  0.323E-04    9.31      60.7  T
speedup  1.08
cpu  time for SCC    0.00 s
wall time for SCC    0.00 s
speedup  1.00
cpu  time for grad    0.01 s
wall time for grad    0.01 s
 E :    -50.45932891  G :  0.000487    pred/act E change:  0.000D+00 -0.279D-05
Maxdispl :   0.0211   ||displ|| :   0.0518   Lambda : -0.855D-05
Largest |displ|/coords:  0.0211 (   7)  0.0202 (   5)  0.0170 (   2)
................................................................................
.............................. CYCLE   55 ......................................
................................................................................
   1    -50.7427762 -0.507428E+02  0.340E-02    9.31       0.0  T
   2    -50.7427764 -0.241650E-06  0.256E-02    9.31       1.0  T
   3    -50.7427767 -0.208317E-06  0.321E-03    9.31       6.1  T
   4    -50.7427767 -0.349616E-07  0.108E-03    9.31      18.1  T
   5    -50.7427767 -0.157433E-08  0.354E-04    9.31      55.3  T
   6    -50.7427767 -0.196074E-09  0.189E-04    9.31     103.5  T
speedup  1.09
cpu  time for SCC    0.01 s
wall time for SCC    0.01 s
speedup  1.01
cpu  time for grad    0.01 s
wall time for grad    0.01 s
 E :    -50.45933419  G :  0.001084    pred/act E change: -0.168D-05 -0.527D-05
Maxdispl :   0.0160   ||displ|| :   0.0334   Lambda : -0.322D-05
Largest |displ|/coords:  0.0160 (   7)  0.0129 (   5)  0.0100 (   6)
................................................................................
.............................. CYCLE   56 ......................................
................................................................................
   1    -50.7427428 -0.507427E+02  0.217E-02    9.31       0.0  T
   2    -50.7427429 -0.909442E-07  0.164E-02    9.31       1.2  T
   3    -50.7427430 -0.100507E-06  0.170E-03    9.31      11.6  T
   4    -50.7427430 -0.100125E-07  0.717E-04    9.31      27.3  T
   5    -50.7427430 -0.674085E-09  0.214E-04    9.31      91.6  T
speedup  0.87
cpu  time for SCC    0.00 s
wall time for SCC    0.00 s
speedup  1.01
cpu  time for grad    0.01 s
wall time for grad    0.01 s
 E :    -50.45933664  G :  0.001046    pred/act E change: -0.429D-05 -0.245D-05
Maxdispl :   0.0274   ||displ|| :   0.0503   Lambda : -0.443D-05
Largest |displ|/coords:  0.0274 (   7)  0.0219 (   5)  0.0148 (  14)
................................................................................
.............................. CYCLE   57 ......................................
................................................................................
   1    -50.7426895 -0.507427E+02  0.312E-02    9.31       0.0  T
   2    -50.7426898 -0.204775E-06  0.236E-02    9.31       1.0  T
   3    -50.7426900 -0.241260E-06  0.243E-03    9.31       8.1  T
   4    -50.7426900 -0.196074E-07  0.108E-03    9.31      18.1  T
   5    -50.7426900 -0.150396E-08  0.310E-04    9.31      63.2  T
   6    -50.7426900 -0.179092E-09  0.158E-04    9.31     124.4  T
speedup  0.91
cpu  time for SCC    0.01 s
wall time for SCC    0.01 s
speedup  0.94
cpu  time for grad    0.01 s
wall time for grad    0.01 s
 E :    -50.45933965  G :  0.000829    pred/act E change: -0.161D-05 -0.301D-05
Maxdispl :   0.0198   ||displ|| :   0.0331   Lambda : -0.273D-05
Largest |displ|/coords:  0.0198 (   7)  0.0138 (   5)  0.0102 (  14)
................................................................................
.............................. CYCLE   58 ......................................
................................................................................
   1    -50.7426910 -0.507427E+02  0.198E-02    9.31       0.0  T
   2    -50.7426911 -0.899688E-07  0.150E-02    9.31       1.3  T
   3    -50.7426912 -0.108314E-06  0.168E-03    9.31      11.7  T
   4    -50.7426913 -0.800424E-08  0.728E-04    9.31      26.9  T
   5    -50.7426913 -0.683158E-09  0.195E-04    9.31     100.3  T
speedup  1.09
cpu  time for SCC    0.00 s
wall time for SCC    0.00 s
speedup  1.01
cpu  time for grad    0.01 s
wall time for grad    0.01 s
 E :    -50.45934171  G :  0.000734    pred/act E change: -0.222D-05 -0.206D-05
Maxdispl :   0.0257   ||displ|| :   0.0420   Lambda : -0.336D-05
Largest |displ|/coords:  0.0257 (   7)  0.0135 (  22)  0.0134 (   5)
................................................................................
.............................. CYCLE   59 ......................................
................................................................................
   1    -50.7426919 -0.507427E+02  0.246E-02    9.31       0.0  T
   2    -50.7426920 -0.135052E-06  0.185E-02    9.31       1.1  T
   3    -50.7426922 -0.157577E-06  0.229E-03    9.31       8.6  T
   4    -50.7426922 -0.121202E-07  0.905E-04    9.31      21.7  T
   5    -50.7426922 -0.104336E-08  0.268E-04    9.31      73.2  T
speedup  1.11
cpu  time for SCC    0.00 s
wall time for SCC    0.00 s
speedup  1.02
cpu  time for grad    0.01 s
wall time for grad    0.01 s
 E :    -50.45934416  G :  0.000818    pred/act E change: -0.137D-05 -0.245D-05
Maxdispl :   0.0253   ||displ|| :   0.0455   Lambda : -0.304D-05
Largest |displ|/coords:  0.0253 (   7)  0.0206 (   3)  0.0135 (  22)
................................................................................
.............................. CYCLE   60 ......................................
................................................................................
   1    -50.7426571 -0.507427E+02  0.258E-02    9.32       0.0  T
   2    -50.7426573 -0.131778E-06  0.194E-02    9.32       1.0  T
   3    -50.7426574 -0.152127E-06  0.237E-03    9.32       8.3  T
   4    -50.7426574 -0.112801E-07  0.877E-04    9.32      22.4  T
   5    -50.7426574 -0.976009E-09  0.274E-04    9.32      71.6  T
speedup  0.87
cpu  time for SCC    0.00 s
wall time for SCC    0.00 s
speedup  0.99
cpu  time for grad    0.01 s
wall time for grad    0.01 s
 E :    -50.45934640  G :  0.000810    pred/act E change: -0.168D-05 -0.225D-05
Maxdispl :   0.0301   ||displ|| :   0.0533   Lambda : -0.290D-05
Largest |displ|/coords:  0.0301 (   3)  0.0286 (   7)  0.0148 (  14)
................................................................................
.............................. CYCLE   61 ......................................
................................................................................
   1    -50.7425936 -0.507426E+02  0.289E-02    9.32       0.0  T
   2    -50.7425937 -0.138962E-06  0.218E-02    9.32       1.0  T
   3    -50.7425939 -0.168784E-06  0.240E-03    9.32       8.2  T
   4    -50.7425939 -0.984886E-08  0.838E-04    9.32      23.4  T
   5    -50.7425939 -0.932680E-09  0.290E-04    9.32      67.7  T
speedup  0.87
cpu  time for SCC    0.00 s
wall time for SCC    0.00 s
speedup  0.93
cpu  time for grad    0.01 s
wall time for grad    0.01 s
 E :    -50.45934847  G :  0.000702    pred/act E change: -0.152D-05 -0.207D-05
Maxdispl :   0.0314   ||displ|| :   0.0496   Lambda : -0.224D-05
Largest |displ|/coords:  0.0314 (   3)  0.0232 (   7)  0.0125 (  14)
................................................................................
.............................. CYCLE   62 ......................................
................................................................................
   1    -50.7425503 -0.507426E+02  0.251E-02    9.32       0.0  T
   2    -50.7425504 -0.931331E-07  0.190E-02    9.32       1.0  T
   3    -50.7425505 -0.114403E-06  0.186E-03    9.32      10.6  T
   4    -50.7425505 -0.598934E-08  0.672E-04    9.32      29.2  T
   5    -50.7425505 -0.587406E-09  0.231E-04    9.32      84.9  T
speedup  1.09
cpu  time for SCC    0.00 s
wall time for SCC    0.00 s
speedup  1.02
cpu  time for grad    0.01 s
wall time for grad    0.01 s
 E :    -50.45935005  G :  0.000606    pred/act E change: -0.145D-05 -0.158D-05
Maxdispl :   0.0313   ||displ|| :   0.0457   Lambda : -0.176D-05
Largest |displ|/coords:  0.0313 (   3)  0.0213 (   7)  0.0100 (   4)
................................................................................
.............................. CYCLE   63 ......................................
................................................................................
   1    -50.7425538 -0.507426E+02  0.216E-02    9.32       0.0  T
   2    -50.7425538 -0.609805E-07  0.163E-02    9.32       1.2  T
   3    -50.7425539 -0.757679E-07  0.134E-03    9.32      14.6  T
   4    -50.7425539 -0.382120E-08  0.583E-04    9.32      33.6  T
   5    -50.7425539 -0.368537E-09  0.172E-04    9.32     114.3  T
speedup  1.11
cpu  time for SCC    0.00 s
wall time for SCC    0.00 s
speedup  1.02
cpu  time for grad    0.01 s
wall time for grad    0.01 s
 E :    -50.45935126  G :  0.000538    pred/act E change: -0.112D-05 -0.121D-05
Maxdispl :   0.0239   ||displ|| :   0.0342   Lambda : -0.130D-05
Largest |displ|/coords:  0.0239 (   3)  0.0112 (   7)  0.0102 (   4)
................................................................................
.............................. CYCLE   64 ......................................
................................................................................
   1    -50.7426127 -0.507426E+02  0.147E-02    9.32       0.0  T
   2    -50.7426128 -0.283713E-07  0.111E-02    9.32       1.8  T
   3    -50.7426128 -0.305373E-07  0.864E-04    9.32      22.7  T
   4    -50.7426128 -0.255612E-08  0.373E-04    9.32      52.6  T
speedup  1.05
cpu  time for SCC    0.00 s
wall time for SCC    0.00 s
speedup  0.99
cpu  time for grad    0.01 s
wall time for grad    0.01 s
 E :    -50.45935215  G :  0.000477    pred/act E change: -0.884D-06 -0.890D-06
Maxdispl :   0.0172   ||displ|| :   0.0244   Lambda : -0.924D-06
Largest |displ|/coords:  0.0172 (   3)  0.0085 (   4)  0.0071 (   6)
................................................................................
.............................. CYCLE   65 ......................................
................................................................................
   1    -50.7426740 -0.507427E+02  0.104E-02    9.32       0.0  T
   2    -50.7426740 -0.131942E-07  0.777E-03    9.32       2.5  T
   3    -50.7426740 -0.137592E-07  0.746E-04    9.32      26.3  T
   4    -50.7426740 -0.111751E-08  0.215E-04    9.32      91.4  T
speedup  1.05
cpu  time for SCC    0.00 s
wall time for SCC    0.00 s
speedup  0.99
cpu  time for grad    0.01 s
wall time for grad    0.01 s
 E :    -50.45935283  G :  0.000425    pred/act E change: -0.650D-06 -0.677D-06
Maxdispl :   0.0200   ||displ|| :   0.0282   Lambda : -0.762D-06
Largest |displ|/coords:  0.0200 (   3)  0.0122 (   4)  0.0081 (   6)
................................................................................
.............................. CYCLE   66 ......................................
................................................................................
   1    -50.7426908 -0.507427E+02  0.124E-02    9.32       0.0  T
   2    -50.7426908 -0.200866E-07  0.931E-03    9.32       2.1  T
   3    -50.7426908 -0.217006E-07  0.899E-04    9.32      21.8  T
   4    -50.7426908 -0.167572E-08  0.335E-04    9.32      58.6  T
speedup  1.08
cpu  time for SCC    0.00 s
wall time for SCC    0.00 s
speedup  0.99
cpu  time for grad    0.01 s
wall time for grad    0.01 s
 E :    -50.45935337  G :  0.000395    pred/act E change: -0.462D-06 -0.539D-06
[...]
Largest |displ|/coords:  0.0141 (   3)  0.0104 (   4)  0.0055 (   6)
................................................................................
.............................. CYCLE   67 ......................................
................................................................................
   1    -50.7427167 -0.507427E+02  0.943E-03    9.32       0.0  T
   2    -50.7427167 -0.147223E-07  0.706E-03    9.32       2.8  T
   3    -50.7427167 -0.124259E-07  0.885E-04    9.32      22.2  T
   4    -50.7427167 -0.189108E-08  0.314E-04    9.32      62.4  T
speedup  1.05
cpu  time for SCC    0.00 s
wall time for SCC    0.00 s
speedup  0.99
cpu  time for grad    0.01 s
wall time for grad    0.01 s
 E :    -50.45935375  G :  0.000333    pred/act E change: -0.381D-06 -0.380D-06
Maxdispl :   0.0223   ||displ|| :   0.0330   Lambda : -0.606D-06
Largest |displ|/coords:  0.0223 (   3)  0.0151 (   4)  0.0099 (   6)
................................................................................
.............................. CYCLE   68 ......................................
................................................................................
   1    -50.7426226 -0.507426E+02  0.138E-02    9.32       0.0  T
   2    -50.7426226 -0.316988E-07  0.104E-02    9.32       1.9  T
   3    -50.7426227 -0.348840E-07  0.108E-03    9.32      18.2  T
   4    -50.7426227 -0.279506E-08  0.463E-04    9.32      42.3  T
   5    -50.7426227 -0.200735E-09  0.120E-04    9.32     162.9  T
speedup  0.89
cpu  time for SCC    0.00 s
wall time for SCC    0.00 s
speedup  0.94
cpu  time for grad    0.01 s
wall time for grad    0.01 s
 E :    -50.45935411  G :  0.000342    pred/act E change: -0.256D-06 -0.366D-06
Maxdispl :   0.0166   ||displ|| :   0.0268   Lambda : -0.584D-06
Largest |displ|/coords:  0.0166 (   3)  0.0141 (   4)  0.0079 (   6)
................................................................................
.............................. CYCLE   69 ......................................
................................................................................
   1    -50.7426664 -0.507427E+02  0.111E-02    9.32       0.0  T
   2    -50.7426665 -0.229425E-07  0.834E-03    9.32       2.4  T
   3    -50.7426665 -0.218452E-07  0.996E-04    9.32      19.7  T
   4    -50.7426665 -0.273334E-08  0.401E-04    9.32      48.9  T
speedup  1.08
cpu  time for SCC    0.00 s
wall time for SCC    0.00 s
speedup  1.01
cpu  time for grad    0.01 s
wall time for grad    0.01 s
 E :    -50.45935451  G :  0.000402    pred/act E change: -0.303D-06 -0.396D-06
Maxdispl :   0.0164   ||displ|| :   0.0288   Lambda : -0.658D-06
Largest |displ|/coords:  0.0164 (   3)  0.0128 (   4)  0.0117 (   2)
................................................................................
.............................. CYCLE   70 ......................................
................................................................................
   1    -50.7426554 -0.507427E+02  0.108E-02    9.32       0.0  T
   2    -50.7426554 -0.180151E-07  0.816E-03    9.32       2.4  T
   3    -50.7426554 -0.202496E-07  0.799E-04    9.32      24.6  T
   4    -50.7426554 -0.144725E-08  0.356E-04    9.32      55.1  T
speedup  1.08
cpu  time for SCC    0.00 s
wall time for SCC    0.00 s
speedup  1.00
cpu  time for grad    0.01 s
wall time for grad    0.01 s
 E :    -50.45935507  G :  0.000460    pred/act E change: -0.292D-06 -0.556D-06
Maxdispl :   0.0396   ||displ|| :   0.0706   Lambda : -0.143D-05
Largest |displ|/coords:  0.0396 (   3)  0.0313 (   4)  0.0306 (   2)
................................................................................
.............................. CYCLE   71 ......................................
................................................................................
   1    -50.7426251 -0.507426E+02  0.271E-02    9.33       0.0  T
   2    -50.7426252 -0.108524E-06  0.204E-02    9.33       1.0  T
   3    -50.7426253 -0.129764E-06  0.191E-03    9.33      10.3  T
   4    -50.7426253 -0.745299E-08  0.813E-04    9.33      24.1  T
   5    -50.7426253 -0.746780E-09  0.246E-04    9.33      79.7  T
speedup  1.06
cpu  time for SCC    0.00 s
wall time for SCC    0.00 s
speedup  1.01
cpu  time for grad    0.01 s
wall time for grad    0.01 s
 E :    -50.45935604  G :  0.000599    pred/act E change: -0.329D-06 -0.972D-06
Maxdispl :   0.0339   ||displ|| :   0.0590   Lambda : -0.893D-06
Largest |displ|/coords:  0.0339 (   3)  0.0255 (   4)  0.0252 (   2)
................................................................................
.............................. CYCLE   72 ......................................
................................................................................
   1    -50.7425816 -0.507426E+02  0.217E-02    9.33       0.0  T
   2    -50.7425817 -0.691461E-07  0.163E-02    9.33       1.2  T
   3    -50.7425817 -0.799440E-07  0.142E-03    9.33      13.8  T
   4    -50.7425817 -0.531431E-08  0.686E-04    9.33      28.6  T
   5    -50.7425817 -0.508670E-09  0.186E-04    9.33     105.5  T
speedup  1.09
cpu  time for SCC    0.01 s
wall time for SCC    0.00 s
speedup  1.01
cpu  time for grad    0.01 s
wall time for grad    0.01 s
 E :    -50.45935671  G :  0.000574    pred/act E change: -0.720D-06 -0.673D-06
Maxdispl :   0.0416   ||displ|| :   0.0730   Lambda : -0.111D-05
Largest |displ|/coords:  0.0416 (   3)  0.0318 (   2)  0.0317 (   4)
................................................................................
.............................. CYCLE   73 ......................................
................................................................................
   1    -50.7425583 -0.507426E+02  0.268E-02    9.33       0.0  T
   2    -50.7425584 -0.107154E-06  0.202E-02    9.33       1.0  T
   3    -50.7425586 -0.125285E-06  0.178E-03    9.33      11.0  T
   4    -50.7425586 -0.823518E-08  0.868E-04    9.33      22.6  T
   5    -50.7425586 -0.845048E-09  0.238E-04    9.33      82.5  T
speedup  1.06
cpu  time for SCC    0.00 s
wall time for SCC    0.00 s
speedup  1.00
cpu  time for grad    0.01 s
wall time for grad    0.01 s
 E :    -50.45935750  G :  0.000418    pred/act E change: -0.448D-06 -0.793D-06
Maxdispl :   0.0252   ||displ|| :   0.0453   Lambda : -0.754D-06
Largest |displ|/coords:  0.0252 (   3)  0.0198 (   2)  0.0197 (   4)
................................................................................
.............................. CYCLE   74 ......................................
................................................................................
   1    -50.7425856 -0.507426E+02  0.165E-02    9.33       0.0  T
   2    -50.7425857 -0.396680E-07  0.124E-02    9.33       1.6  T
   3    -50.7425857 -0.443355E-07  0.119E-03    9.33      16.5  T
   4    -50.7425857 -0.349942E-08  0.546E-04    9.33      35.9  T
   5    -50.7425857 -0.336748E-09  0.138E-04    9.33     142.3  T
speedup  1.09
cpu  time for SCC    0.00 s
wall time for SCC    0.00 s
speedup  1.02
cpu  time for grad    0.01 s
wall time for grad    0.01 s
 E :    -50.45935802  G :  0.000262    pred/act E change: -0.560D-06 -0.514D-06
Maxdispl :   0.0162   ||displ|| :   0.0260   Lambda : -0.294D-06
Largest |displ|/coords:  0.0162 (   3)  0.0120 (   4)  0.0095 (   2)
................................................................................
.............................. CYCLE   75 ......................................
................................................................................
   1    -50.7425896 -0.507426E+02  0.954E-03    9.33       0.0  T
   2    -50.7425896 -0.135811E-07  0.715E-03    9.33       2.7  T
   3    -50.7425896 -0.146505E-07  0.790E-04    9.33      24.8  T
   4    -50.7425896 -0.130972E-08  0.320E-04    9.33      61.3  T
speedup  0.79
cpu  time for SCC    0.00 s
wall time for SCC    0.00 s
speedup  0.99
cpu  time for grad    0.01 s
wall time for grad    0.01 s
 E :    -50.45935822  G :  0.000191    pred/act E change: -0.378D-06 -0.199D-06
Maxdispl :   0.0042   ||displ|| :   0.0081   Lambda : -0.986D-07
Largest |displ|/coords:  0.0042 (   3)  0.0036 (   4)  0.0035 (   7)
................................................................................
.............................. CYCLE   76 ......................................
................................................................................
   1    -50.7426125 -0.507426E+02  0.330E-03    9.33       0.0  T
   2    -50.7426125 -0.184341E-08  0.244E-03    9.33       8.0  T
   3    -50.7426125 -0.154284E-08  0.363E-04    9.33      54.0  T
   4    -50.7426125 -0.206839E-09  0.119E-04    9.33     164.9  T
speedup  1.05
cpu  time for SCC    0.00 s
wall time for SCC    0.00 s
speedup  1.00
cpu  time for grad    0.01 s
wall time for grad    0.01 s
 E :    -50.45935829  G :  0.000117    pred/act E change: -0.147D-06 -0.745D-07
Maxdispl :   0.0006   ||displ|| :   0.0016   Lambda : -0.445D-07
Largest |displ|/coords:  0.0006 (   7)  0.0005 (  14)  0.0005 (  19)

   *** GEOMETRY OPTIMIZATION CONVERGED AFTER 76 ITERATIONS ***

------------------------------------------------------------------------
 total energy gain (kcal):     -0.0202
------------------------------------------------------------------------
================
 final structure:
================
$coord
        1.43601395195711        0.04306194377234       -0.38107269349176      S 
        0.26657040733314        0.56750652212548        2.08419588100735      O 
        3.63743929000132       -1.56115486739813       -0.18584849431185      O 
       -0.60121840714641       -1.36115859644155       -1.98810107235063      O 
        1.90966576544375        2.43008921681453       -1.70890931334446      O 
        0.35347537354715       -7.55139323303190        2.46246223668133      O 
        1.07605940527897       -6.09090396461127        3.36990608336123      H 
        1.24457536264767       -9.00992345780615        3.06114789441713      H 
       -2.30844305183856        2.97023206783872       -4.43443261370036      O 
       -2.91803785866856        1.25861323171774       -4.44712521549916      H 
       -0.61657526882752        2.83290704413953       -3.69572844762961      H 
        2.55009641216441       -3.43032865237029        4.36353543469576      O 
        3.47411777314383       -2.94237895184487        2.84669400467393      H 
        1.27759434271457       -2.12598785429667        4.47263892623676      H 
       -4.62541760051107        6.06116960278826       -1.29972290407172      O 
       -5.01055662421880        7.58209266479456       -2.20472457717550      H 
       -3.98740700429722        4.84497144423719       -2.57938790063451      H 
        1.42396108646179       -5.71500741646488       -2.13312731463093      O 
        0.85459788016681       -6.59465711790475       -0.59390590665245      H 
       -0.02851210078138       -3.17629549079537       -2.17326659633636      H 
        2.94784130796219       -4.81799055525285       -1.65619288678127      H 
       -0.49271411081603        5.25332200946837        1.41589007636027      N 
        0.17069549335082        6.54920651918317        2.66114949575752      H 
       -2.24412699834531        5.76447496091879        0.61362090905615      H 
        0.77812312482693        4.83579029106191       -0.05446572301592      H 
       -0.56781795184436        3.38374260168086        2.18477071733956      H 
$end
 
 Bond Distances (Angstroems)
 ---------------------------
S1-O2=1.4703         S1-O3=1.4451         S1-O4=1.5613         S1-O5=1.4670         O2-S1=1.4703         O3-S1=1.4451         
O4-S1=1.5613         O4-H20=1.0120        O5-S1=1.4670         O6-H7=0.9870         O6-H8=0.9584         H7-O6=0.9870         
H8-O6=0.9584         O9-H10=0.9615        O9-H11=0.9796        H10-O9=0.9615        H11-O9=0.9796        O12-H13=0.9747       
O12-H14=0.9660       H13-O12=0.9747       H14-O12=0.9660       O15-H16=0.9585       O15-H17=0.9934       H16-O15=0.9585       
H17-O15=0.9934       O18-H19=0.9853       O18-H21=0.9692       H19-O18=0.9853       H20-O4=1.0120        H21-O18=0.9692       
N22-H23=1.0138       N22-H24=1.0547       N22-H25=1.0519       N22-H26=1.0705       H23-N22=1.0138       H24-N22=1.0547       
H25-N22=1.0519       H26-N22=1.0705       
 N  H  Rav=1.0477 sigma=0.0208  Rmin=1.0138  Rmax=1.0705     4
 O  H  Rav=0.9769 sigma=0.0159  Rmin=0.9584  Rmax=1.0120    11
 S  O  Rav=1.4859 sigma=0.0446  Rmin=1.4451  Rmax=1.5613     4
 
 selected bond angles (degree)
 --------------------
O3-S1-O2=112.75                O4-S1-O2=106.41                O4-S1-O3=108.42                O5-S1-O2=109.53                
O5-S1-O3=113.72                O5-S1-O4=105.48                H20-O4-S1=107.32               H8-O6-H7=106.21                
H11-O9-H10=103.86              
 
 selected dihedral angles (degree)
 ---------------------------------
H20-O4-S1-O2=250.41           H20-O4-S1-O3= 11.95           H20-O4-S1-O5=134.10           
 
 CMA Distance (Angstroems)
 ---------------------------
R(CMA):  1.0266

========================================================================
 FINAL SINGLEPOINT CALCULATION ON OPTIMIZED GEOMETRY
========================================================================

 Ncao       : 65
 Nao        : 64
 Nshell     : 38
 Nel        : 80
 T(el)      :   300.0
 intcut     :    25.0
 scfconv/Eh :  0.100E-05
   qconv/e  :  0.100E-03
 intneglect :  0.100E-07
 broydamp   :      0.250
 iter      E             dE          RMSdq      gap      omega  full diag
   1    -50.7426125 -0.507426E+02  0.490E-05    9.33       0.0  T
   2    -50.7426125 -0.127898E-11  0.314E-05    9.33     624.4  T
   3    -50.7426125 -0.795808E-12  0.584E-06    9.33    3360.9  T
speedup  0.71
cpu  time for SCC    0.00 s
wall time for SCC    0.00 s

   *** convergence criteria satisfied after 3 iterations ***

          eigenvalues
 #    :          28         29         30         31         32         33         34         35
 occ. :        2.000      2.000      2.000      2.000      2.000      2.000      2.000      2.000
 eps  :       -13.450    -12.990    -12.691    -12.433    -12.287    -12.225    -12.148    -11.988
 #    :          36         37         38         39         40         41         42         43
 occ. :        2.000      2.000      2.000      2.000      2.000      0.000      0.000      0.000
 eps  :       -11.956    -11.875    -11.801    -11.749    -11.638     -2.310     -0.972     -0.085
 #    :          44         45         46         47         48         49         50         51
 occ. :        0.000      0.000      0.000      0.000      0.000      0.000      0.000      0.000
 eps  :         0.651      0.802      1.458      1.695      3.199      3.650      4.184      4.635


   #   Z            q   n(s)   n(p)   n(d)      C6AA      α(0)
   1  16 S      1.693  1.589  1.782  0.936    88.924    15.871
   2   8 O     -0.759  1.772  4.987  0.000    30.357     7.387
   3   8 O     -0.739  1.770  4.970  0.000    29.807     7.320
   4   8 O     -0.649  1.762  4.887  0.000    26.374     6.933
   5   8 O     -0.756  1.771  4.986  0.000    30.290     7.379
   6   8 O     -0.616  1.752  4.865  0.000    25.582     6.826
   7   1 H      0.328  0.672  0.000  0.000     0.644     1.260
   8   1 H      0.282  0.718  0.000  0.000     0.779     1.386
   9   8 O     -0.611  1.742  4.869  0.000    25.456     6.810
  10   1 H      0.303  0.697  0.000  0.000     0.713     1.326
  11   1 H      0.321  0.679  0.000  0.000     0.663     1.279
  12   8 O     -0.610  1.743  4.867  0.000    25.424     6.805
  13   1 H      0.311  0.689  0.000  0.000     0.689     1.304
  14   1 H      0.302  0.698  0.000  0.000     0.714     1.327
  15   8 O     -0.610  1.746  4.864  0.000    25.427     6.806
  16   1 H      0.287  0.713  0.000  0.000     0.760     1.370
  17   1 H      0.339  0.661  0.000  0.000     0.615     1.232
  18   8 O     -0.612  1.757  4.855  0.000    25.481     6.813
  19   1 H      0.337  0.663  0.000  0.000     0.619     1.236
  20   1 H      0.382  0.618  0.000  0.000     0.515     1.126
  21   1 H      0.312  0.688  0.000  0.000     0.686     1.301
  22   7 N     -0.349  1.269  4.080  0.000    28.961     7.993
  23   1 H      0.233  0.767  0.000  0.000     0.952     1.528
  24   1 H      0.297  0.703  0.000  0.000     0.722     1.331
  25   1 H      0.286  0.714  0.000  0.000     0.755     1.362
  26   1 H      0.298  0.702  0.000  0.000     0.718     1.328

 Mol. C6AA /au·bohr⁶  :       5455.846004
 Mol. C8AA /au·bohr⁸  :     118059.338304
 Mol. α(0) /au        :        106.637345

 
 Wiberg/Mayer (AO) data. WBOs > 0.1 written file <wbo>
 largest (>0.05) Wiberg bond orders for each atom
           total WBO             WBO to atom ...
     1  S   4.825    O    3 1.333    O    5 1.256    O    2 1.245    O    4 0.951
     2  O   1.725    S    1 1.245    H   26 0.117    O    5 0.105    O    3 0.103    O    4 0.074
     3  O   1.727    S    1 1.333    O    2 0.103    O    5 0.099    O    4 0.086
     4  O   1.939    S    1 0.951    H   20 0.694    O    3 0.086    O    2 0.074    O    5 0.070
     5  O   1.730    S    1 1.256    O    2 0.105    O    3 0.099    H   25 0.079    O    4 0.070    H   11 0.055
     6  O   1.866    H    8 0.917    H    7 0.818    H   19 0.064
     7  H   0.893    O    6 0.818    O   12 0.073
     8  H   0.921    O    6 0.917
     9  O   1.889    H   10 0.899    H   11 0.838    H   17 0.082
    10  H   0.908    O    9 0.899
    11  H   0.897    O    9 0.838    O    5 0.055
    12  O   1.884    H   14 0.886    H   13 0.856    H    7 0.073
    13  H   0.903    O   12 0.856
    14  H   0.909    O   12 0.886
    15  O   1.903    H   16 0.912    H   17 0.801    H   24 0.100
    16  H   0.917    O   15 0.912
    17  H   0.885    O   15 0.801    O    9 0.082
    18  O   1.939    H   21 0.875    H   19 0.820    H   20 0.142
    19  H   0.886    O   18 0.820    O    6 0.064
    20  H   0.854    O    4 0.694    O   18 0.142
    21  H   0.903    O   18 0.875
    22  N   3.517    H   23 0.942    H   25 0.829    H   24 0.807    H   26 0.784
    23  H   0.946    N   22 0.942
    24  H   0.912    N   22 0.807    O   15 0.100
    25  H   0.918    N   22 0.829    O    5 0.079
    26  H   0.911    N   22 0.784    O    2 0.117
 MOs/occ written to file <molden.input>
 
molecular dipole:
                 x           y           z       tot (Debye)
 q only:       -0.835       2.456       0.688
   full:       -0.440       2.302       0.641       6.176
molecular quadrupole (traceless):
                xx          xy          yy          xz          yz          zz
 q only:      -10.961      -5.279      20.276       2.598       4.883      -9.315
  q+dip:      -10.242      -6.019      20.331       3.112       3.352     -10.090
   full:      -10.605      -6.071      20.967       3.336       3.416     -10.362

SCC energy    :     -50.7426125
rep           :       0.2831809
ES            :       0.2679513
AES           :      -0.0742036
AXC           :      -0.0094134
disp          :      -0.0185287
XB            :       0.0000000
fix           :       0.0000000
total E       :     -50.4593583
atomizationE  :       4.9896625     3131.06
(atE without considering molecular charge,
 total energy contains solvation terms)
H-L gap (eV)  :          9.3282
optimized geometry written to: xtbopt.xyz


------------------------------------------------------------------------
 * finished run on 2019/09/16 at 11:35:31.729     
------------------------------------------------------------------------
 total:
 * wall-time:     0 d,  0 h,  0 min,  1.830 sec
 *  cpu-time:     0 d,  0 h,  0 min,  1.795 sec
 * ratio c/w:     0.981 speedup
 SCF:
 * wall-time:     0 d,  0 h,  0 min,  0.147 sec
 *  cpu-time:     0 d,  0 h,  0 min,  0.144 sec
 * ratio c/w:     0.978 speedup
 ANC optimizer:
 * wall-time:     0 d,  0 h,  0 min,  1.657 sec
 *  cpu-time:     0 d,  0 h,  0 min,  1.629 sec
 * ratio c/w:     0.983 speedup

