      -----------------------------------------------------------      
     |                   =====================                   |     
     |                           x T B                           |     
     |                   =====================                   |     
     |                         S. Grimme                         |     
     |          Mulliken Center for Theoretical Chemistry        |     
     |                    University of Bonn                     |     
     |                 Version 6.0.1 (SAW181210)                 |     
      -----------------------------------------------------------      

   This program is distributed in the hope that it will be useful,
   but WITHOUT ANY WARRANTY; without even the implied warranty of
   MERCHANTABILITY or FITNESS FOR A PARTICULAR PURPOSE.
   
   FOR NON-COMMERCIAL, ACADEMIA USE ONLY.
   
   Cite this work as:
   S. Grimme, C. Bannwarth, P. Shushkov, J. Comput. Theory Chem., 2017,
   13, 1989-2009.
   C. Bannwarth, S. Ehlert and S. Grimme., ChemRxiv, 2018, preprint.
   http://doi.org/10.26434/chemrxiv.7246238.v1
   
   for sTDA-xTB:
   S. Grimme and C. Bannwarth, J. Chem. Phys., 2016, 145, 054103.
   
   in the mass-spec context:
   V. Asgeirsson, C. Bauer and S. Grimme, Chem. Sci., 2017, 8, 4879.
   
   if GBSA is used:
   P. Shushkov, F. März and S. Grimme, unpublished.
   
   for ANC optimizer:
   S. Grimme, unpublished.
   Rational Function algorithm used in ANCopt:
   F. Eckert, P. Pulay, H.-J. Werner, J. Comput. Chem., 1997, 18, 1473.
   
   with help from (in alphabetical order)
   C. Bannwarth, F. Bohle, G. Brandenburg, E. Caldeweyher, M. Checinski,
   S. Dohm, S. Ehlert, S. Ehrlich, F. März, H. Neugebauer, J. Pisarek,
   P. Pracht, P. Shushkov, and S. Spicher.
   
 * started run on 2019/09/16 at 12:15:59.202     
========================================================================
 # omp threads = 1
========================================================================
number of atoms            : 26
number of electrons        : 80
charge                     : 0
spin                       : .0
first test random number   : .5759

########################################################################
# WARNING! Please study the warnings concerning your input carefully
#  - XTBPATH is not set, using XTBHOME instead
#  - the use of '-opt' is discouraged, please use '--opt' next time
#  - the use of '-chrg' is discouraged, please use '--chrg' next time
#  - the use of '-uhf' is discouraged, please use '--uhf' next time
########################################################################

           ------------------------------------------------- 
          |                 G F N 2 - x T B                 |
          | Geometry, Frequencies, Noncovalent interactions |
          |            JCTC 2018 parametrisation            |
           ------------------------------------------------- 
      method parameters     
 k(s)        :  1.8500
 k(p)        :  2.2300
 k(d)        :  2.2300
 k(f)        :  2.0000
 kEN (H0ij)  : -2.0000
 D4 a1       :  0.5200
 D4 a2       :  5.0000
 D4 s6       :  1.0000
 D4 s8       :  2.7000
 D4 s9       :  5.0000
 alphaj      :  2.0000


            Z     q(EN)     CN     RAES       Cart. coordinates
     1  S   6.0    0.67    4.16    3.98    -0.33801    -0.63601    -0.72500
     2  O   6.0   -0.31    1.20    1.80     1.42301    -2.65654    -1.58779
     3  O   6.0   -0.31    1.18    1.80    -0.25095     1.52014    -2.53375
     4  O   6.0   -0.33    1.24    1.80    -2.95827    -1.66040    -0.61119
     5  O   6.0   -0.33    1.22    1.80     0.43419     0.25277     1.83271
     6  O   6.0   -0.29    2.02    1.83    -5.89250    -3.38420     3.08932
     7  H   1.0    0.17    1.05    1.44    -4.89708    -3.00665     1.61243
     8  H   1.0    0.15    0.97    1.43    -6.46288    -5.09791     2.86029
     9  O   6.0   -0.29    2.05    1.83     7.78427     1.13930    -2.72390
    10  H   1.0    0.16    1.04    1.43     7.21894     0.47010    -1.12791
    11  H   1.0    0.15    0.97    1.43     9.45738     1.78481    -2.40980
    12  O   6.0   -0.29    2.04    1.83     5.51512    -0.95068     1.21871
    13  H   1.0    0.17    1.01    1.43     4.62384    -2.34638     0.46222
    14  H   1.0    0.17    1.00    1.43     4.25497    -0.02158     2.14791
    15  O   6.0   -0.28    2.02    1.83    -5.27289     2.98857    -0.60760
    16  H   1.0    0.16    1.03    1.43    -5.08642     1.21534    -0.97572
    17  H   1.0    0.16    0.98    1.43    -4.01962     3.82655    -1.62825
    18  O   6.0   -0.22    2.91    2.58     3.69271    -0.02351    -5.14701
    19  H   1.0    0.14    1.02    1.43     3.24967    -1.69078    -4.43022
    20  H   1.0    0.14    1.02    1.43     2.35593     1.24614    -4.84533
    21  H   1.0    0.14    1.05    1.44     5.36445     0.56867    -4.55870
    22  N   5.0   -0.14    3.95    2.74    -4.03917     1.29245     4.13771
    23  H   1.0    0.08    0.99    1.43    -4.20642     2.20455     5.84784
    24  H   1.0    0.12    1.07    1.44    -2.15688     1.01561     3.73180
    25  H   1.0    0.10    1.05    1.44    -4.94264    -0.42796     4.22928
    26  H   1.0    0.10    1.03    1.43    -4.85075     2.37761     2.74192

  Z AO/shell   Hii/eV     exponent
  1     Wed Apr 25 08:07:45 CEST 2018   EN: 2.200 GM2: 0.406  GM3: 0.0800  RAES: 1.40
     1s    -10.707211    1.230000
  7     Wed Apr 25 08:07:45 CEST 2018   EN: 3.040 GM2: 0.461  GM3:-0.0640  RAES: 1.90
     2s    -16.686243    2.339881
     2p    -12.523956    2.014332
  8     Wed Apr 25 08:07:45 CEST 2018   EN: 3.440 GM2: 0.452  GM3:-0.0517  RAES: 1.80
     2s    -20.229985    2.439742
     2p    -15.503117    2.137023
 16     Tue Apr 24 11:44:34 CEST 2018   EN: 2.580 GM2: 0.340  GM3:-0.0502  RAES: 3.10
     3s    -20.029654    1.981333
     3p    -11.377694    2.025643
     3d     -0.420282    1.702555
 no old-style atom pair restraining (fixing) potential

molecular fragmentation (1/2 indicates fragments):
11111222222222222222222222
# atoms in fragment 1/2:     5    21
 fragment masses (1/2) :       96.06      109.12
CMA distance (Bohr)    :   1.238
constraining FC (au)   :  0.0500
           ------------------------------------------------- 
          |        Self-Consistent Charge Iterations        |
           ------------------------------------------------- 

 Ncao       : 65
 Nao        : 64
 Nshell     : 38
 Nel        : 80
 T(el)      :   300.0
 intcut     :    25.0
 scfconv/Eh :  0.100E-05
   qconv/e  :  0.100E-03
 intneglect :  0.100E-07
 broydamp   :      0.250
 iter      E             dE          RMSdq      gap      omega  full diag
   1    -50.6179170 -0.506179E+02  0.699E+00   10.46       0.0  T
   2    -50.6567978 -0.388808E-01  0.503E+00   10.10       1.0  T
   3    -50.6904834 -0.336856E-01  0.106E+00    8.23       1.0  T
   4    -50.6942230 -0.373953E-02  0.554E-01    8.12       1.0  T
   5    -50.6951981 -0.975140E-03  0.204E-01    7.96       1.0  T
   6    -50.6954019 -0.203793E-03  0.980E-02    8.05       1.0  T
   7    -50.6954585 -0.566392E-04  0.416E-02    8.07       1.0  T
   8    -50.6954658 -0.727282E-05  0.238E-02    8.07       1.0  T
   9    -50.6954694 -0.358357E-05  0.640E-03    8.07       3.1  T
  10    -50.6954695 -0.102578E-06  0.162E-03    8.06      12.1  T
  11    -50.6954695 -0.154137E-07  0.690E-04    8.06      28.4  T
  12    -50.6954695 -0.208962E-08  0.337E-04    8.06      58.2  T
speedup  1.05
cpu  time for SCC    0.02 s
wall time for SCC    0.02 s

   *** convergence criteria satisfied after 12 iterations ***

          eigenvalues
 #    :          28         29         30         31         32         33         34         35
 occ. :        2.000      2.000      2.000      2.000      2.000      2.000      2.000      2.000
 eps  :       -12.045    -11.991    -11.628    -11.535    -11.441    -10.642    -10.452     -9.933
 #    :          36         37         38         39         40         41         42         43
 occ. :        2.000      2.000      2.000      2.000      2.000      0.000      0.000      0.000
 eps  :        -9.759     -9.743     -9.610     -9.517     -9.445     -1.382     -1.008      0.539
 #    :          44         45         46         47         48         49         50         51
 occ. :        0.000      0.000      0.000      0.000      0.000      0.000      0.000      0.000
 eps  :         2.214      2.302      2.752      2.887      3.059      3.147      3.931      5.051


   #   Z            q   n(s)   n(p)   n(d)      C6AA      α(0)
   1  16 S      1.502  1.609  1.899  0.990    93.412    16.267
   2   8 O     -0.802  1.779  5.023  0.000    31.638     7.541
   3   8 O     -0.811  1.781  5.029  0.000    31.916     7.574
   4   8 O     -0.803  1.782  5.021  0.000    31.674     7.546
   5   8 O     -0.802  1.779  5.023  0.000    31.661     7.544
   6   8 O     -0.628  1.732  4.895  0.000    25.854     6.863
   7   1 H      0.336  0.664  0.000  0.000     0.622     1.239
   8   1 H      0.281  0.719  0.000  0.000     0.780     1.388
   9   8 O     -0.626  1.728  4.898  0.000    25.810     6.857
  10   1 H      0.341  0.659  0.000  0.000     0.610     1.226
  11   1 H      0.291  0.709  0.000  0.000     0.749     1.359
  12   8 O     -0.615  1.732  4.883  0.000    25.553     6.823
  13   1 H      0.313  0.687  0.000  0.000     0.683     1.298
  14   1 H      0.313  0.687  0.000  0.000     0.682     1.297
  15   8 O     -0.612  1.731  4.881  0.000    25.477     6.812
  16   1 H      0.322  0.678  0.000  0.000     0.658     1.274
  17   1 H      0.301  0.699  0.000  0.000     0.719     1.332
  18   8 O     -0.397  1.632  4.766  0.000    20.744     6.151
  19   1 H      0.413  0.587  0.000  0.000     0.461     1.067
  20   1 H      0.412  0.588  0.000  0.000     0.463     1.069
  21   1 H      0.417  0.583  0.000  0.000     0.455     1.059
  22   7 N     -0.287  1.247  4.040  0.000    27.382     7.772
  23   1 H      0.233  0.767  0.000  0.000     0.954     1.530
  24   1 H      0.306  0.694  0.000  0.000     0.697     1.308
  25   1 H      0.306  0.694  0.000  0.000     0.696     1.307
  26   1 H      0.296  0.704  0.000  0.000     0.725     1.333

 Mol. C6AA /au·bohr⁶  :       5485.783903
 Mol. C8AA /au·bohr⁸  :     119333.545880
 Mol. α(0) /au        :        106.837200

 
 Wiberg/Mayer (AO) data. WBOs > 0.1 written file <wbo>
 largest (>0.05) Wiberg bond orders for each atom
           total WBO             WBO to atom ...
     1  S   4.986    O    2 1.245    O    3 1.244    O    4 1.239    O    5 1.225
     2  O   1.653    S    1 1.245    O    3 0.101    O    5 0.091    O    4 0.088    H   19 0.062
     3  O   1.636    S    1 1.244    O    2 0.101    O    5 0.095    O    4 0.091    H   20 0.064
     4  O   1.655    S    1 1.239    O    5 0.098    O    3 0.091    O    2 0.088    H    7 0.058
     5  O   1.661    S    1 1.225    O    4 0.098    O    3 0.095    O    2 0.091    H   24 0.081
     6  O   1.828    H    8 0.907    H    7 0.824
     7  H   0.887    O    6 0.824    O    4 0.058
     8  H   0.921    O    6 0.907
     9  O   1.852    H   11 0.901    H   10 0.817    H   21 0.077
    10  H   0.884    O    9 0.817    O   12 0.065
    11  H   0.915    O    9 0.901
    12  O   1.870    H   14 0.876    H   13 0.875    H   10 0.065
    13  H   0.902    O   12 0.875
    14  H   0.902    O   12 0.876
    15  O   1.868    H   17 0.899    H   16 0.858    H   26 0.058
    16  H   0.896    O   15 0.858
    17  H   0.910    O   15 0.899
    18  O   2.348    H   19 0.760    H   20 0.759    H   21 0.742
    19  H   0.829    O   18 0.760    O    2 0.062
    20  H   0.830    O   18 0.759    O    3 0.064
    21  H   0.826    O   18 0.742    O    9 0.077
    22  N   3.567    H   23 0.941    H   25 0.852    H   26 0.850    H   24 0.818
    23  H   0.946    N   22 0.941
    24  H   0.907    N   22 0.818    O    5 0.081
    25  H   0.906    N   22 0.852
    26  H   0.912    N   22 0.850    O   15 0.058
 MOs/occ written to file <molden.input>
 
molecular dipole:
                 x           y           z       tot (Debye)
 q only:        0.585       1.363       0.655
   full:        0.628       1.059       0.751       3.666
molecular quadrupole (traceless):
                xx          xy          yy          xz          yz          zz
 q only:        5.050       1.236     -16.209     -28.519       4.923      11.159
  q+dip:        3.590       5.018     -11.844     -23.787       4.748       8.254
   full:        3.586       5.335     -11.700     -24.079       4.854       8.114

SCC energy    :     -50.6954695
rep           :       0.2955693
ES            :       0.3677369
AES           :      -0.0865803
AXC           :      -0.0106725
disp          :      -0.0184910
XB            :       0.0000000
fix           :       0.0000000
total E       :     -50.3998044
atomizationE  :       4.9301085     3093.69
(atE without considering molecular charge,
 total energy contains solvation terms)
H-L gap (eV)  :          8.0632
           ------------------------------------------------- 
          |                 ===============                 |
          |                   A N C O P T                   |
          |                 ===============                 |
          |          Approximate Normal Coordinate          |
          |           Rational Function Optimizer           |
           ------------------------------------------------- 
dumping coords to <xtbopt.coord> and <xtbopt.log>
 optlevel               2
 Maxcycle             520
 Maxmicro              25
 Econv         1.000000000000000E-007
 Gconv         2.000000000000000E-004
 Maxdispl       1.00000000000000     
 Hlow          5.000000000000000E-003
 S6             20.0000000000000     
 Nvar               72

generating ANC from model Hessian ...
 Shifting diagonal of input Hessian by   5.077056359337010E-003
 Lowest  eigenvalues of input Hessian
    0.005000   -0.000000   -0.000000   -0.000000   -0.000000    0.000000
    0.000000    0.005199    0.005263    0.005513    0.005697    0.005821
    0.006260    0.006630    0.007124    0.007836    0.008272    0.008484
 Highest eigenvalues
    1.431811    1.546658    1.559202    3.077412    3.079119    3.083248
 
cpu  time for ANC gen    0.01 s
wall time for ANC gen    0.01 s
................................................................................
.............................. CYCLE    1 ......................................
................................................................................
   1    -50.6954695 -0.506955E+02  0.678E-05    8.06       0.0  T
   2    -50.6954695 -0.124274E-10  0.494E-05    8.06     396.9  T
   3    -50.6954695 -0.900968E-11  0.202E-05    8.06     970.2  T
speedup  1.03
cpu  time for SCC    0.00 s
wall time for SCC    0.00 s
speedup  0.98
cpu  time for grad    0.01 s
wall time for grad    0.01 s
 E :    -50.39980436  G :  0.106403    pred/act E change:  0.000D+00  0.680D-08
Maxdispl :   0.2532   ||displ|| :   0.5766   Lambda : -0.290D-01
Largest |displ|/coords:  0.2532 (  28)  0.2477 (  24)  0.2004 (  22)
................................................................................
.............................. CYCLE    2 ......................................
................................................................................
   1    -50.7006187 -0.507006E+02  0.427E-01    8.36       0.0  T
   2    -50.7008488 -0.230177E-03  0.316E-01    8.45       1.0  T
   3    -50.7009568 -0.107991E-03  0.798E-02    8.63       1.0  T
   4    -50.7009837 -0.269126E-04  0.222E-02    8.62       1.0  T
   5    -50.7009847 -0.982122E-06  0.724E-03    8.61       2.7  T
   6    -50.7009848 -0.112435E-06  0.418E-03    8.61       4.7  T
   7    -50.7009849 -0.814692E-07  0.178E-03    8.61      11.0  T
speedup  1.09
cpu  time for SCC    0.01 s
wall time for SCC    0.01 s
speedup  1.06
cpu  time for grad    0.01 s
wall time for grad    0.01 s
 E :    -50.42534678  G :  0.066273    pred/act E change:  0.000D+00 -0.255D-01
Maxdispl :   0.2836   ||displ|| :   0.6321   Lambda : -0.220D-01
Largest |displ|/coords:  0.2836 (  24)  0.2723 (  22)  0.2672 (  28)
................................................................................
.............................. CYCLE    3 ......................................
................................................................................
   1    -50.7062297 -0.507062E+02  0.387E-01    8.80       0.0  T
   2    -50.7067408 -0.511123E-03  0.275E-01    8.88       1.0  T
   3    -50.7069760 -0.235179E-03  0.986E-02    9.00       1.0  T
   4    -50.7069996 -0.235672E-04  0.240E-02    9.00       1.0  T
   5    -50.7070010 -0.143820E-05  0.101E-02    9.00       1.9  T
   6    -50.7070013 -0.272826E-06  0.541E-03    9.00       3.6  T
   7    -50.7070014 -0.148638E-06  0.261E-03    9.00       7.5  T
speedup  1.09
cpu  time for SCC    0.01 s
wall time for SCC    0.01 s
speedup  1.06
cpu  time for grad    0.01 s
wall time for grad    0.01 s
 E :    -50.44318223  G :  0.041871    pred/act E change: -0.193D-01 -0.178D-01
Maxdispl :   0.2546   ||displ|| :   0.6109   Lambda : -0.131D-01
Largest |displ|/coords:  0.2546 (  22)  0.2189 (  24)  0.2118 (  28)
................................................................................
.............................. CYCLE    4 ......................................
................................................................................
   1    -50.7063464 -0.507063E+02  0.441E-01    9.16       0.0  T
   2    -50.7073076 -0.961283E-03  0.306E-01    9.21       1.0  T
   3    -50.7077320 -0.424403E-03  0.122E-01    9.28       1.0  T
   4    -50.7077590 -0.269076E-04  0.278E-02    9.29       1.0  T
   5    -50.7077607 -0.178256E-05  0.136E-02    9.29       1.4  T
   6    -50.7077612 -0.462414E-06  0.637E-03    9.29       3.1  T
   7    -50.7077614 -0.180415E-06  0.308E-03    9.28       6.4  T
   8    -50.7077614 -0.603866E-07  0.929E-04    9.28      21.1  T
speedup  1.10
cpu  time for SCC    0.01 s
wall time for SCC    0.01 s
speedup  1.05
cpu  time for grad    0.02 s
wall time for grad    0.02 s
 E :    -50.45012160  G :  0.032447    pred/act E change: -0.154D-01 -0.694D-02
Maxdispl :   0.1618   ||displ|| :   0.3916   Lambda : -0.288D-02
Largest |displ|/coords:  0.1618 (   8)  0.1417 (   4)  0.1133 (  12)
................................................................................
.............................. CYCLE    5 ......................................
................................................................................
   1    -50.7098546 -0.507099E+02  0.265E-01    9.40       0.0  T
   2    -50.7098924 -0.377509E-04  0.199E-01    9.41       1.0  T
   3    -50.7099121 -0.197144E-04  0.446E-02    9.41       1.0  T
   4    -50.7099176 -0.553131E-05  0.101E-02    9.41       1.9  T
   5    -50.7099178 -0.178385E-06  0.306E-03    9.41       6.4  T
   6    -50.7099178 -0.128594E-07  0.174E-03    9.41      11.2  T
speedup  0.93
cpu  time for SCC    0.01 s
wall time for SCC    0.01 s
speedup  0.98
cpu  time for grad    0.01 s
wall time for grad    0.01 s
 E :    -50.45162796  G :  0.024210    pred/act E change: -0.903D-02 -0.151D-02
Maxdispl :   0.2356   ||displ|| :   0.4921   Lambda : -0.287D-02
Largest |displ|/coords:  0.2356 (   7)  0.1801 (   1)  0.1549 (   5)
................................................................................
.............................. CYCLE    6 ......................................
................................................................................
   1    -50.7201873 -0.507202E+02  0.270E-01    9.61       0.0  T
   2    -50.7202171 -0.298749E-04  0.199E-01    9.61       1.0  T
   3    -50.7202365 -0.193959E-04  0.431E-02    9.60       1.0  T
   4    -50.7202396 -0.310486E-05  0.108E-02    9.60       1.8  T
   5    -50.7202398 -0.176059E-06  0.301E-03    9.60       6.5  T
   6    -50.7202398 -0.913370E-08  0.177E-03    9.60      11.1  T
speedup  0.94
cpu  time for SCC    0.00 s
wall time for SCC    0.01 s
speedup  0.99
cpu  time for grad    0.01 s
wall time for grad    0.01 s
 E :    -50.45228618  G :  0.017363    pred/act E change: -0.166D-02 -0.658D-03
Maxdispl :   0.1842   ||displ|| :   0.3555   Lambda : -0.218D-02
Largest |displ|/coords:  0.1842 (   4)  0.1702 (   5)  0.1260 (   2)
................................................................................
.............................. CYCLE    7 ......................................
................................................................................
   1    -50.7199089 -0.507199E+02  0.421E-01    9.68       0.0  T
   2    -50.7200207 -0.111757E-03  0.319E-01    9.68       1.0  T
   3    -50.7200725 -0.517646E-04  0.611E-02    9.67       1.0  T
   4    -50.7200924 -0.199820E-04  0.176E-02    9.67       1.1  T
   5    -50.7200933 -0.842581E-06  0.473E-03    9.67       4.2  T
   6    -50.7200933 -0.973368E-08  0.264E-03    9.67       7.4  T
   7    -50.7200933 -0.131545E-07  0.604E-04    9.67      32.5  T
speedup  0.95
cpu  time for SCC    0.01 s
wall time for SCC    0.01 s
speedup  0.99
cpu  time for grad    0.01 s
wall time for grad    0.01 s
 E :    -50.45276358  G :  0.036558    pred/act E change: -0.178D-02 -0.477D-03
Maxdispl :   0.1913   ||displ|| :   0.3813   Lambda : -0.341D-02
Largest |displ|/coords:  0.1913 (   4)  0.1748 (  24)  0.1247 (   1)
................................................................................
.............................. CYCLE    8 ......................................
................................................................................
   1    -50.7244310 -0.507244E+02  0.366E-01    9.66       0.0  T
   2    -50.7245939 -0.162890E-03  0.274E-01    9.66       1.0  T
   3    -50.7246707 -0.768216E-04  0.708E-02    9.66       1.0  T
   4    -50.7246913 -0.205475E-04  0.200E-02    9.66       1.0  T
   5    -50.7246924 -0.110922E-05  0.617E-03    9.66       3.2  T
   6    -50.7246924 -0.323847E-07  0.321E-03    9.66       6.1  T
   7    -50.7246924 -0.155422E-07  0.857E-04    9.66      22.9  T
speedup  0.98
cpu  time for SCC    0.01 s
wall time for SCC    0.01 s
speedup  1.00
cpu  time for grad    0.01 s
wall time for grad    0.01 s
 E :    -50.45225648  G :  0.030411    pred/act E change: -0.123D-02  0.507D-03
Maxdispl :   0.1056   ||displ|| :   0.2550   Lambda : -0.352D-02
Largest |displ|/coords:  0.1056 (  24)  0.0903 (  14)  0.0819 (  31)
................................................................................
.............................. CYCLE    9 ......................................
................................................................................
   1    -50.7193693 -0.507194E+02  0.223E-01    9.61       0.0  T
   2    -50.7194514 -0.820954E-04  0.163E-01    9.62       1.0  T
   3    -50.7194810 -0.296102E-04  0.500E-02    9.62       1.0  T
   4    -50.7194888 -0.773363E-05  0.110E-02    9.62       1.8  T
   5    -50.7194891 -0.320878E-06  0.325E-03    9.62       6.0  T
   6    -50.7194891 -0.159740E-07  0.197E-03    9.62       9.9  T
speedup  0.94
cpu  time for SCC    0.00 s
wall time for SCC    0.01 s
speedup  0.98
cpu  time for grad    0.01 s
wall time for grad    0.01 s
 E :    -50.45378983  G :  0.022627    pred/act E change: -0.195D-02 -0.153D-02
Maxdispl :   0.1554   ||displ|| :   0.3282   Lambda : -0.162D-02
Largest |displ|/coords:  0.1554 (   4)  0.1275 (   2)  0.0986 (   6)
................................................................................
.............................. CYCLE   10 ......................................
................................................................................
   1    -50.7217960 -0.507218E+02  0.258E-01    9.65       0.0  T
   2    -50.7218311 -0.351039E-04  0.195E-01    9.64       1.0  T
   3    -50.7218507 -0.195865E-04  0.406E-02    9.62       1.0  T
   4    -50.7218559 -0.525337E-05  0.137E-02    9.63       1.4  T
   5    -50.7218563 -0.317007E-06  0.345E-03    9.63       5.7  T
   6    -50.7218563 -0.101484E-07  0.209E-03    9.63       9.4  T
speedup  0.94
cpu  time for SCC    0.00 s
wall time for SCC    0.01 s
speedup  0.98
cpu  time for grad    0.01 s
wall time for grad    0.01 s
 E :    -50.45452330  G :  0.025851    pred/act E change: -0.187D-02 -0.733D-03
Maxdispl :   0.2091   ||displ|| :   0.3820   Lambda : -0.142D-02
Largest |displ|/coords:  0.2091 (   2)  0.1465 (  10)  0.1139 (   6)
................................................................................
.............................. CYCLE   11 ......................................
................................................................................
   1    -50.7229222 -0.507229E+02  0.284E-01    9.64       0.0  T
   2    -50.7230679 -0.145725E-03  0.218E-01    9.62       1.0  T
   3    -50.7231283 -0.603546E-04  0.754E-02    9.61       1.0  T
   4    -50.7231449 -0.166672E-04  0.246E-02    9.62       1.0  T
   5    -50.7231463 -0.133345E-05  0.632E-03    9.62       3.1  T
   6    -50.7231463 -0.408482E-07  0.327E-03    9.62       6.0  T
   7    -50.7231463 -0.174447E-07  0.926E-04    9.62      21.2  T
speedup  0.94
cpu  time for SCC    0.01 s
wall time for SCC    0.01 s
speedup  0.98
cpu  time for grad    0.01 s
wall time for grad    0.01 s
 E :    -50.45562853  G :  0.034503    pred/act E change: -0.895D-03 -0.111D-02
Maxdispl :   0.2844   ||displ|| :   0.6489   Lambda : -0.328D-02
Largest |displ|/coords:  0.2844 (   2)  0.2175 (   6)  0.1908 (  10)
................................................................................
.............................. CYCLE   12 ......................................
................................................................................
   1    -50.7288593 -0.507289E+02  0.468E-01    9.59       0.0  T
   2    -50.7295290 -0.669615E-03  0.359E-01    9.58       1.0  T
   3    -50.7298563 -0.327336E-03  0.163E-01    9.56       1.0  T
   4    -50.7299005 -0.441565E-04  0.509E-02    9.57       1.0  T
   5    -50.7299056 -0.515847E-05  0.143E-02    9.57       1.4  T
   6    -50.7299058 -0.176632E-06  0.724E-03    9.57       2.7  T
   7    -50.7299059 -0.649001E-07  0.169E-03    9.57      11.6  T
   8    -50.7299059 -0.119594E-07  0.623E-04    9.57      31.5  T
speedup  0.99
cpu  time for SCC    0.01 s
wall time for SCC    0.01 s
speedup  0.99
cpu  time for grad    0.01 s
wall time for grad    0.02 s
 E :    -50.45766022  G :  0.049785    pred/act E change: -0.816D-03 -0.203D-02
Maxdispl :   0.0992   ||displ|| :   0.2620   Lambda : -0.453D-02
Largest |displ|/coords:  0.0992 (  10)  0.0975 (  22)  0.0772 (  23)
................................................................................
.............................. CYCLE   13 ......................................
................................................................................
   1    -50.7347919 -0.507348E+02  0.193E-01    9.49       0.0  T
   2    -50.7348234 -0.315180E-04  0.143E-01    9.50       1.0  T
   3    -50.7348434 -0.199677E-04  0.311E-02    9.51       1.0  T
   4    -50.7348462 -0.283923E-05  0.959E-03    9.50       2.0  T
   5    -50.7348464 -0.231158E-06  0.269E-03    9.50       7.3  T
   6    -50.7348464 -0.847159E-08  0.153E-03    9.50      12.8  T
speedup  1.11
cpu  time for SCC    0.01 s
wall time for SCC    0.01 s
speedup  1.05
cpu  time for grad    0.01 s
wall time for grad    0.01 s
 E :    -50.45992232  G :  0.038289    pred/act E change: -0.233D-02 -0.226D-02
Maxdispl :   0.2452   ||displ|| :   0.4604   Lambda : -0.485D-02
Largest |displ|/coords:  0.2452 (   4)  0.1931 (   5)  0.1299 (   6)
................................................................................
.............................. CYCLE   14 ......................................
................................................................................
   1    -50.7402212 -0.507402E+02  0.379E-01    9.49       0.0  T
   2    -50.7403079 -0.866125E-04  0.285E-01    9.49       1.0  T
   3    -50.7403651 -0.572093E-04  0.531E-02    9.48       1.0  T
   4    -50.7403774 -0.122839E-04  0.151E-02    9.48       1.3  T
   5    -50.7403778 -0.464211E-06  0.695E-03    9.48       2.8  T
   6    -50.7403779 -0.450804E-07  0.367E-03    9.48       5.3  T
   7    -50.7403779 -0.278228E-07  0.730E-04    9.48      26.8  T
speedup  0.97
cpu  time for SCC    0.01 s
wall time for SCC    0.01 s
speedup  0.99
cpu  time for grad    0.01 s
wall time for grad    0.01 s
 E :    -50.46213489  G :  0.036742    pred/act E change: -0.242D-02 -0.221D-02
Maxdispl :   0.1613   ||displ|| :   0.4044   Lambda : -0.348D-02
Largest |displ|/coords:  0.1613 (   6)  0.1596 (   3)  0.1331 (   4)
................................................................................
.............................. CYCLE   15 ......................................
................................................................................
   1    -50.7569670 -0.507570E+02  0.329E-01    9.48       0.0  T
   2    -50.7570416 -0.746516E-04  0.245E-01    9.46       1.0  T
   3    -50.7570922 -0.505599E-04  0.515E-02    9.42       1.0  T
   4    -50.7571010 -0.874656E-05  0.161E-02    9.42       1.2  T
   5    -50.7571016 -0.666451E-06  0.663E-03    9.43       3.0  T
   6    -50.7571017 -0.342101E-07  0.359E-03    9.43       5.5  T
   7    -50.7571017 -0.264349E-07  0.652E-04    9.43      30.1  T
speedup  0.98
cpu  time for SCC    0.01 s
wall time for SCC    0.01 s
speedup  1.00
cpu  time for grad    0.01 s
wall time for grad    0.01 s
 E :    -50.46219458  G :  0.045513    pred/act E change: -0.294D-02 -0.597D-04
Maxdispl :   0.1098   ||displ|| :   0.2505   Lambda : -0.358D-02
Largest |displ|/coords:  0.1098 (  13)  0.1072 (   4)  0.0953 (  10)
................................................................................
.............................. CYCLE   16 ......................................
................................................................................
   1    -50.7422780 -0.507423E+02  0.296E-01    9.37       0.0  T
   2    -50.7423600 -0.819560E-04  0.222E-01    9.37       1.0  T
   3    -50.7424074 -0.474120E-04  0.576E-02    9.37       1.0  T
   4    -50.7424170 -0.957293E-05  0.149E-02    9.38       1.3  T
   5    -50.7424176 -0.651048E-06  0.519E-03    9.38       3.8  T
   6    -50.7424176 -0.268325E-07  0.315E-03    9.38       6.2  T
speedup  0.94
cpu  time for SCC    0.00 s
wall time for SCC    0.01 s
speedup  0.98
cpu  time for grad    0.01 s
wall time for grad    0.01 s
 E :    -50.46280737  G :  0.029806    pred/act E change: -0.202D-02 -0.613D-03
Maxdispl :   0.1506   ||displ|| :   0.3175   Lambda : -0.286D-02
Largest |displ|/coords:  0.1506 (  13)  0.1233 (  15)  0.0959 (  11)
................................................................................
.............................. CYCLE   17 ......................................
................................................................................
   1    -50.7474631 -0.507475E+02  0.331E-01    9.40       0.0  T
   2    -50.7475063 -0.431808E-04  0.249E-01    9.40       1.0  T
   3    -50.7475308 -0.244547E-04  0.466E-02    9.41       1.0  T
   4    -50.7475372 -0.642232E-05  0.128E-02    9.40       1.5  T
   5    -50.7475376 -0.371193E-06  0.412E-03    9.40       4.8  T
   6    -50.7475376 -0.872991E-08  0.232E-03    9.40       8.5  T
speedup  1.13
cpu  time for SCC    0.01 s
wall time for SCC    0.01 s
speedup  1.04
cpu  time for grad    0.01 s
wall time for grad    0.01 s
 E :    -50.46349441  G :  0.023434    pred/act E change: -0.190D-02 -0.687D-03
Maxdispl :   0.1007   ||displ|| :   0.1848   Lambda : -0.103D-02
Largest |displ|/coords:  0.1007 (   3)  0.0563 (  20)  0.0533 (   4)
................................................................................
.............................. CYCLE   18 ......................................
................................................................................
   1    -50.7494702 -0.507495E+02  0.168E-01    9.39       0.0  T
   2    -50.7494806 -0.104778E-04  0.126E-01    9.39       1.0  T
   3    -50.7494872 -0.652532E-05  0.194E-02    9.38       1.0  T
   4    -50.7494886 -0.145505E-05  0.632E-03    9.38       3.1  T
   5    -50.7494887 -0.850445E-07  0.222E-03    9.38       8.8  T
   6    -50.7494887 -0.375460E-08  0.126E-03    9.38      15.6  T
speedup  1.11
cpu  time for SCC    0.01 s
wall time for SCC    0.01 s
speedup  1.05
cpu  time for grad    0.01 s
wall time for grad    0.01 s
 E :    -50.46388889  G :  0.011857    pred/act E change: -0.157D-02 -0.394D-03
Maxdispl :   0.0675   ||displ|| :   0.1490   Lambda : -0.452D-03
Largest |displ|/coords:  0.0675 (   3)  0.0504 (  14)  0.0421 (  23)
................................................................................
.............................. CYCLE   19 ......................................
................................................................................
   1    -50.7512589 -0.507513E+02  0.123E-01    9.37       0.0  T
   2    -50.7512649 -0.592725E-05  0.924E-02    9.36       1.0  T
   3    -50.7512686 -0.377833E-05  0.138E-02    9.34       1.4  T
   4    -50.7512695 -0.875062E-06  0.460E-03    9.35       4.3  T
   5    -50.7512696 -0.437314E-07  0.153E-03    9.35      12.8  T
   6    -50.7512696 -0.211852E-08  0.867E-04    9.35      22.6  T
speedup  0.94
cpu  time for SCC    0.01 s
wall time for SCC    0.01 s
speedup  0.98
cpu  time for grad    0.01 s
wall time for grad    0.01 s
 E :    -50.46398299  G :  0.011232    pred/act E change: -0.532D-03 -0.941D-04
Maxdispl :   0.0449   ||displ|| :   0.1074   Lambda : -0.306D-03
Largest |displ|/coords:  0.0449 (  11)  0.0409 (  16)  0.0351 (   8)
................................................................................
.............................. CYCLE   20 ......................................
................................................................................
   1    -50.7499619 -0.507500E+02  0.862E-02    9.38       0.0  T
   2    -50.7499657 -0.374344E-05  0.644E-02    9.38       1.0  T
   3    -50.7499685 -0.277924E-05  0.135E-02    9.38       1.4  T
   4    -50.7499689 -0.474068E-06  0.403E-03    9.38       4.9  T
   5    -50.7499690 -0.303994E-07  0.138E-03    9.38      14.2  T
   6    -50.7499690 -0.249261E-08  0.706E-04    9.38      27.8  T
speedup  0.94
cpu  time for SCC    0.00 s
wall time for SCC    0.01 s
speedup  0.98
cpu  time for grad    0.01 s
wall time for grad    0.01 s
 E :    -50.46411255  G :  0.007295    pred/act E change: -0.231D-03 -0.130D-03
Maxdispl :   0.0810   ||displ|| :   0.1713   Lambda : -0.309D-03
Largest |displ|/coords:  0.0810 (   8)  0.0639 (  16)  0.0597 (  10)
................................................................................
.............................. CYCLE   21 ......................................
................................................................................
   1    -50.7480050 -0.507480E+02  0.175E-01    9.35       0.0  T
   2    -50.7480148 -0.984567E-05  0.133E-01    9.35       1.0  T
   3    -50.7480226 -0.774716E-05  0.173E-02    9.34       1.1  T
   4    -50.7480240 -0.140897E-05  0.589E-03    9.34       3.3  T
   5    -50.7480240 -0.401661E-07  0.202E-03    9.34       9.7  T
   6    -50.7480240 -0.404476E-08  0.120E-03    9.34      16.4  T
speedup  0.94
cpu  time for SCC    0.01 s
wall time for SCC    0.01 s
speedup  0.98
cpu  time for grad    0.01 s
wall time for grad    0.01 s
 E :    -50.46398600  G :  0.017273    pred/act E change: -0.155D-03  0.127D-03
Maxdispl :   0.0748   ||displ|| :   0.1436   Lambda : -0.578D-03
Largest |displ|/coords:  0.0748 (  10)  0.0515 (   2)  0.0454 (   3)
................................................................................
.............................. CYCLE   22 ......................................
................................................................................
   1    -50.7497105 -0.507497E+02  0.143E-01    9.37       0.0  T
   2    -50.7497177 -0.720490E-05  0.109E-01    9.37       1.0  T
   3    -50.7497235 -0.580640E-05  0.146E-02    9.37       1.3  T
   4    -50.7497245 -0.100813E-05  0.451E-03    9.38       4.4  T
   5    -50.7497246 -0.270062E-07  0.175E-03    9.38      11.2  T
   6    -50.7497246 -0.286147E-08  0.993E-04    9.38      19.7  T
speedup  0.94
cpu  time for SCC    0.00 s
wall time for SCC    0.01 s
speedup  0.98
cpu  time for grad    0.01 s
wall time for grad    0.01 s
 E :    -50.46419935  G :  0.007474    pred/act E change: -0.159D-03 -0.213D-03
Maxdispl :   0.0533   ||displ|| :   0.1338   Lambda : -0.338D-03
Largest |displ|/coords:  0.0533 (  23)  0.0477 (  14)  0.0425 (  17)
................................................................................
.............................. CYCLE   23 ......................................
................................................................................
   1    -50.7514109 -0.507514E+02  0.123E-01    9.35       0.0  T
   2    -50.7514162 -0.536445E-05  0.929E-02    9.35       1.0  T
   3    -50.7514200 -0.379904E-05  0.135E-02    9.35       1.5  T
   4    -50.7514209 -0.835672E-06  0.401E-03    9.35       4.9  T
   5    -50.7514209 -0.282678E-07  0.156E-03    9.35      12.5  T
   6    -50.7514209 -0.307459E-08  0.814E-04    9.35      24.1  T
speedup  1.11
cpu  time for SCC    0.01 s
wall time for SCC    0.01 s
speedup  1.05
cpu  time for grad    0.01 s
wall time for grad    0.01 s
 E :    -50.46419787  G :  0.007952    pred/act E change: -0.295D-03  0.148D-05
Maxdispl :   0.0564   ||displ|| :   0.1254   Lambda : -0.269D-03
Largest |displ|/coords:  0.0564 (   2)  0.0435 (   8)  0.0407 (  16)
................................................................................
.............................. CYCLE   24 ......................................
................................................................................
   1    -50.7513445 -0.507513E+02  0.963E-02    9.38       0.0  T
   2    -50.7513469 -0.233814E-05  0.728E-02    9.38       1.0  T
   3    -50.7513491 -0.219909E-05  0.880E-03    9.37       2.2  T
   4    -50.7513493 -0.257882E-06  0.281E-03    9.37       7.0  T
   5    -50.7513493 -0.135748E-07  0.101E-03    9.37      19.4  T
speedup  1.09
cpu  time for SCC    0.00 s
wall time for SCC    0.00 s
speedup  1.05
cpu  time for grad    0.01 s
wall time for grad    0.01 s
 E :    -50.46433075  G :  0.004501    pred/act E change: -0.172D-03 -0.133D-03
Maxdispl :   0.0625   ||displ|| :   0.1161   Lambda : -0.140D-03
Largest |displ|/coords:  0.0625 (   3)  0.0401 (  18)  0.0373 (   8)
................................................................................
.............................. CYCLE   25 ......................................
................................................................................
   1    -50.7493531 -0.507494E+02  0.865E-02    9.36       0.0  T
   2    -50.7493553 -0.222844E-05  0.651E-02    9.36       1.0  T
   3    -50.7493567 -0.137307E-05  0.825E-03    9.36       2.4  T
   4    -50.7493571 -0.351649E-06  0.250E-03    9.36       7.9  T
   5    -50.7493571 -0.113187E-07  0.847E-04    9.36      23.2  T
speedup  1.14
cpu  time for SCC    0.00 s
wall time for SCC    0.00 s
speedup  1.06
cpu  time for grad    0.01 s
wall time for grad    0.01 s
 E :    -50.46434505  G :  0.008153    pred/act E change: -0.137D-03 -0.143D-04
Maxdispl :   0.0342   ||displ|| :   0.0736   Lambda : -0.112D-03
Largest |displ|/coords:  0.0342 (   3)  0.0316 (   2)  0.0232 (   6)

generating ANC from model Hessian ...
 Shifting diagonal of input Hessian by   5.021951442234746E-003
 Lowest  eigenvalues of input Hessian
    0.005000   -0.000000   -0.000000   -0.000000    0.000000    0.000000
    0.000000    0.005191    0.005423    0.005574    0.005741    0.006739
    0.007115    0.007803    0.008725    0.009190    0.009538    0.010456
 Highest eigenvalues
    1.401677    1.416639    1.489691    2.666375    3.384308    3.637343
 
cpu  time for ANC gen    0.01 s
wall time for ANC gen    0.01 s
................................................................................
.............................. CYCLE   26 ......................................
................................................................................
   1    -50.7506481 -0.507506E+02  0.391E-02    9.36       0.0  T
   2    -50.7506488 -0.725180E-06  0.293E-02    9.36       1.0  T
   3    -50.7506492 -0.363319E-06  0.527E-03    9.36       3.7  T
   4    -50.7506493 -0.109379E-06  0.171E-03    9.36      11.5  T
   5    -50.7506493 -0.668849E-08  0.527E-04    9.36      37.2  T
   6    -50.7506493 -0.310493E-09  0.285E-04    9.36      68.9  T
speedup  1.13
cpu  time for SCC    0.01 s
wall time for SCC    0.01 s
speedup  1.02
cpu  time for grad    0.01 s
wall time for grad    0.01 s
 E :    -50.46442027  G :  0.004526    pred/act E change:  0.000D+00 -0.752D-04
Maxdispl :   0.0532   ||displ|| :   0.1162   Lambda : -0.183D-03
Largest |displ|/coords:  0.0532 (   7)  0.0458 (   6)  0.0391 (  14)
................................................................................
.............................. CYCLE   27 ......................................
................................................................................
   1    -50.7509675 -0.507510E+02  0.105E-01    9.35       0.0  T
   2    -50.7509695 -0.202556E-05  0.798E-02    9.35       1.0  T
   3    -50.7509714 -0.187086E-05  0.714E-03    9.35       2.7  T
   4    -50.7509716 -0.236421E-06  0.252E-03    9.35       7.8  T
   5    -50.7509717 -0.919145E-08  0.924E-04    9.35      21.2  T
speedup  0.89
cpu  time for SCC    0.00 s
wall time for SCC    0.00 s
speedup  0.96
cpu  time for grad    0.01 s
wall time for grad    0.01 s
 E :    -50.46454369  G :  0.002968    pred/act E change:  0.000D+00 -0.123D-03
Maxdispl :   0.1079   ||displ|| :   0.2198   Lambda : -0.188D-03
Largest |displ|/coords:  0.1079 (   7)  0.0949 (   6)  0.0725 (   1)
................................................................................
.............................. CYCLE   28 ......................................
................................................................................
   1    -50.7497864 -0.507498E+02  0.218E-01    9.32       0.0  T
   2    -50.7497932 -0.680682E-05  0.165E-01    9.32       1.0  T
   3    -50.7498004 -0.711410E-05  0.133E-02    9.32       1.5  T
   4    -50.7498010 -0.618594E-06  0.430E-03    9.32       4.6  T
   5    -50.7498010 -0.158182E-07  0.190E-03    9.32      10.3  T
   6    -50.7498010 -0.367550E-08  0.845E-04    9.32      23.2  T
   7    -50.7498010 -0.182478E-08  0.188E-04    9.32     104.1  T
speedup  1.11
cpu  time for SCC    0.01 s
wall time for SCC    0.01 s
speedup  1.02
cpu  time for grad    0.01 s
wall time for grad    0.01 s
 E :    -50.46465396  G :  0.008277    pred/act E change: -0.927D-04 -0.110D-03
Maxdispl :   0.0797   ||displ|| :   0.1357   Lambda : -0.132D-03
Largest |displ|/coords:  0.0797 (   7)  0.0506 (   1)  0.0359 (  14)
................................................................................
.............................. CYCLE   29 ......................................
................................................................................
   1    -50.7498105 -0.507498E+02  0.116E-01    9.31       0.0  T
   2    -50.7498117 -0.118744E-05  0.876E-02    9.31       1.0  T
   3    -50.7498129 -0.118008E-05  0.637E-03    9.31       3.1  T
   4    -50.7498130 -0.116032E-06  0.249E-03    9.31       7.9  T
   5    -50.7498130 -0.542724E-08  0.886E-04    9.31      22.1  T
speedup  0.87
cpu  time for SCC    0.00 s
wall time for SCC    0.00 s
speedup  0.95
cpu  time for grad    0.01 s
wall time for grad    0.01 s
 E :    -50.46474264  G :  0.007358    pred/act E change: -0.987D-04 -0.887D-04
Maxdispl :   0.1256   ||displ|| :   0.2145   Lambda : -0.240D-03
Largest |displ|/coords:  0.1256 (   7)  0.0894 (   1)  0.0602 (   2)
................................................................................
.............................. CYCLE   30 ......................................
................................................................................
   1    -50.7496717 -0.507497E+02  0.219E-01    9.29       0.0  T
   2    -50.7496794 -0.773953E-05  0.166E-01    9.28       1.0  T
   3    -50.7496875 -0.805246E-05  0.160E-02    9.28       1.2  T
   4    -50.7496882 -0.684437E-06  0.457E-03    9.28       4.3  T
   5    -50.7496882 -0.222370E-07  0.187E-03    9.28      10.5  T
   6    -50.7496882 -0.260480E-08  0.912E-04    9.28      21.5  T
speedup  1.07
cpu  time for SCC    0.01 s
wall time for SCC    0.01 s
speedup  1.04
cpu  time for grad    0.01 s
wall time for grad    0.01 s
 E :    -50.46481622  G :  0.012249    pred/act E change: -0.673D-04 -0.736D-04
Maxdispl :   0.1130   ||displ|| :   0.1814   Lambda : -0.349D-03
Largest |displ|/coords:  0.1130 (   1)  0.0509 (  14)  0.0425 (  11)
................................................................................
.............................. CYCLE   31 ......................................
................................................................................
   1    -50.7517940 -0.507518E+02  0.149E-01    9.28       0.0  T
   2    -50.7518027 -0.862196E-05  0.113E-01    9.28       1.0  T
   3    -50.7518093 -0.668543E-05  0.166E-02    9.29       1.2  T
   4    -50.7518105 -0.111742E-05  0.632E-03    9.29       3.1  T
   5    -50.7518105 -0.620606E-07  0.192E-03    9.29      10.2  T
   6    -50.7518105 -0.306993E-08  0.113E-03    9.29      17.4  T
speedup  1.11
cpu  time for SCC    0.01 s
wall time for SCC    0.01 s
speedup  1.05
cpu  time for grad    0.01 s
wall time for grad    0.01 s
 E :    -50.46479449  G :  0.014462    pred/act E change: -0.125D-03  0.217D-04
Maxdispl :   0.0964   ||displ|| :   0.1768   Lambda : -0.419D-03
Largest |displ|/coords:  0.0964 (   7)  0.0646 (   5)  0.0618 (   1)
................................................................................
.............................. CYCLE   32 ......................................
................................................................................
   1    -50.7469237 -0.507469E+02  0.200E-01    9.27       0.0  T
   2    -50.7469361 -0.123658E-04  0.151E-01    9.28       1.0  T
   3    -50.7469459 -0.979007E-05  0.192E-02    9.28       1.0  T
   4    -50.7469476 -0.171692E-05  0.477E-03    9.28       4.1  T
   5    -50.7469476 -0.222158E-07  0.261E-03    9.28       7.5  T
   6    -50.7469476 -0.927071E-08  0.953E-04    9.28      20.6  T
speedup  1.11
cpu  time for SCC    0.01 s
wall time for SCC    0.01 s
speedup  1.04
cpu  time for grad    0.01 s
wall time for grad    0.01 s
 E :    -50.46483061  G :  0.019166    pred/act E change: -0.180D-03 -0.361D-04
Maxdispl :   0.1346   ||displ|| :   0.2594   Lambda : -0.763D-03
Largest |displ|/coords:  0.1346 (  14)  0.1184 (   1)  0.0860 (  18)
................................................................................
.............................. CYCLE   33 ......................................
................................................................................
   1    -50.7502436 -0.507502E+02  0.255E-01    9.33       0.0  T
   2    -50.7502677 -0.240755E-04  0.192E-01    9.33       1.0  T
   3    -50.7502852 -0.174758E-04  0.289E-02    9.32       1.0  T
   4    -50.7502885 -0.335060E-05  0.600E-03    9.32       3.3  T
   5    -50.7502886 -0.348882E-07  0.346E-03    9.33       5.7  T
   6    -50.7502886 -0.137136E-07  0.126E-03    9.33      15.6  T
   7    -50.7502886 -0.248041E-08  0.326E-04    9.33      60.2  T
speedup  1.09
cpu  time for SCC    0.01 s
wall time for SCC    0.01 s
speedup  1.05
cpu  time for grad    0.01 s
wall time for grad    0.01 s
 E :    -50.46470641  G :  0.021462    pred/act E change: -0.216D-03  0.124D-03
Maxdispl :   0.0650   ||displ|| :   0.1466   Lambda : -0.616D-03
Largest |displ|/coords:  0.0650 (   1)  0.0539 (   3)  0.0525 (  10)
................................................................................
.............................. CYCLE   34 ......................................
................................................................................
   1    -50.7520809 -0.507521E+02  0.134E-01    9.32       0.0  T
   2    -50.7520870 -0.612580E-05  0.101E-01    9.32       1.0  T
   3    -50.7520922 -0.520407E-05  0.141E-02    9.32       1.4  T
   4    -50.7520930 -0.782283E-06  0.367E-03    9.32       5.3  T
   5    -50.7520930 -0.161344E-07  0.193E-03    9.32      10.2  T
speedup  1.09
cpu  time for SCC    0.01 s
wall time for SCC    0.00 s
speedup  1.04
cpu  time for grad    0.01 s
wall time for grad    0.01 s
 E :    -50.46499259  G :  0.006720    pred/act E change: -0.407D-03 -0.286D-03
Maxdispl :   0.0953   ||displ|| :   0.1784   Lambda : -0.152D-03
Largest |displ|/coords:  0.0953 (   1)  0.0876 (   7)  0.0461 (  14)
................................................................................
.............................. CYCLE   35 ......................................
................................................................................
   1    -50.7499386 -0.507499E+02  0.157E-01    9.30       0.0  T
   2    -50.7499424 -0.381912E-05  0.118E-01    9.30       1.0  T
   3    -50.7499460 -0.364234E-05  0.106E-02    9.30       1.8  T
   4    -50.7499464 -0.415630E-06  0.333E-03    9.30       5.9  T
   5    -50.7499465 -0.870304E-08  0.140E-03    9.30      14.0  T
   6    -50.7499465 -0.241803E-08  0.695E-04    9.30      28.2  T
speedup  1.11
cpu  time for SCC    0.01 s
wall time for SCC    0.01 s
speedup  0.94
cpu  time for grad    0.01 s
wall time for grad    0.01 s
 E :    -50.46509437  G :  0.004143    pred/act E change: -0.314D-03 -0.102D-03
Maxdispl :   0.1037   ||displ|| :   0.1805   Lambda : -0.877D-04
Largest |displ|/coords:  0.1037 (   1)  0.1020 (   7)  0.0511 (   2)
................................................................................
.............................. CYCLE   36 ......................................
................................................................................
   1    -50.7481164 -0.507481E+02  0.150E-01    9.29       0.0  T
   2    -50.7481200 -0.355398E-05  0.113E-01    9.29       1.0  T
   3    -50.7481235 -0.350314E-05  0.956E-03    9.29       2.1  T
   4    -50.7481239 -0.368922E-06  0.312E-03    9.29       6.3  T
   5    -50.7481239 -0.746072E-08  0.125E-03    9.29      15.6  T
   6    -50.7481239 -0.174162E-08  0.615E-04    9.29      31.9  T
speedup  0.93
cpu  time for SCC    0.00 s
wall time for SCC    0.01 s
speedup  0.97
cpu  time for grad    0.01 s
wall time for grad    0.01 s
 E :    -50.46514160  G :  0.009855    pred/act E change: -0.784D-04 -0.472D-04
Maxdispl :   0.0583   ||displ|| :   0.1034   Lambda : -0.958D-04
Largest |displ|/coords:  0.0583 (   1)  0.0503 (   7)  0.0358 (   2)
................................................................................
.............................. CYCLE   37 ......................................
................................................................................
   1    -50.7488348 -0.507488E+02  0.640E-02    9.30       0.0  T
   2    -50.7488356 -0.792686E-06  0.484E-02    9.30       1.0  T
   3    -50.7488363 -0.704833E-06  0.484E-03    9.31       4.1  T
   4    -50.7488364 -0.934295E-07  0.160E-03    9.31      12.2  T
   5    -50.7488364 -0.348430E-08  0.558E-04    9.31      35.1  T
speedup  1.09
cpu  time for SCC    0.00 s
wall time for SCC    0.00 s
speedup  1.04
cpu  time for grad    0.01 s
wall time for grad    0.01 s
 E :    -50.46521730  G :  0.007323    pred/act E change: -0.453D-04 -0.757D-04
Maxdispl :   0.1811   ||displ|| :   0.2918   Lambda : -0.174D-03
Largest |displ|/coords:  0.1811 (   1)  0.1204 (   7)  0.1173 (   2)
................................................................................
.............................. CYCLE   38 ......................................
................................................................................
   1    -50.7492347 -0.507492E+02  0.174E-01    9.32       0.0  T
   2    -50.7492393 -0.460052E-05  0.132E-01    9.32       1.0  T
   3    -50.7492448 -0.550078E-05  0.929E-03    9.33       2.1  T
   4    -50.7492451 -0.292821E-06  0.418E-03    9.32       4.7  T
   5    -50.7492451 -0.156278E-07  0.141E-03    9.32      13.9  T
   6    -50.7492451 -0.175702E-08  0.694E-04    9.32      28.3  T
speedup  1.09
cpu  time for SCC    0.01 s
wall time for SCC    0.01 s
speedup  1.04
cpu  time for grad    0.01 s
wall time for grad    0.01 s
 E :    -50.46533271  G :  0.003501    pred/act E change: -0.484D-04 -0.115D-03
Maxdispl :   0.1435   ||displ|| :   0.2532   Lambda : -0.762D-04
Largest |displ|/coords:  0.1435 (   1)  0.1123 (   7)  0.1102 (   2)
................................................................................
.............................. CYCLE   39 ......................................
................................................................................
   1    -50.7482691 -0.507483E+02  0.163E-01    9.32       0.0  T
   2    -50.7482732 -0.402407E-05  0.124E-01    9.32       1.0  T
   3    -50.7482774 -0.418407E-05  0.925E-03    9.33       2.1  T
   4    -50.7482777 -0.378070E-06  0.360E-03    9.33       5.4  T
   5    -50.7482778 -0.146466E-07  0.134E-03    9.33      14.6  T
   6    -50.7482778 -0.131345E-08  0.658E-04    9.33      29.8  T
   7    -50.7482778 -0.101553E-08  0.118E-04    9.33     166.1  T
speedup  0.94
cpu  time for SCC    0.01 s
wall time for SCC    0.01 s
speedup  1.01
cpu  time for grad    0.01 s
wall time for grad    0.01 s
 E :    -50.46536972  G :  0.006863    pred/act E change: -0.945D-04 -0.370D-04
Maxdispl :   0.0805   ||displ|| :   0.1340   Lambda : -0.943D-04
Largest |displ|/coords:  0.0805 (   2)  0.0599 (   1)  0.0447 (   4)
................................................................................
.............................. CYCLE   40 ......................................
................................................................................
   1    -50.7512537 -0.507513E+02  0.636E-02    9.37       0.0  T
   2    -50.7512553 -0.156073E-05  0.476E-02    9.37       1.0  T
   3    -50.7512565 -0.124770E-05  0.834E-03    9.37       2.4  T
   4    -50.7512567 -0.179948E-06  0.247E-03    9.37       7.9  T
   5    -50.7512567 -0.103288E-07  0.794E-04    9.37      24.7  T
speedup  1.09
cpu  time for SCC    0.01 s
wall time for SCC    0.00 s
speedup  1.04
cpu  time for grad    0.01 s
wall time for grad    0.01 s
 E :    -50.46539419  G :  0.004742    pred/act E change: -0.406D-04 -0.245D-04
Maxdispl :   0.0501   ||displ|| :   0.0961   Lambda : -0.487D-04
Largest |displ|/coords:  0.0501 (   2)  0.0441 (   7)  0.0422 (   1)
................................................................................
.............................. CYCLE   41 ......................................
................................................................................
   1    -50.7498167 -0.507498E+02  0.716E-02    9.36       0.0  T
   2    -50.7498180 -0.129737E-05  0.542E-02    9.36       1.0  T
   3    -50.7498191 -0.102540E-05  0.596E-03    9.36       3.3  T
   4    -50.7498192 -0.182184E-06  0.161E-03    9.36      12.2  T
   5    -50.7498192 -0.354094E-08  0.654E-04    9.36      30.0  T
speedup  0.89
cpu  time for SCC    0.00 s
wall time for SCC    0.00 s
speedup  0.97
cpu  time for grad    0.01 s
wall time for grad    0.01 s
 E :    -50.46542160  G :  0.002356    pred/act E change: -0.480D-04 -0.274D-04
Maxdispl :   0.0329   ||displ|| :   0.0553   Lambda : -0.281D-04
Largest |displ|/coords:  0.0329 (   2)  0.0250 (   4)  0.0169 (   1)
................................................................................
.............................. CYCLE   42 ......................................
................................................................................
   1    -50.7497283 -0.507497E+02  0.316E-02    9.36       0.0  T
   2    -50.7497287 -0.425132E-06  0.237E-02    9.36       1.0  T
   3    -50.7497290 -0.275171E-06  0.365E-03    9.35       5.4  T
   4    -50.7497291 -0.619867E-07  0.854E-04    9.35      23.0  T
   5    -50.7497291 -0.115586E-08  0.375E-04    9.35      52.3  T
speedup  0.87
cpu  time for SCC    0.00 s
wall time for SCC    0.00 s
speedup  1.01
cpu  time for grad    0.01 s
wall time for grad    0.01 s
 E :    -50.46543877  G :  0.003815    pred/act E change: -0.246D-04 -0.172D-04
Maxdispl :   0.0617   ||displ|| :   0.1044   Lambda : -0.353D-04
Largest |displ|/coords:  0.0617 (   4)  0.0504 (   2)  0.0301 (   5)
................................................................................
.............................. CYCLE   43 ......................................
................................................................................
   1    -50.7499614 -0.507500E+02  0.490E-02    9.35       0.0  T
   2    -50.7499621 -0.691078E-06  0.368E-02    9.34       1.0  T
   3    -50.7499625 -0.418083E-06  0.490E-03    9.34       4.0  T
   4    -50.7499626 -0.112604E-06  0.150E-03    9.34      13.1  T
   5    -50.7499626 -0.500585E-08  0.514E-04    9.34      38.1  T
   6    -50.7499626 -0.264414E-09  0.310E-04    9.34      63.2  T
speedup  1.11
cpu  time for SCC    0.01 s
wall time for SCC    0.01 s
speedup  1.01
cpu  time for grad    0.01 s
wall time for grad    0.01 s
 E :    -50.46546195  G :  0.003228    pred/act E change: -0.141D-04 -0.232D-04
Maxdispl :   0.1158   ||displ|| :   0.1814   Lambda : -0.432D-04
Largest |displ|/coords:  0.1158 (   4)  0.1067 (   2)  0.0395 (  11)
................................................................................
.............................. CYCLE   44 ......................................
................................................................................
   1    -50.7504348 -0.507504E+02  0.919E-02    9.34       0.0  T
   2    -50.7504360 -0.118690E-05  0.694E-02    9.34       1.0  T
   3    -50.7504372 -0.127122E-05  0.619E-03    9.34       3.2  T
   4    -50.7504374 -0.112138E-06  0.239E-03    9.34       8.2  T
   5    -50.7504374 -0.675282E-08  0.752E-04    9.34      26.1  T
   6    -50.7504374 -0.584535E-09  0.410E-04    9.34      47.8  T
speedup  1.11
cpu  time for SCC    0.01 s
wall time for SCC    0.01 s
speedup  1.01
cpu  time for grad    0.01 s
wall time for grad    0.01 s
 E :    -50.46548789  G :  0.003868    pred/act E change: -0.179D-04 -0.259D-04
Maxdispl :   0.1105   ||displ|| :   0.1821   Lambda : -0.384D-04
Largest |displ|/coords:  0.1105 (   2)  0.1103 (   4)  0.0458 (   5)
................................................................................
.............................. CYCLE   45 ......................................
................................................................................
   1    -50.7506817 -0.507507E+02  0.840E-02    9.33       0.0  T
   2    -50.7506825 -0.877700E-06  0.634E-02    9.33       1.0  T
   3    -50.7506835 -0.949777E-06  0.555E-03    9.33       3.5  T
   4    -50.7506836 -0.748565E-07  0.218E-03    9.33       9.0  T
   5    -50.7506836 -0.456761E-08  0.612E-04    9.33      32.0  T
   6    -50.7506836 -0.317101E-09  0.353E-04    9.33      55.5  T
speedup  0.94
cpu  time for SCC    0.00 s
wall time for SCC    0.01 s
speedup  1.02
cpu  time for grad    0.01 s
wall time for grad    0.01 s
 E :    -50.46551218  G :  0.002845    pred/act E change: -0.223D-04 -0.243D-04
Maxdispl :   0.1552   ||displ|| :   0.2416   Lambda : -0.392D-04
Largest |displ|/coords:  0.1552 (   4)  0.1371 (   2)  0.0568 (   7)
................................................................................
.............................. CYCLE   46 ......................................
................................................................................
   1    -50.7502950 -0.507503E+02  0.122E-01    9.31       0.0  T
   2    -50.7502970 -0.199576E-05  0.921E-02    9.31       1.0  T
   3    -50.7502990 -0.205845E-05  0.840E-03    9.31       2.3  T
   4    -50.7502992 -0.181508E-06  0.266E-03    9.31       7.4  T
   5    -50.7502992 -0.852965E-08  0.951E-04    9.31      20.6  T
   6    -50.7502992 -0.953790E-09  0.500E-04    9.31      39.3  T
speedup  0.91
cpu  time for SCC    0.00 s
wall time for SCC    0.01 s
speedup  1.00
cpu  time for grad    0.01 s
wall time for grad    0.01 s
 E :    -50.46553273  G :  0.003333    pred/act E change: -0.198D-04 -0.206D-04
Maxdispl :   0.0988   ||displ|| :   0.1610   Lambda : -0.462D-04
Largest |displ|/coords:  0.0988 (   4)  0.0823 (   1)  0.0614 (   2)
................................................................................
.............................. CYCLE   47 ......................................
................................................................................
   1    -50.7519434 -0.507519E+02  0.658E-02    9.32       0.0  T
   2    -50.7519446 -0.114100E-05  0.489E-02    9.32       1.0  T
   3    -50.7519455 -0.963012E-06  0.744E-03    9.32       2.6  T
   4    -50.7519457 -0.129945E-06  0.276E-03    9.32       7.1  T
   5    -50.7519457 -0.905965E-08  0.796E-04    9.32      24.6  T
   6    -50.7519457 -0.763706E-09  0.497E-04    9.32      39.4  T
speedup  0.91
cpu  time for SCC    0.00 s
wall time for SCC    0.01 s
speedup  0.94
cpu  time for grad    0.01 s
wall time for grad    0.01 s
 E :    -50.46554651  G :  0.005627    pred/act E change: -0.208D-04 -0.138D-04
Maxdispl :   0.1378   ||displ|| :   0.1980   Lambda : -0.473D-04
Largest |displ|/coords:  0.1378 (   2)  0.1161 (   4)  0.0336 (  11)
................................................................................
.............................. CYCLE   48 ......................................
................................................................................
   1    -50.7504335 -0.507504E+02  0.992E-02    9.30       0.0  T
   2    -50.7504351 -0.167169E-05  0.745E-02    9.31       1.0  T
   3    -50.7504365 -0.137135E-05  0.792E-03    9.31       2.5  T
   4    -50.7504367 -0.208770E-06  0.273E-03    9.31       7.2  T
   5    -50.7504367 -0.116603E-07  0.844E-04    9.31      23.2  T
speedup  1.11
cpu  time for SCC    0.00 s
wall time for SCC    0.00 s
speedup  1.04
cpu  time for grad    0.01 s
wall time for grad    0.01 s
 E :    -50.46557014  G :  0.003987    pred/act E change: -0.237D-04 -0.236D-04
Maxdispl :   0.0465   ||displ|| :   0.0852   Lambda : -0.380D-04
Largest |displ|/coords:  0.0465 (   4)  0.0401 (   1)  0.0268 (   2)
................................................................................
.............................. CYCLE   49 ......................................
................................................................................
   1    -50.7504740 -0.507505E+02  0.360E-02    9.31       0.0  T
   2    -50.7504745 -0.454603E-06  0.269E-02    9.31       1.0  T
   3    -50.7504747 -0.255194E-06  0.408E-03    9.31       4.8  T
   4    -50.7504748 -0.685493E-07  0.936E-04    9.31      20.9  T
   5    -50.7504748 -0.207817E-08  0.418E-04    9.31      46.9  T
speedup  0.87
cpu  time for SCC    0.00 s
wall time for SCC    0.00 s
speedup  1.00
cpu  time for grad    0.01 s
wall time for grad    0.01 s
 E :    -50.46558753  G :  0.002884    pred/act E change: -0.246D-04 -0.174D-04
Maxdispl :   0.0578   ||displ|| :   0.1009   Lambda : -0.225D-04
Largest |displ|/coords:  0.0578 (   1)  0.0540 (   4)  0.0387 (   2)
................................................................................
.............................. CYCLE   50 ......................................
................................................................................
   1    -50.7505788 -0.507506E+02  0.411E-02    9.31       0.0  T
   2    -50.7505791 -0.219216E-06  0.309E-02    9.31       1.0  T
   3    -50.7505793 -0.222819E-06  0.274E-03    9.31       7.2  T
   4    -50.7505793 -0.214249E-07  0.120E-03    9.31      16.3  T
   5    -50.7505793 -0.178050E-08  0.383E-04    9.31      51.2  T
   6    -50.7505793 -0.159652E-09  0.223E-04    9.31      88.0  T
speedup  0.94
cpu  time for SCC    0.00 s
wall time for SCC    0.01 s
speedup  0.95
cpu  time for grad    0.01 s
wall time for grad    0.01 s
 E :    -50.46560435  G :  0.002396    pred/act E change: -0.191D-04 -0.168D-04
Maxdispl :   0.1271   ||displ|| :   0.2128   Lambda : -0.279D-04
Largest |displ|/coords:  0.1271 (   4)  0.1067 (   1)  0.0929 (   2)
................................................................................
.............................. CYCLE   51 ......................................
................................................................................
   1    -50.7501720 -0.507502E+02  0.846E-02    9.31       0.0  T
   2    -50.7501728 -0.796216E-06  0.633E-02    9.31       1.0  T
   3    -50.7501737 -0.859562E-06  0.573E-03    9.31       3.4  T
   4    -50.7501738 -0.721169E-07  0.232E-03    9.31       8.5  T
   5    -50.7501738 -0.712549E-08  0.775E-04    9.31      25.3  T
   6    -50.7501738 -0.694641E-09  0.440E-04    9.31      44.5  T
speedup  1.11
cpu  time for SCC    0.01 s
wall time for SCC    0.01 s
speedup  1.01
cpu  time for grad    0.01 s
wall time for grad    0.01 s
 E :    -50.46562186  G :  0.002526    pred/act E change: -0.114D-04 -0.175D-04
Maxdispl :   0.0603   ||displ|| :   0.1063   Lambda : -0.168D-04
Largest |displ|/coords:  0.0603 (   1)  0.0488 (   4)  0.0389 (   2)
................................................................................
.............................. CYCLE   52 ......................................
................................................................................
   1    -50.7504159 -0.507504E+02  0.516E-02    9.32       0.0  T
   2    -50.7504162 -0.318460E-06  0.387E-02    9.32       1.0  T
   3    -50.7504165 -0.292602E-06  0.337E-03    9.32       5.8  T
   4    -50.7504165 -0.341727E-07  0.119E-03    9.32      16.5  T
   5    -50.7504165 -0.203958E-08  0.427E-04    9.32      45.9  T
   6    -50.7504165 -0.156433E-09  0.213E-04    9.32      92.0  T
speedup  0.93
cpu  time for SCC    0.00 s
wall time for SCC    0.01 s
speedup  0.94
cpu  time for grad    0.01 s
wall time for grad    0.01 s
 E :    -50.46563200  G :  0.002174    pred/act E change: -0.146D-04 -0.101D-04
Maxdispl :   0.0744   ||displ|| :   0.1352   Lambda : -0.157D-04
Largest |displ|/coords:  0.0744 (   4)  0.0730 (   2)  0.0593 (   1)

generating ANC from model Hessian ...
 Shifting diagonal of input Hessian by   5.121040047555500E-003
 Lowest  eigenvalues of input Hessian
    0.005000   -0.000000   -0.000000   -0.000000   -0.000000    0.000000
    0.000000    0.005287    0.005492    0.005656    0.005913    0.006625
    0.007031    0.008353    0.008640    0.009129    0.011013    0.011863
 Highest eigenvalues
    1.396755    1.399822    1.490068    2.671059    3.361990    3.638542
 
cpu  time for ANC gen    0.01 s
wall time for ANC gen    0.01 s
................................................................................
.............................. CYCLE   53 ......................................
................................................................................
   1    -50.7498594 -0.507499E+02  0.542E-02    9.31       0.0  T
   2    -50.7498597 -0.312213E-06  0.405E-02    9.31       1.0  T
   3    -50.7498599 -0.255004E-06  0.378E-03    9.31       5.2  T
   4    -50.7498600 -0.409188E-07  0.125E-03    9.31      15.7  T
   5    -50.7498600 -0.271299E-08  0.453E-04    9.31      43.3  T
   6    -50.7498600 -0.221519E-09  0.248E-04    9.31      79.0  T
speedup  1.11
cpu  time for SCC    0.01 s
wall time for SCC    0.01 s
speedup  1.01
cpu  time for grad    0.01 s
wall time for grad    0.01 s
 E :    -50.46564287  G :  0.002157    pred/act E change:  0.000D+00 -0.109D-04
Maxdispl :   0.0262   ||displ|| :   0.0500   Lambda : -0.317D-04
Largest |displ|/coords:  0.0262 (   5)  0.0225 (   1)  0.0145 (   8)
................................................................................
.............................. CYCLE   54 ......................................
................................................................................
   1    -50.7498938 -0.507499E+02  0.515E-02    9.31       0.0  T
   2    -50.7498941 -0.359637E-06  0.392E-02    9.31       1.0  T
   3    -50.7498945 -0.406298E-06  0.268E-03    9.31       7.3  T
   4    -50.7498946 -0.276703E-07  0.116E-03    9.31      16.9  T
   5    -50.7498946 -0.104556E-08  0.377E-04    9.31      52.0  T
   6    -50.7498946 -0.133873E-09  0.164E-04    9.31     119.3  T
speedup  0.93
cpu  time for SCC    0.00 s
wall time for SCC    0.01 s
speedup  1.01
cpu  time for grad    0.01 s
wall time for grad    0.01 s
 E :    -50.46566601  G :  0.001029    pred/act E change:  0.000D+00 -0.231D-04
Maxdispl :   0.0488   ||displ|| :   0.0881   Lambda : -0.327D-04
Largest |displ|/coords:  0.0488 (   1)  0.0296 (   7)  0.0291 (   5)
................................................................................
.............................. CYCLE   55 ......................................
................................................................................
   1    -50.7497348 -0.507497E+02  0.841E-02    9.31       0.0  T
   2    -50.7497356 -0.756534E-06  0.638E-02    9.31       1.0  T
   3    -50.7497365 -0.879334E-06  0.401E-03    9.31       4.9  T
   4    -50.7497365 -0.519205E-07  0.177E-03    9.31      11.1  T
   5    -50.7497365 -0.170942E-08  0.575E-04    9.31      34.1  T
   6    -50.7497365 -0.371301E-09  0.213E-04    9.31      91.9  T
speedup  1.11
cpu  time for SCC    0.01 s
wall time for SCC    0.01 s
speedup  1.01
cpu  time for grad    0.01 s
wall time for grad    0.01 s
 E :    -50.46568301  G :  0.003158    pred/act E change: -0.159D-04 -0.170D-04
Maxdispl :   0.0156   ||displ|| :   0.0269   Lambda : -0.103D-04
Largest |displ|/coords:  0.0156 (   1)  0.0094 (   6)  0.0088 (   7)
................................................................................
.............................. CYCLE   56 ......................................
................................................................................
   1    -50.7499385 -0.507499E+02  0.187E-02    9.31       0.0  T
   2    -50.7499386 -0.593286E-07  0.141E-02    9.31       1.4  T
   3    -50.7499386 -0.411475E-07  0.134E-03    9.31      14.6  T
   4    -50.7499386 -0.933977E-08  0.459E-04    9.31      42.7  T
   5    -50.7499386 -0.353623E-09  0.170E-04    9.31     115.6  T
speedup  1.11
cpu  time for SCC    0.00 s
wall time for SCC    0.00 s
speedup  1.02
cpu  time for grad    0.01 s
wall time for grad    0.01 s
 E :    -50.46569125  G :  0.001861    pred/act E change: -0.165D-04 -0.824D-05
Maxdispl :   0.0474   ||displ|| :   0.0717   Lambda : -0.141D-04
Largest |displ|/coords:  0.0474 (   1)  0.0237 (   6)  0.0213 (   7)
................................................................................
.............................. CYCLE   57 ......................................
................................................................................
   1    -50.7502004 -0.507502E+02  0.484E-02    9.31       0.0  T
   2    -50.7502008 -0.348295E-06  0.365E-02    9.31       1.0  T
   3    -50.7502011 -0.312059E-06  0.314E-03    9.31       6.2  T
   4    -50.7502011 -0.440355E-07  0.116E-03    9.31      16.9  T
   5    -50.7502011 -0.181842E-08  0.454E-04    9.31      43.2  T
   6    -50.7502011 -0.190532E-09  0.234E-04    9.31      83.6  T
speedup  0.93
cpu  time for SCC    0.00 s
wall time for SCC    0.01 s
speedup  1.01
cpu  time for grad    0.01 s
wall time for grad    0.01 s
 E :    -50.46569980  G :  0.000578    pred/act E change: -0.517D-05 -0.855D-05
Maxdispl :   0.0281   ||displ|| :   0.0402   Lambda : -0.331D-05
Largest |displ|/coords:  0.0281 (   1)  0.0123 (   6)  0.0102 (   5)
................................................................................
.............................. CYCLE   58 ......................................
................................................................................
   1    -50.7502620 -0.507503E+02  0.265E-02    9.31       0.0  T
   2    -50.7502621 -0.957429E-07  0.200E-02    9.31       1.0  T
   3    -50.7502622 -0.978889E-07  0.165E-03    9.31      11.9  T
   4    -50.7502622 -0.100283E-07  0.689E-04    9.31      28.5  T
   5    -50.7502622 -0.536680E-09  0.236E-04    9.31      83.0  T
speedup  0.89
cpu  time for SCC    0.00 s
wall time for SCC    0.00 s
speedup  1.01
cpu  time for grad    0.01 s
wall time for grad    0.01 s
 E :    -50.46570214  G :  0.000499    pred/act E change: -0.711D-05 -0.234D-05
Maxdispl :   0.0327   ||displ|| :   0.0430   Lambda : -0.290D-05
Largest |displ|/coords:  0.0327 (   1)  0.0127 (   6)  0.0100 (   2)
................................................................................
.............................. CYCLE   59 ......................................
................................................................................
   1    -50.7503749 -0.507504E+02  0.230E-02    9.31       0.0  T
   2    -50.7503750 -0.936383E-07  0.173E-02    9.31       1.1  T
   3    -50.7503751 -0.867360E-07  0.168E-03    9.31      11.7  T
   4    -50.7503751 -0.113417E-07  0.649E-04    9.31      30.2  T
   5    -50.7503751 -0.466670E-09  0.220E-04    9.31      89.3  T
speedup  0.87
cpu  time for SCC    0.00 s
wall time for SCC    0.00 s
speedup  1.00
cpu  time for grad    0.01 s
wall time for grad    0.01 s
 E :    -50.46570401  G :  0.000492    pred/act E change: -0.166D-05 -0.187D-05
Maxdispl :   0.0220   ||displ|| :   0.0273   Lambda : -0.132D-05
Largest |displ|/coords:  0.0220 (   1)  0.0081 (   6)  0.0068 (   4)
................................................................................
.............................. CYCLE   60 ......................................
................................................................................
   1    -50.7503610 -0.507504E+02  0.128E-02    9.31       0.0  T
   2    -50.7503611 -0.275103E-07  0.965E-03    9.31       2.0  T
   3    -50.7503611 -0.223666E-07  0.899E-04    9.31      21.8  T
   4    -50.7503611 -0.379531E-08  0.401E-04    9.31      48.9  T
speedup  1.08
cpu  time for SCC    0.00 s
wall time for SCC    0.00 s
speedup  1.07
cpu  time for grad    0.01 s
wall time for grad    0.01 s
 E :    -50.46570494  G :  0.000332    pred/act E change: -0.146D-05 -0.930D-06
Maxdispl :   0.0152   ||displ|| :   0.0219   Lambda : -0.112D-05
Largest |displ|/coords:  0.0152 (   1)  0.0066 (   4)  0.0054 (   9)
................................................................................
.............................. CYCLE   61 ......................................
................................................................................
   1    -50.7503601 -0.507504E+02  0.734E-03    9.31       0.0  T
   2    -50.7503601 -0.213770E-07  0.551E-03    9.31       3.6  T
   3    -50.7503601 -0.112833E-07  0.822E-04    9.31      23.9  T
   4    -50.7503601 -0.382299E-08  0.380E-04    9.31      51.6  T
speedup  1.05
cpu  time for SCC    0.00 s
wall time for SCC    0.00 s
speedup  1.07
cpu  time for grad    0.01 s
wall time for grad    0.01 s
 E :    -50.46570564  G :  0.000354    pred/act E change: -0.659D-06 -0.702D-06
Maxdispl :   0.0109   ||displ|| :   0.0137   Lambda : -0.504D-06
Largest |displ|/coords:  0.0109 (   1)  0.0039 (   4)  0.0034 (   6)
................................................................................
.............................. CYCLE   62 ......................................
................................................................................
   1    -50.7502668 -0.507503E+02  0.513E-03    9.31       0.0  T
   2    -50.7502668 -0.737413E-08  0.385E-03    9.31       5.1  T
   3    -50.7502668 -0.462936E-08  0.475E-04    9.31      41.3  T
   4    -50.7502668 -0.116152E-08  0.180E-04    9.31     109.0  T
speedup  0.75
cpu  time for SCC    0.00 s
wall time for SCC    0.00 s
speedup  0.97
cpu  time for grad    0.01 s
wall time for grad    0.01 s
 E :    -50.46570594  G :  0.000317    pred/act E change: -0.562D-06 -0.304D-06
Maxdispl :   0.0036   ||displ|| :   0.0083   Lambda : -0.325D-06
Largest |displ|/coords:  0.0036 (   1)  0.0029 (   7)  0.0028 (   5)
................................................................................
.............................. CYCLE   63 ......................................
................................................................................
   1    -50.7502374 -0.507502E+02  0.440E-03    9.31       0.0  T
   2    -50.7502374 -0.576386E-08  0.331E-03    9.31       5.9  T
   3    -50.7502374 -0.456516E-08  0.465E-04    9.31      42.2  T
   4    -50.7502374 -0.824755E-09  0.162E-04    9.31     121.0  T
speedup  1.05
cpu  time for SCC    0.00 s
wall time for SCC    0.00 s
speedup  0.98
cpu  time for grad    0.01 s
wall time for grad    0.01 s
 E :    -50.46570615  G :  0.000220    pred/act E change: -0.252D-06 -0.209D-06
Maxdispl :   0.0036   ||displ|| :   0.0065   Lambda : -0.202D-06
Largest |displ|/coords:  0.0036 (   1)  0.0023 (   4)  0.0021 (   6)
................................................................................
.............................. CYCLE   64 ......................................
................................................................................
   1    -50.7502134 -0.507502E+02  0.354E-03    9.31       0.0  T
   2    -50.7502134 -0.405004E-08  0.265E-03    9.31       7.4  T
   3    -50.7502134 -0.286163E-08  0.387E-04    9.31      50.6  T
   4    -50.7502134 -0.628198E-09  0.114E-04    9.31     172.5  T
speedup  1.05
cpu  time for SCC    0.00 s
wall time for SCC    0.00 s
speedup  0.89
cpu  time for grad    0.01 s
wall time for grad    0.01 s
 E :    -50.46570629  G :  0.000126    pred/act E change: -0.162D-06 -0.143D-06
Maxdispl :   0.0022   ||displ|| :   0.0053   Lambda : -0.139D-06
Largest |displ|/coords:  0.0022 (   2)  0.0018 (   1)  0.0018 (   6)
................................................................................
.............................. CYCLE   65 ......................................
................................................................................
   1    -50.7502164 -0.507502E+02  0.333E-03    9.31       0.0  T
   2    -50.7502164 -0.297519E-08  0.249E-03    9.31       7.9  T
   3    -50.7502164 -0.223874E-08  0.334E-04    9.31      58.7  T
   4    -50.7502164 -0.461611E-09  0.112E-04    9.31     175.7  T
speedup  1.03
cpu  time for SCC    0.00 s
wall time for SCC    0.00 s
speedup  0.98
cpu  time for grad    0.01 s
wall time for grad    0.01 s
 E :    -50.46570639  G :  0.000103    pred/act E change: -0.101D-06 -0.963D-07
Maxdispl :   0.0040   ||displ|| :   0.0083   Lambda : -0.115D-06
Largest |displ|/coords:  0.0040 (   1)  0.0040 (   2)  0.0028 (  15)

   *** GEOMETRY OPTIMIZATION CONVERGED AFTER 65 ITERATIONS ***

------------------------------------------------------------------------
 total energy gain (kcal):     -0.0399
------------------------------------------------------------------------
================
 final structure:
================
$coord
       -0.23102994996635       -1.03045558102708       -0.79409525877812      S 
        1.58812937913809       -2.74717392360872       -1.88255525432667      O 
       -0.40775918809340        1.37470747577859       -2.50750695976606      O 
       -2.80263733601084       -2.02215312502479       -0.68136809622858      O 
        0.53064399195744       -0.10457329251325        1.71609555485882      O 
       -5.32629283676380       -3.17438391703565        3.47826084386212      O 
       -4.30797522536330       -3.10897662204727        1.92428345475561      H 
       -6.98261026030933       -3.69712817988615        2.96133611175430      H 
        7.25958786274501        1.84516083587121       -1.85620460774724      O 
        6.71197144389183        0.61665635962744       -0.56157866121901      H 
        8.96046621566910        1.39698162776327       -2.28788911871756      H 
        5.39249543228421       -1.66492205310809        1.23380337878459      O 
        4.32962681825529       -2.53642437155445        0.00827564502156      H 
        4.15764439626822       -0.81663239875017        2.27597901987028      H 
       -5.30956603975163        2.28704880879235       -0.87615390571658      O 
       -4.64150812532873        0.56693469990449       -1.09906362542392      H 
       -4.27537868309940        3.30476632587275       -1.96913209462992      H 
        3.56577727630643        0.64281028748298       -5.10151462041595      O 
        3.36784534148719       -1.09655201051345       -4.56192743821237      H 
        1.12189220813332        1.33268030463035       -3.64977864577361      H 
        4.97598626496000        1.32294124092064       -4.09301330586018      H 
       -3.55702490178951        1.52179868009510        3.73559442139603      N 
       -3.47373604092309        2.72542305666340        5.22307422223160      H 
       -1.70909148984288        0.95332665693835        3.06897730061238      H 
       -4.47730193814816       -0.17699001384456        4.16163731387548      H 
       -4.46015457805616        2.28512910934020        2.13446436356172      H 
$end
 
 Bond Distances (Angstroems)
 ---------------------------
S1-O2=1.4435         S1-O3=1.5655         S1-O4=1.4597         S1-O5=1.4721         O2-S1=1.4435         O3-S1=1.5655         
O3-H20=1.0105        O4-S1=1.4597         O5-S1=1.4721         O6-H7=0.9838         O6-H8=0.9589         H7-O6=0.9838         
H8-O6=0.9589         O9-H10=0.9879        O9-H11=0.9584        H10-O9=0.9879        H11-O9=0.9584        O12-H13=0.9745       
O12-H14=0.9657       H13-O12=0.9745       H14-O12=0.9657       O15-H16=0.9836       O15-H17=0.9613       H16-O15=0.9836       
H17-O15=0.9613       O18-H19=0.9694       O18-H21=0.9855       H19-O18=0.9694       H20-O3=1.0105        H21-O18=0.9855       
N22-H23=1.0135       N22-H24=1.0822       N22-H25=1.0470       N22-H26=1.0533       H23-N22=1.0135       H24-N22=1.0822       
H25-N22=1.0470       H26-N22=1.0533       
 N  H  Rav=1.0490 sigma=0.0244  Rmin=1.0135  Rmax=1.0822     4
 O  H  Rav=0.9763 sigma=0.0151  Rmin=0.9584  Rmax=1.0105    11
 S  O  Rav=1.4852 sigma=0.0474  Rmin=1.4435  Rmax=1.5655     4
 
 selected bond angles (degree)
 --------------------
O3-S1-O2=108.69                O4-S1-O2=114.32                O4-S1-O3=105.09                O5-S1-O2=112.76                
O5-S1-O3=105.57                O5-S1-O4=109.76                H20-O3-S1=106.30               H8-O6-H7=105.80                
H11-O9-H10=106.14              
 
 selected dihedral angles (degree)
 ---------------------------------
H20-O3-S1-O2=344.63           H20-O3-S1-O4=221.85           H20-O3-S1-O5=105.84           
 
 CMA Distance (Angstroems)
 ---------------------------
R(CMA):  0.8284

========================================================================
 FINAL SINGLEPOINT CALCULATION ON OPTIMIZED GEOMETRY
========================================================================

 Ncao       : 65
 Nao        : 64
 Nshell     : 38
 Nel        : 80
 T(el)      :   300.0
 intcut     :    25.0
 scfconv/Eh :  0.100E-05
   qconv/e  :  0.100E-03
 intneglect :  0.100E-07
 broydamp   :      0.250
 iter      E             dE          RMSdq      gap      omega  full diag
   1    -50.7502164 -0.507502E+02  0.394E-05    9.31       0.0  T
   2    -50.7502164 -0.142109E-11  0.249E-05    9.31     789.2  T
   3    -50.7502164 -0.724754E-12  0.617E-06    9.31    3178.9  T
speedup  1.03
cpu  time for SCC    0.00 s
wall time for SCC    0.00 s

   *** convergence criteria satisfied after 3 iterations ***

          eigenvalues
 #    :          28         29         30         31         32         33         34         35
 occ. :        2.000      2.000      2.000      2.000      2.000      2.000      2.000      2.000
 eps  :       -13.499    -13.063    -12.567    -12.480    -12.405    -12.286    -12.254    -12.028
 #    :          36         37         38         39         40         41         42         43
 occ. :        2.000      2.000      2.000      2.000      2.000      0.000      0.000      0.000
 eps  :       -12.004    -11.912    -11.825    -11.783    -11.655     -2.341     -0.947     -0.079
 #    :          44         45         46         47         48         49         50         51
 occ. :        0.000      0.000      0.000      0.000      0.000      0.000      0.000      0.000
 eps  :         0.753      0.841      1.474      2.237      2.797      3.578      4.350      5.171


   #   Z            q   n(s)   n(p)   n(d)      C6AA      α(0)
   1  16 S      1.704  1.586  1.774  0.935    88.668    15.848
   2   8 O     -0.738  1.769  4.969  0.000    29.762     7.314
   3   8 O     -0.657  1.764  4.893  0.000    26.563     6.958
   4   8 O     -0.759  1.770  4.989  0.000    30.372     7.389
   5   8 O     -0.756  1.772  4.984  0.000    30.250     7.375
   6   8 O     -0.605  1.742  4.863  0.000    25.315     6.791
   7   1 H      0.332  0.668  0.000  0.000     0.633     1.250
   8   1 H      0.291  0.709  0.000  0.000     0.748     1.358
   9   8 O     -0.618  1.753  4.865  0.000    25.616     6.831
  10   1 H      0.328  0.672  0.000  0.000     0.643     1.259
  11   1 H      0.282  0.718  0.000  0.000     0.779     1.386
  12   8 O     -0.609  1.743  4.866  0.000    25.401     6.802
  13   1 H      0.312  0.688  0.000  0.000     0.686     1.302
  14   1 H      0.303  0.697  0.000  0.000     0.712     1.325
  15   8 O     -0.606  1.741  4.865  0.000    25.342     6.794
  16   1 H      0.326  0.674  0.000  0.000     0.647     1.264
  17   1 H      0.302  0.698  0.000  0.000     0.714     1.327
  18   8 O     -0.614  1.758  4.856  0.000    25.523     6.819
  19   1 H      0.312  0.688  0.000  0.000     0.685     1.300
  20   1 H      0.381  0.619  0.000  0.000     0.517     1.128
  21   1 H      0.337  0.663  0.000  0.000     0.621     1.238
  22   7 N     -0.351  1.275  4.076  0.000    29.013     8.000
  23   1 H      0.229  0.771  0.000  0.000     0.968     1.541
  24   1 H      0.299  0.701  0.000  0.000     0.714     1.323
  25   1 H      0.288  0.712  0.000  0.000     0.750     1.357
  26   1 H      0.285  0.715  0.000  0.000     0.759     1.365

 Mol. C6AA /au·bohr⁶  :       5456.587374
 Mol. C8AA /au·bohr⁸  :     118039.277399
 Mol. α(0) /au        :        106.643814

 
 Wiberg/Mayer (AO) data. WBOs > 0.1 written file <wbo>
 largest (>0.05) Wiberg bond orders for each atom
           total WBO             WBO to atom ...
     1  S   4.821    O    2 1.337    O    4 1.273    O    5 1.227    O    3 0.943
     2  O   1.730    S    1 1.337    O    4 0.101    O    5 0.100    O    3 0.084
     3  O   1.930    S    1 0.943    H   20 0.697    O    2 0.084    O    5 0.075    O    4 0.069
     4  O   1.719    S    1 1.273    O    5 0.105    O    2 0.101    O    3 0.069    H   16 0.059    H    7 0.057
     5  O   1.740    S    1 1.227    H   24 0.145    O    4 0.105    O    2 0.100    O    3 0.075    N   22 0.057
     6  O   1.889    H    8 0.910    H    7 0.829    H   25 0.078
     7  H   0.890    O    6 0.829    O    4 0.057
     8  H   0.915    O    6 0.910
     9  O   1.866    H   11 0.917    H   10 0.816    H   21 0.065
    10  H   0.892    O    9 0.816    O   12 0.075
    11  H   0.921    O    9 0.917
    12  O   1.887    H   14 0.886    H   13 0.856    H   10 0.075
    13  H   0.903    O   12 0.856
    14  H   0.908    O   12 0.886
    15  O   1.908    H   17 0.900    H   16 0.829    H   26 0.094
    16  H   0.894    O   15 0.829    O    4 0.059
    17  H   0.909    O   15 0.900
    18  O   1.937    H   19 0.874    H   21 0.820    H   20 0.141
    19  H   0.902    O   18 0.874
    20  H   0.855    O    3 0.697    O   18 0.141
    21  H   0.887    O   18 0.820    O    9 0.065
    22  N   3.519    H   23 0.943    H   25 0.833    H   26 0.819    H   24 0.757    O    5 0.057
    23  H   0.947    N   22 0.943
    24  H   0.910    N   22 0.757    O    5 0.145
    25  H   0.917    N   22 0.833    O    6 0.078
    26  H   0.919    N   22 0.819    O   15 0.094
 MOs/occ written to file <molden.input>
 
molecular dipole:
                 x           y           z       tot (Debye)
 q only:       -1.486       1.216       1.690
   full:       -1.284       0.902       1.374       5.301
molecular quadrupole (traceless):
                xx          xy          yy          xz          yz          zz
 q only:        5.291      -2.846      -6.211     -11.280       6.747       0.920
  q+dip:        5.920      -1.968      -5.090      -9.878       9.159      -0.831
   full:        6.168      -1.875      -5.279     -10.265       8.949      -0.889

SCC energy    :     -50.7502164
rep           :       0.2843775
ES            :       0.2642438
AES           :      -0.0746277
AXC           :      -0.0095447
disp          :      -0.0191461
XB            :       0.0000000
fix           :       0.0000000
total E       :     -50.4657064
atomizationE  :       4.9960106     3135.04
(atE without considering molecular charge,
 total energy contains solvation terms)
H-L gap (eV)  :          9.3133
optimized geometry written to: xtbopt.xyz


------------------------------------------------------------------------
 * finished run on 2019/09/16 at 12:16:00.811     
------------------------------------------------------------------------
 total:
 * wall-time:     0 d,  0 h,  0 min,  1.606 sec
 *  cpu-time:     0 d,  0 h,  0 min,  1.587 sec
 * ratio c/w:     0.988 speedup
 SCF:
 * wall-time:     0 d,  0 h,  0 min,  0.159 sec
 *  cpu-time:     0 d,  0 h,  0 min,  0.152 sec
 * ratio c/w:     0.956 speedup
 ANC optimizer:
 * wall-time:     0 d,  0 h,  0 min,  1.418 sec
 *  cpu-time:     0 d,  0 h,  0 min,  1.407 sec
 * ratio c/w:     0.992 speedup

