      -----------------------------------------------------------      
     |                   =====================                   |     
     |                           x T B                           |     
     |                   =====================                   |     
     |                         S. Grimme                         |     
     |          Mulliken Center for Theoretical Chemistry        |     
     |                    University of Bonn                     |     
     |                 Version 6.0.1 (SAW181210)                 |     
      -----------------------------------------------------------      

   This program is distributed in the hope that it will be useful,
   but WITHOUT ANY WARRANTY; without even the implied warranty of
   MERCHANTABILITY or FITNESS FOR A PARTICULAR PURPOSE.
   
   FOR NON-COMMERCIAL, ACADEMIA USE ONLY.
   
   Cite this work as:
   S. Grimme, C. Bannwarth, P. Shushkov, J. Comput. Theory Chem., 2017,
   13, 1989-2009.
   C. Bannwarth, S. Ehlert and S. Grimme., ChemRxiv, 2018, preprint.
   http://doi.org/10.26434/chemrxiv.7246238.v1
   
   for sTDA-xTB:
   S. Grimme and C. Bannwarth, J. Chem. Phys., 2016, 145, 054103.
   
   in the mass-spec context:
   V. Asgeirsson, C. Bauer and S. Grimme, Chem. Sci., 2017, 8, 4879.
   
   if GBSA is used:
   P. Shushkov, F. März and S. Grimme, unpublished.
   
   for ANC optimizer:
   S. Grimme, unpublished.
   Rational Function algorithm used in ANCopt:
   F. Eckert, P. Pulay, H.-J. Werner, J. Comput. Chem., 1997, 18, 1473.
   
   with help from (in alphabetical order)
   C. Bannwarth, F. Bohle, G. Brandenburg, E. Caldeweyher, M. Checinski,
   S. Dohm, S. Ehlert, S. Ehrlich, F. März, H. Neugebauer, J. Pisarek,
   P. Pracht, P. Shushkov, and S. Spicher.
   
 * started run on 2019/09/16 at 12:04:52.560     
========================================================================
 # omp threads = 1
========================================================================
number of atoms            : 26
number of electrons        : 80
charge                     : 0
spin                       : .0
first test random number   : .4564

########################################################################
# WARNING! Please study the warnings concerning your input carefully
#  - XTBPATH is not set, using XTBHOME instead
#  - the use of '-opt' is discouraged, please use '--opt' next time
#  - the use of '-chrg' is discouraged, please use '--chrg' next time
#  - the use of '-uhf' is discouraged, please use '--uhf' next time
########################################################################

           ------------------------------------------------- 
          |                 G F N 2 - x T B                 |
          | Geometry, Frequencies, Noncovalent interactions |
          |            JCTC 2018 parametrisation            |
           ------------------------------------------------- 
      method parameters     
 k(s)        :  1.8500
 k(p)        :  2.2300
 k(d)        :  2.2300
 k(f)        :  2.0000
 kEN (H0ij)  : -2.0000
 D4 a1       :  0.5200
 D4 a2       :  5.0000
 D4 s6       :  1.0000
 D4 s8       :  2.7000
 D4 s9       :  5.0000
 alphaj      :  2.0000


            Z     q(EN)     CN     RAES       Cart. coordinates
     1  S   6.0    0.68    4.10    3.86     2.51208     0.34492     2.32208
     2  O   6.0   -0.33    1.28    1.80     3.42748    -0.70436    -0.12520
     3  O   6.0   -0.33    1.24    1.80     0.29865    -1.14916     3.21459
     4  O   6.0   -0.26    1.11    1.80     4.57375     0.20181     4.23446
     5  O   6.0   -0.32    1.21    1.80     1.74845     3.03139     1.96447
     6  O   6.0   -0.40    1.68    1.81    -2.36398     0.21089    -2.82950
     7  H   1.0    0.17    0.95    1.42    -3.69842     0.21668    -4.13449
     8  O   6.0   -0.29    2.04    1.83     2.02879     6.61232    -1.47847
     9  H   1.0    0.15    0.97    1.43     2.76512     8.21869    -1.04024
    10  H   1.0    0.17    1.04    1.43     2.07506     5.62785     0.05231
    11  O   6.0   -0.22    2.92    2.60    -3.31285     1.66352     1.40654
    12  H   1.0    0.16    1.17    1.46    -3.21901     1.14178    -0.38478
    13  H   1.0    0.15    1.06    1.44    -2.46104     0.44406     2.53675
    14  H   1.0    0.13    0.96    1.43    -2.68822     3.40611     1.66094
    15  O   6.0   -0.22    2.92    2.59     1.66821     2.24247    -3.70742
    16  H   1.0    0.14    1.05    1.44     1.73491     4.05110    -3.24454
    17  H   1.0    0.15    1.05    1.44     2.87838     1.22085    -2.71655
    18  H   1.0    0.16    1.16    1.46    -0.06808     1.55905    -3.60893
    19  O   6.0   -0.22    2.92    2.60    -0.13741    -3.68610    -1.81679
    20  H   1.0    0.15    1.05    1.44     1.55433    -3.07688    -1.31012
    21  H   1.0    0.12    1.06    1.44    -0.93799    -4.72012    -0.48266
    22  H   1.0    0.16    1.16    1.46    -1.24477    -2.28923    -2.37713
    23  N   5.0   -0.22    3.04    1.93    -1.80623    -6.09901     2.40442
    24  H   1.0    0.13    1.02    1.43    -1.05629    -4.53777     3.24774
    25  H   1.0    0.11    0.99    1.43    -0.73285    -7.58286     3.00200
    26  H   1.0    0.10    0.99    1.43    -3.53807    -6.34802     3.21050

  Z AO/shell   Hii/eV     exponent
  1     Wed Apr 25 08:07:45 CEST 2018   EN: 2.200 GM2: 0.406  GM3: 0.0800  RAES: 1.40
     1s    -10.707211    1.230000
  7     Wed Apr 25 08:07:45 CEST 2018   EN: 3.040 GM2: 0.461  GM3:-0.0640  RAES: 1.90
     2s    -16.686243    2.339881
     2p    -12.523956    2.014332
  8     Wed Apr 25 08:07:45 CEST 2018   EN: 3.440 GM2: 0.452  GM3:-0.0517  RAES: 1.80
     2s    -20.229985    2.439742
     2p    -15.503117    2.137023
 16     Tue Apr 24 11:44:34 CEST 2018   EN: 2.580 GM2: 0.340  GM3:-0.0502  RAES: 3.10
     3s    -20.029654    1.981333
     3p    -11.377694    2.025643
     3d     -0.420282    1.702555
 no old-style atom pair restraining (fixing) potential

molecular fragmentation (1/2 indicates fragments):
11111222222222222222222222
# atoms in fragment 1/2:     5    21
 fragment masses (1/2) :       96.06      109.12
CMA distance (Bohr)    :   4.553
constraining FC (au)   :  0.0500
           ------------------------------------------------- 
          |        Self-Consistent Charge Iterations        |
           ------------------------------------------------- 

 Ncao       : 65
 Nao        : 64
 Nshell     : 38
 Nel        : 80
 T(el)      :   300.0
 intcut     :    25.0
 scfconv/Eh :  0.100E-05
   qconv/e  :  0.100E-03
 intneglect :  0.100E-07
 broydamp   :      0.250
 iter      E             dE          RMSdq      gap      omega  full diag
   1    -50.5418582 -0.505419E+02  0.698E+00   10.17       0.0  T
   2    -50.5820042 -0.401460E-01  0.502E+00    9.60       1.0  T
   3    -50.6142564 -0.322523E-01  0.114E+00    6.72       1.0  T
   4    -50.6191114 -0.485495E-02  0.479E-01    6.88       1.0  T
   5    -50.6194707 -0.359278E-03  0.295E-01    6.68       1.0  T
   6    -50.6198696 -0.398920E-03  0.128E-01    6.70       1.0  T
   7    -50.6199642 -0.945715E-04  0.524E-02    6.79       1.0  T
   8    -50.6199767 -0.125824E-04  0.317E-02    6.79       1.0  T
   9    -50.6199826 -0.583511E-05  0.127E-02    6.79       1.5  T
  10    -50.6199835 -0.907809E-06  0.222E-03    6.79       8.9  T
  11    -50.6199835 -0.214901E-07  0.874E-04    6.79      22.4  T
  12    -50.6199835 -0.219871E-08  0.392E-04    6.79      50.0  T
speedup  0.97
cpu  time for SCC    0.01 s
wall time for SCC    0.02 s

   *** convergence criteria satisfied after 12 iterations ***

          eigenvalues
 #    :          28         29         30         31         32         33         34         35
 occ. :        2.000      2.000      2.000      2.000      2.000      2.000      2.000      2.000
 eps  :       -12.151    -11.981    -11.897    -11.803    -11.456    -10.734    -10.626    -10.062
 #    :          36         37         38         39         40         41         42         43
 occ. :        2.000      2.000      2.000      2.000      2.000      0.000      0.000      0.000
 eps  :        -9.955     -9.765     -9.413     -8.618     -8.570     -1.781     -0.224      0.108
 #    :          44         45         46         47         48         49         50         51
 occ. :        0.000      0.000      0.000      0.000      0.000      0.000      0.000      0.000
 eps  :         0.505      1.756      2.484      2.584      2.975      3.552      4.191      4.956


   #   Z            q   n(s)   n(p)   n(d)      C6AA      α(0)
   1  16 S      1.470  1.608  1.918  1.004    94.182    16.334
   2   8 O     -0.799  1.775  5.024  0.000    31.544     7.530
   3   8 O     -0.807  1.775  5.032  0.000    31.813     7.562
   4   8 O     -0.752  1.795  4.957  0.000    30.169     7.364
   5   8 O     -0.816  1.774  5.042  0.000    32.065     7.592
   6   8 O     -0.834  1.825  5.009  0.000    32.590     7.656
   7   1 H      0.222  0.778  0.000  0.000     1.013     1.581
   8   8 O     -0.626  1.730  4.896  0.000    25.819     6.858
   9   1 H      0.288  0.712  0.000  0.000     0.758     1.367
  10   1 H      0.342  0.658  0.000  0.000     0.608     1.225
  11   8 O     -0.422  1.645  4.776  0.000    21.219     6.221
  12   1 H      0.406  0.594  0.000  0.000     0.469     1.074
  13   1 H      0.407  0.593  0.000  0.000     0.472     1.080
  14   1 H      0.387  0.613  0.000  0.000     0.510     1.122
  15   8 O     -0.449  1.654  4.796  0.000    21.770     6.302
  16   1 H      0.403  0.597  0.000  0.000     0.479     1.088
  17   1 H      0.402  0.598  0.000  0.000     0.481     1.090
  18   1 H      0.400  0.600  0.000  0.000     0.481     1.088
  19   8 O     -0.449  1.651  4.798  0.000    21.757     6.300
  20   1 H      0.401  0.599  0.000  0.000     0.484     1.093
  21   1 H      0.383  0.617  0.000  0.000     0.518     1.130
  22   1 H      0.399  0.601  0.000  0.000     0.482     1.089
  23   7 N     -0.464  1.382  4.082  0.000    32.240     8.433
  24   1 H      0.208  0.792  0.000  0.000     1.064     1.616
  25   1 H      0.153  0.847  0.000  0.000     1.380     1.840
  26   1 H      0.148  0.852  0.000  0.000     1.417     1.865

 Mol. C6AA /au·bohr⁶  :       5550.846409
 Mol. C8AA /au·bohr⁸  :     120711.059285
 Mol. α(0) /au        :        107.497585

 
 Wiberg/Mayer (AO) data. WBOs > 0.1 written file <wbo>
 largest (>0.05) Wiberg bond orders for each atom
           total WBO             WBO to atom ...
     1  S   5.025    O    4 1.363    O    5 1.242    O    3 1.207    O    2 1.179
     2  O   1.698    S    1 1.179    O    4 0.093    O    5 0.091    H   20 0.090    O    3 0.088    H   17 0.086
     3  O   1.665    S    1 1.207    O    4 0.096    H   13 0.096    O    5 0.089    O    2 0.088
     4  O   1.669    S    1 1.363    O    5 0.101    O    3 0.096    O    2 0.093
     5  O   1.629    S    1 1.242    O    4 0.101    O    2 0.091    O    3 0.089    H   10 0.059
     6  O   1.667    H    7 0.944    H   12 0.185    H   18 0.172    H   22 0.172    O   11 0.060    O   19 0.057    O   15 0.057
     7  H   0.951    O    6 0.944
     8  O   1.848    H    9 0.903    H   10 0.819    H   16 0.070
     9  H   0.917    O    8 0.903
    10  H   0.883    O    8 0.819    O    5 0.059
    11  O   2.314    H   14 0.833    H   13 0.729    H   12 0.645    O    6 0.060
    12  H   0.835    O   11 0.645    O    6 0.185
    13  H   0.834    O   11 0.729    O    3 0.096
    14  H   0.851    O   11 0.833
    15  O   2.296    H   16 0.758    H   17 0.744    H   18 0.664    O    6 0.057
    16  H   0.838    O   15 0.758    O    8 0.070
    17  H   0.838    O   15 0.744    O    2 0.086
    18  H   0.840    O   15 0.664    O    6 0.172
    19  O   2.296    H   21 0.754    H   20 0.740    H   22 0.665    O    6 0.057
    20  H   0.839    O   19 0.740    O    2 0.090
    21  H   0.854    O   19 0.754    N   23 0.092
    22  H   0.841    O   19 0.665    O    6 0.172
    23  N   3.020    H   25 0.973    H   26 0.973    H   24 0.922    H   21 0.092
    24  H   0.957    N   23 0.922
    25  H   0.977    N   23 0.973
    26  H   0.978    N   23 0.973
 MOs/occ written to file <molden.input>
 
molecular dipole:
                 x           y           z       tot (Debye)
 q only:       -3.824      -0.119      -3.383
   full:       -3.667       0.030      -2.608      11.438
molecular quadrupole (traceless):
                xx          xy          yy          xz          yz          zz
 q only:      -11.308       1.425      22.085     -22.419      -3.184     -10.776
  q+dip:      -12.212       3.125      24.066     -20.192      -6.072     -11.854
   full:      -12.220       3.239      24.276     -20.049      -6.132     -12.056

SCC energy    :     -50.6199835
rep           :       0.2764150
ES            :       0.3684085
AES           :      -0.0818600
AXC           :      -0.0084063
disp          :      -0.0196207
XB            :       0.0000000
fix           :       0.0000000
total E       :     -50.3432815
atomizationE  :       4.8735857     3058.22
(atE without considering molecular charge,
 total energy contains solvation terms)
H-L gap (eV)  :          6.7889
           ------------------------------------------------- 
          |                 ===============                 |
          |                   A N C O P T                   |
          |                 ===============                 |
          |          Approximate Normal Coordinate          |
          |           Rational Function Optimizer           |
           ------------------------------------------------- 
dumping coords to <xtbopt.coord> and <xtbopt.log>
 optlevel               2
 Maxcycle             520
 Maxmicro              25
 Econv         1.000000000000000E-007
 Gconv         2.000000000000000E-004
 Maxdispl       1.00000000000000     
 Hlow          5.000000000000000E-003
 S6             20.0000000000000     
 Nvar               72

generating ANC from model Hessian ...
 Shifting diagonal of input Hessian by   4.761889993800516E-003
 Lowest  eigenvalues of input Hessian
   -0.000000   -0.000000    0.000000    0.000000    0.000000    0.000000
    0.005000    0.005009    0.005719    0.005875    0.006446    0.006813
    0.007122    0.007766    0.008641    0.009276    0.009887    0.010059
 Highest eigenvalues
    1.576602    1.577014    1.578230    3.078166    3.082168    3.087118
 
cpu  time for ANC gen    0.02 s
wall time for ANC gen    0.03 s
................................................................................
.............................. CYCLE    1 ......................................
................................................................................
   1    -50.6199835 -0.506200E+02  0.132E-04    6.79       0.0  T
   2    -50.6199835 -0.396057E-10  0.922E-05    6.79     212.6  T
   3    -50.6199835 -0.225171E-10  0.552E-05    6.79     355.2  T
speedup  0.97
cpu  time for SCC    0.00 s
wall time for SCC    0.00 s
speedup  0.98
cpu  time for grad    0.01 s
wall time for grad    0.01 s
 E :    -50.34328151  G :  0.200646    pred/act E change:  0.000D+00  0.295D-07
Maxdispl :   0.2067   ||displ|| :   0.4893   Lambda : -0.494D-01
Largest |displ|/coords:  0.2067 (  28)  0.1591 (  22)  0.1550 (  32)
................................................................................
.............................. CYCLE    2 ......................................
................................................................................
   1    -50.6373997 -0.506374E+02  0.415E-01    7.01       0.0  T
   2    -50.6378059 -0.406207E-03  0.314E-01    7.18       1.0  T
   3    -50.6379830 -0.177019E-03  0.109E-01    7.48       1.0  T
   4    -50.6380063 -0.233277E-04  0.353E-02    7.49       1.0  T
   5    -50.6380111 -0.480130E-05  0.978E-03    7.47       2.0  T
   6    -50.6380113 -0.184539E-06  0.537E-03    7.47       3.7  T
   7    -50.6380114 -0.112889E-06  0.222E-03    7.46       8.8  T
speedup  1.04
cpu  time for SCC    0.01 s
wall time for SCC    0.01 s
speedup  0.99
cpu  time for grad    0.01 s
wall time for grad    0.02 s
 E :    -50.38483420  G :  0.127892    pred/act E change:  0.000D+00 -0.416D-01
Maxdispl :   0.2381   ||displ|| :   0.5288   Lambda : -0.322D-01
Largest |displ|/coords:  0.2381 (  32)  0.1933 (  28)  0.1738 (  22)
................................................................................
.............................. CYCLE    3 ......................................
................................................................................
   1    -50.6466332 -0.506466E+02  0.425E-01    7.69       0.0  T
   2    -50.6473808 -0.747574E-03  0.315E-01    7.85       1.0  T
   3    -50.6477116 -0.330860E-03  0.132E-01    8.10       1.0  T
   4    -50.6477358 -0.241866E-04  0.440E-02    8.13       1.0  T
   5    -50.6477411 -0.530926E-05  0.120E-02    8.13       1.6  T
   6    -50.6477415 -0.335454E-06  0.670E-03    8.13       2.9  T
   7    -50.6477416 -0.166204E-06  0.276E-03    8.12       7.1  T
   8    -50.6477417 -0.340065E-07  0.113E-03    8.12      17.3  T
speedup  1.07
cpu  time for SCC    0.01 s
wall time for SCC    0.01 s
speedup  0.99
cpu  time for grad    0.02 s
wall time for grad    0.02 s
 E :    -50.41006458  G :  0.078509    pred/act E change: -0.306D-01 -0.252D-01
Maxdispl :   0.1867   ||displ|| :   0.4899   Lambda : -0.140D-01
Largest |displ|/coords:  0.1867 (   7)  0.1853 (  32)  0.1439 (  22)
................................................................................
.............................. CYCLE    4 ......................................
................................................................................
   1    -50.6500240 -0.506500E+02  0.366E-01    8.28       0.0  T
   2    -50.6507333 -0.709331E-03  0.263E-01    8.39       1.0  T
   3    -50.6510408 -0.307558E-03  0.118E-01    8.54       1.0  T
   4    -50.6510577 -0.168771E-04  0.399E-02    8.57       1.0  T
   5    -50.6510610 -0.323252E-05  0.108E-02    8.57       1.8  T
   6    -50.6510612 -0.270164E-06  0.586E-03    8.57       3.3  T
   7    -50.6510613 -0.118986E-06  0.238E-03    8.56       8.2  T
speedup  1.06
cpu  time for SCC    0.01 s
wall time for SCC    0.01 s
speedup  0.92
cpu  time for grad    0.01 s
wall time for grad    0.02 s
 E :    -50.41933046  G :  0.052230    pred/act E change: -0.206D-01 -0.927D-02
Maxdispl :   0.1959   ||displ|| :   0.3779   Lambda : -0.409D-02
Largest |displ|/coords:  0.1959 (   7)  0.1626 (   8)  0.1276 (   3)
................................................................................
.............................. CYCLE    5 ......................................
................................................................................
   1    -50.6513383 -0.506513E+02  0.245E-01    8.54       0.0  T
   2    -50.6514124 -0.741272E-04  0.181E-01    8.58       1.0  T
   3    -50.6514386 -0.261618E-04  0.522E-02    8.65       1.0  T
   4    -50.6514451 -0.658856E-05  0.120E-02    8.64       1.6  T
   5    -50.6514457 -0.527116E-06  0.375E-03    8.64       5.2  T
   6    -50.6514457 -0.145798E-07  0.166E-03    8.63      11.8  T
speedup  0.82
cpu  time for SCC    0.00 s
wall time for SCC    0.01 s
speedup  0.93
cpu  time for grad    0.01 s
wall time for grad    0.02 s
 E :    -50.42205607  G :  0.037970    pred/act E change: -0.869D-02 -0.273D-02
Maxdispl :   0.2421   ||displ|| :   0.4009   Lambda : -0.372D-02
Largest |displ|/coords:  0.2421 (   7)  0.1480 (   3)  0.0881 (   8)
................................................................................
.............................. CYCLE    6 ......................................
................................................................................
   1    -50.6591982 -0.506592E+02  0.237E-01    8.74       0.0  T
   2    -50.6594141 -0.215848E-03  0.170E-01    8.80       1.0  T
   3    -50.6595029 -0.888195E-04  0.679E-02    8.88       1.0  T
   4    -50.6595102 -0.726054E-05  0.186E-02    8.88       1.1  T
   5    -50.6595108 -0.587749E-06  0.506E-03    8.88       3.9  T
   6    -50.6595108 -0.436976E-07  0.244E-03    8.88       8.0  T
speedup  1.02
cpu  time for SCC    0.01 s
wall time for SCC    0.01 s
speedup  0.96
cpu  time for grad    0.01 s
wall time for grad    0.01 s
 E :    -50.42391709  G :  0.028133    pred/act E change: -0.233D-02 -0.186D-02
Maxdispl :   0.1246   ||displ|| :   0.2887   Lambda : -0.192D-02
Largest |displ|/coords:  0.1246 (  17)  0.1044 (   2)  0.1031 (  20)
................................................................................
.............................. CYCLE    7 ......................................
................................................................................
   1    -50.6607342 -0.506607E+02  0.283E-01    8.90       0.0  T
   2    -50.6607879 -0.537838E-04  0.214E-01    8.91       1.0  T
   3    -50.6608115 -0.235418E-04  0.430E-02    8.93       1.0  T
   4    -50.6608203 -0.876935E-05  0.166E-02    8.93       1.2  T
   5    -50.6608207 -0.460827E-06  0.322E-03    8.93       6.1  T
   6    -50.6608207 -0.113555E-07  0.202E-03    8.93       9.7  T
speedup  1.00
cpu  time for SCC    0.01 s
wall time for SCC    0.01 s
speedup  1.02
cpu  time for grad    0.01 s
wall time for grad    0.01 s
 E :    -50.42462778  G :  0.037759    pred/act E change: -0.216D-02 -0.711D-03
Maxdispl :   0.1227   ||displ|| :   0.2661   Lambda : -0.205D-02
Largest |displ|/coords:  0.1227 (   1)  0.1104 (  18)  0.0954 (   7)
................................................................................
.............................. CYCLE    8 ......................................
................................................................................
   1    -50.6652564 -0.506653E+02  0.234E-01    8.82       0.0  T
   2    -50.6653027 -0.462708E-04  0.175E-01    8.83       1.0  T
   3    -50.6653294 -0.267408E-04  0.385E-02    8.83       1.0  T
   4    -50.6653354 -0.599480E-05  0.166E-02    8.82       1.2  T
   5    -50.6653357 -0.342116E-06  0.338E-03    8.82       5.8  T
   6    -50.6653357 -0.130268E-07  0.204E-03    8.82       9.6  T
speedup  1.13
cpu  time for SCC    0.01 s
wall time for SCC    0.01 s
speedup  1.01
cpu  time for grad    0.01 s
wall time for grad    0.01 s
 E :    -50.42479925  G :  0.035975    pred/act E change: -0.104D-02 -0.171D-03
Maxdispl :   0.1162   ||displ|| :   0.2346   Lambda : -0.247D-02
Largest |displ|/coords:  0.1162 (   7)  0.0793 (   2)  0.0788 (  11)
................................................................................
.............................. CYCLE    9 ......................................
................................................................................
   1    -50.6614846 -0.506615E+02  0.196E-01    8.79       0.0  T
   2    -50.6615254 -0.408194E-04  0.147E-01    8.79       1.0  T
   3    -50.6615468 -0.214462E-04  0.358E-02    8.79       1.0  T
   4    -50.6615524 -0.553192E-05  0.125E-02    8.80       1.6  T
   5    -50.6615526 -0.279485E-06  0.396E-03    8.80       5.0  T
   6    -50.6615527 -0.198531E-07  0.204E-03    8.79       9.6  T
speedup  1.02
cpu  time for SCC    0.01 s
wall time for SCC    0.01 s
speedup  1.01
cpu  time for grad    0.01 s
wall time for grad    0.01 s
 E :    -50.42618131  G :  0.026820    pred/act E change: -0.110D-02 -0.138D-02
Maxdispl :   0.0999   ||displ|| :   0.2428   Lambda : -0.202D-02
Largest |displ|/coords:  0.0999 (  22)  0.0856 (   2)  0.0726 (  30)
................................................................................
.............................. CYCLE   10 ......................................
................................................................................
   1    -50.6645882 -0.506646E+02  0.226E-01    8.83       0.0  T
   2    -50.6647352 -0.146977E-03  0.168E-01    8.83       1.0  T
   3    -50.6648016 -0.664509E-04  0.675E-02    8.84       1.0  T
   4    -50.6648112 -0.953919E-05  0.216E-02    8.85       1.0  T
   5    -50.6648121 -0.889352E-06  0.626E-03    8.85       3.1  T
   6    -50.6648121 -0.363253E-07  0.312E-03    8.85       6.3  T
   7    -50.6648121 -0.189840E-07  0.987E-04    8.85      19.9  T
speedup  0.96
cpu  time for SCC    0.01 s
wall time for SCC    0.01 s
speedup  0.98
cpu  time for grad    0.02 s
wall time for grad    0.02 s
 E :    -50.42730011  G :  0.034745    pred/act E change: -0.130D-02 -0.112D-02
Maxdispl :   0.1161   ||displ|| :   0.3001   Lambda : -0.224D-02
Largest |displ|/coords:  0.1161 (   2)  0.1096 (   1)  0.0939 (   7)
................................................................................
.............................. CYCLE   11 ......................................
................................................................................
   1    -50.6704205 -0.506704E+02  0.230E-01    8.84       0.0  T
   2    -50.6705329 -0.112459E-03  0.172E-01    8.84       1.0  T
   3    -50.6705861 -0.531706E-04  0.633E-02    8.84       1.0  T
   4    -50.6705956 -0.945093E-05  0.222E-02    8.85       1.0  T
   5    -50.6705964 -0.804095E-06  0.587E-03    8.85       3.3  T
   6    -50.6705964 -0.506085E-07  0.320E-03    8.85       6.1  T
speedup  0.95
cpu  time for SCC    0.01 s
wall time for SCC    0.01 s
speedup  1.00
cpu  time for grad    0.01 s
wall time for grad    0.01 s
 E :    -50.42914138  G :  0.040739    pred/act E change: -0.107D-02 -0.184D-02
Maxdispl :   0.1899   ||displ|| :   0.4880   Lambda : -0.607D-02
Largest |displ|/coords:  0.1899 (   2)  0.1395 (  14)  0.1218 (  67)
................................................................................
.............................. CYCLE   12 ......................................
................................................................................
   1    -50.6874785 -0.506875E+02  0.387E-01    8.81       0.0  T
   2    -50.6876939 -0.215427E-03  0.289E-01    8.79       1.0  T
   3    -50.6878297 -0.135793E-03  0.901E-02    8.78       1.0  T
   4    -50.6878532 -0.235280E-04  0.349E-02    8.79       1.0  T
   5    -50.6878552 -0.198600E-05  0.104E-02    8.79       1.9  T
   6    -50.6878554 -0.218862E-06  0.570E-03    8.79       3.4  T
   7    -50.6878555 -0.427965E-07  0.131E-03    8.79      15.0  T
speedup  1.03
cpu  time for SCC    0.01 s
wall time for SCC    0.01 s
speedup  0.97
cpu  time for grad    0.01 s
wall time for grad    0.02 s
 E :    -50.43228693  G :  0.045897    pred/act E change: -0.122D-02 -0.315D-02
Maxdispl :   0.1319   ||displ|| :   0.2971   Lambda : -0.522D-02
Largest |displ|/coords:  0.1319 (  30)  0.1063 (  13)  0.0833 (  22)
................................................................................
.............................. CYCLE   13 ......................................
................................................................................
   1    -50.6890087 -0.506890E+02  0.229E-01    8.79       0.0  T
   2    -50.6891195 -0.110819E-03  0.165E-01    8.80       1.0  T
   3    -50.6891757 -0.561997E-04  0.634E-02    8.82       1.0  T
   4    -50.6891819 -0.616350E-05  0.172E-02    8.81       1.1  T
   5    -50.6891827 -0.791930E-06  0.595E-03    8.81       3.3  T
   6    -50.6891827 -0.651244E-07  0.308E-03    8.81       6.4  T
speedup  1.02
cpu  time for SCC    0.01 s
wall time for SCC    0.01 s
speedup  0.97
cpu  time for grad    0.01 s
wall time for grad    0.01 s
 E :    -50.43224153  G :  0.059538    pred/act E change: -0.375D-02  0.454D-04
Maxdispl :   0.1301   ||displ|| :   0.3692   Lambda : -0.102D-01
Largest |displ|/coords:  0.1301 (  13)  0.1195 (  16)  0.1122 (   2)
................................................................................
.............................. CYCLE   14 ......................................
................................................................................
   1    -50.6766343 -0.506766E+02  0.347E-01    8.83       0.0  T
   2    -50.6768197 -0.185429E-03  0.243E-01    8.84       1.0  T
   3    -50.6769150 -0.952945E-04  0.792E-02    8.84       1.0  T
   4    -50.6769279 -0.128374E-04  0.261E-02    8.85       1.0  T
   5    -50.6769288 -0.903037E-06  0.776E-03    8.85       2.5  T
   6    -50.6769289 -0.118068E-06  0.411E-03    8.85       4.8  T
   7    -50.6769289 -0.335523E-07  0.150E-03    8.85      13.0  T
speedup  0.97
cpu  time for SCC    0.01 s
wall time for SCC    0.01 s
speedup  0.95
cpu  time for grad    0.01 s
wall time for grad    0.02 s
 E :    -50.43239523  G :  0.059872    pred/act E change: -0.284D-02 -0.154D-03
Maxdispl :   0.2136   ||displ|| :   0.4289   Lambda : -0.133D-01
Largest |displ|/coords:  0.2136 (  16)  0.1383 (  13)  0.1118 (  14)
................................................................................
.............................. CYCLE   15 ......................................
................................................................................
   1    -50.7019076 -0.507019E+02  0.408E-01    8.87       0.0  T
   2    -50.7021291 -0.221519E-03  0.293E-01    8.87       1.0  T
   3    -50.7022397 -0.110604E-03  0.766E-02    8.87       1.0  T
   4    -50.7022600 -0.203263E-04  0.209E-02    8.86       1.0  T
   5    -50.7022607 -0.639594E-06  0.857E-03    8.86       2.3  T
   6    -50.7022607 -0.579416E-07  0.362E-03    8.86       5.4  T
   7    -50.7022608 -0.346936E-07  0.126E-03    8.86      15.6  T
speedup  0.87
cpu  time for SCC    0.01 s
wall time for SCC    0.01 s
speedup  0.98
cpu  time for grad    0.01 s
wall time for grad    0.02 s
 E :    -50.43341388  G :  0.076544    pred/act E change: -0.581D-02 -0.102D-02
Maxdispl :   0.1511   ||displ|| :   0.3422   Lambda : -0.105D-01
Largest |displ|/coords:  0.1511 (   2)  0.1381 (  16)  0.1167 (  14)
................................................................................
.............................. CYCLE   16 ......................................
................................................................................
   1    -50.6750621 -0.506751E+02  0.355E-01    8.81       0.0  T
   2    -50.6752265 -0.164364E-03  0.253E-01    8.81       1.0  T
   3    -50.6752969 -0.704618E-04  0.664E-02    8.80       1.0  T
   4    -50.6753122 -0.153059E-04  0.170E-02    8.81       1.2  T
   5    -50.6753127 -0.443541E-06  0.618E-03    8.81       3.2  T
   6    -50.6753128 -0.800385E-07  0.291E-03    8.81       6.7  T
   7    -50.6753128 -0.217630E-07  0.914E-04    8.81      21.5  T
speedup  1.06
cpu  time for SCC    0.01 s
wall time for SCC    0.01 s
speedup  0.99
cpu  time for grad    0.01 s
wall time for grad    0.02 s
 E :    -50.43482869  G :  0.053544    pred/act E change: -0.787D-02 -0.141D-02
Maxdispl :   0.1334   ||displ|| :   0.3784   Lambda : -0.889D-02
Largest |displ|/coords:  0.1334 (   6)  0.1262 (  19)  0.1221 (  26)
................................................................................
.............................. CYCLE   17 ......................................
................................................................................
   1    -50.7046077 -0.507046E+02  0.377E-01    8.90       0.0  T
   2    -50.7047565 -0.148798E-03  0.276E-01    8.90       1.0  T
   3    -50.7048493 -0.927857E-04  0.663E-02    8.90       1.0  T
   4    -50.7048653 -0.160346E-04  0.176E-02    8.90       1.1  T
   5    -50.7048659 -0.631816E-06  0.740E-03    8.90       2.6  T
   6    -50.7048660 -0.291824E-07  0.311E-03    8.90       6.3  T
   7    -50.7048660 -0.326324E-07  0.699E-04    8.90      28.1  T
speedup  1.04
cpu  time for SCC    0.01 s
wall time for SCC    0.01 s
speedup  0.97
cpu  time for grad    0.01 s
wall time for grad    0.02 s
 E :    -50.43482387  G :  0.070615    pred/act E change: -0.586D-02  0.482D-05
Maxdispl :   0.1333   ||displ|| :   0.3520   Lambda : -0.102D-01
Largest |displ|/coords:  0.1333 (   6)  0.1264 (  10)  0.1246 (   1)
................................................................................
.............................. CYCLE   18 ......................................
................................................................................
   1    -50.6815807 -0.506816E+02  0.339E-01    8.81       0.0  T
   2    -50.6816902 -0.109558E-03  0.251E-01    8.81       1.0  T
   3    -50.6817677 -0.774753E-04  0.592E-02    8.81       1.0  T
   4    -50.6817798 -0.121019E-04  0.162E-02    8.81       1.2  T
   5    -50.6817801 -0.311329E-06  0.701E-03    8.81       2.8  T
   6    -50.6817802 -0.981872E-07  0.294E-03    8.81       6.7  T
   7    -50.6817802 -0.177317E-07  0.805E-04    8.81      24.4  T
speedup  1.00
cpu  time for SCC    0.01 s
wall time for SCC    0.01 s
speedup  0.97
cpu  time for grad    0.01 s
wall time for grad    0.02 s
 E :    -50.43604482  G :  0.048638    pred/act E change: -0.508D-02 -0.122D-02
Maxdispl :   0.0837   ||displ|| :   0.1738   Lambda : -0.349D-02
Largest |displ|/coords:  0.0837 (   1)  0.0648 (  10)  0.0604 (  26)
................................................................................
.............................. CYCLE   19 ......................................
................................................................................
   1    -50.6909671 -0.506910E+02  0.158E-01    8.84       0.0  T
   2    -50.6909926 -0.254513E-04  0.117E-01    8.84       1.0  T
   3    -50.6910096 -0.169913E-04  0.286E-02    8.85       1.0  T
   4    -50.6910124 -0.288293E-05  0.793E-03    8.85       2.5  T
   5    -50.6910125 -0.892241E-07  0.353E-03    8.85       5.6  T
   6    -50.6910125 -0.144558E-07  0.160E-03    8.85      12.3  T
speedup  1.00
cpu  time for SCC    0.01 s
wall time for SCC    0.01 s
speedup  0.97
cpu  time for grad    0.01 s
wall time for grad    0.01 s
 E :    -50.43805039  G :  0.017351    pred/act E change: -0.573D-02 -0.201D-02
Maxdispl :   0.0907   ||displ|| :   0.2009   Lambda : -0.118D-02
Largest |displ|/coords:  0.0907 (   7)  0.0890 (  26)  0.0567 (   3)
................................................................................
.............................. CYCLE   20 ......................................
................................................................................
   1    -50.7006988 -0.507007E+02  0.153E-01    8.85       0.0  T
   2    -50.7007417 -0.429530E-04  0.110E-01    8.86       1.0  T
   3    -50.7007659 -0.241826E-04  0.364E-02    8.86       1.0  T
   4    -50.7007697 -0.373940E-05  0.111E-02    8.86       1.8  T
   5    -50.7007698 -0.173127E-06  0.425E-03    8.86       4.6  T
   6    -50.7007699 -0.280471E-07  0.201E-03    8.86       9.8  T
   7    -50.7007699 -0.553710E-08  0.703E-04    8.86      27.9  T
speedup  1.04
cpu  time for SCC    0.01 s
wall time for SCC    0.01 s
speedup  1.05
cpu  time for grad    0.02 s
wall time for grad    0.02 s
 E :    -50.43797730  G :  0.033347    pred/act E change: -0.180D-02  0.731D-04
Maxdispl :   0.0510   ||displ|| :   0.1296   Lambda : -0.151D-02
Largest |displ|/coords:  0.0510 (   3)  0.0501 (   7)  0.0482 (   1)
................................................................................
.............................. CYCLE   21 ......................................
................................................................................
   1    -50.6974250 -0.506974E+02  0.996E-02    8.84       0.0  T
   2    -50.6974358 -0.108662E-04  0.729E-02    8.84       1.0  T
   3    -50.6974419 -0.603888E-05  0.190E-02    8.84       1.0  T
   4    -50.6974431 -0.118773E-05  0.521E-03    8.84       3.8  T
   5    -50.6974431 -0.485340E-07  0.208E-03    8.84       9.4  T
speedup  0.83
cpu  time for SCC    0.00 s
wall time for SCC    0.00 s
speedup  0.97
cpu  time for grad    0.01 s
wall time for grad    0.01 s
 E :    -50.43891541  G :  0.017799    pred/act E change: -0.614D-03 -0.938D-03
Maxdispl :   0.0699   ||displ|| :   0.1517   Lambda : -0.800D-03
Largest |displ|/coords:  0.0699 (  26)  0.0531 (   4)  0.0475 (  25)
................................................................................
.............................. CYCLE   22 ......................................
................................................................................
   1    -50.6970141 -0.506970E+02  0.108E-01    8.82       0.0  T
   2    -50.6970395 -0.254520E-04  0.773E-02    8.82       1.0  T
   3    -50.6970507 -0.111940E-04  0.242E-02    8.82       1.0  T
   4    -50.6970527 -0.204092E-05  0.577E-03    8.82       3.4  T
   5    -50.6970528 -0.502768E-07  0.194E-03    8.82      10.1  T
   6    -50.6970528 -0.454946E-08  0.107E-03    8.82      18.4  T
speedup  1.00
cpu  time for SCC    0.01 s
wall time for SCC    0.01 s
speedup  1.03
cpu  time for grad    0.01 s
wall time for grad    0.01 s
 E :    -50.43949069  G :  0.012479    pred/act E change: -0.768D-03 -0.575D-03
Maxdispl :   0.1808   ||displ|| :   0.3704   Lambda : -0.128D-02
Largest |displ|/coords:  0.1808 (  26)  0.1163 (   5)  0.1103 (  25)
................................................................................
.............................. CYCLE   23 ......................................
................................................................................
   1    -50.6944007 -0.506944E+02  0.273E-01    8.76       0.0  T
   2    -50.6945870 -0.186264E-03  0.196E-01    8.76       1.0  T
   3    -50.6946624 -0.754200E-04  0.644E-02    8.76       1.0  T
   4    -50.6946764 -0.140191E-04  0.131E-02    8.76       1.5  T
   5    -50.6946767 -0.301813E-06  0.525E-03    8.76       3.7  T
   6    -50.6946767 -0.417027E-07  0.291E-03    8.76       6.7  T
   7    -50.6946767 -0.989350E-08  0.657E-04    8.76      29.9  T
speedup  1.01
cpu  time for SCC    0.01 s
wall time for SCC    0.01 s
speedup  1.05
cpu  time for grad    0.02 s
wall time for grad    0.02 s
 E :    -50.44016253  G :  0.018847    pred/act E change: -0.409D-03 -0.672D-03
Maxdispl :   0.1001   ||displ|| :   0.2077   Lambda : -0.764D-03
Largest |displ|/coords:  0.1001 (   4)  0.0952 (  26)  0.0526 (   8)
................................................................................
.............................. CYCLE   24 ......................................
................................................................................
   1    -50.7010855 -0.507011E+02  0.132E-01    8.76       0.0  T
   2    -50.7011301 -0.445818E-04  0.938E-02    8.76       1.0  T
   3    -50.7011503 -0.202219E-04  0.313E-02    8.76       1.0  T
   4    -50.7011535 -0.316477E-05  0.685E-03    8.76       2.9  T
   5    -50.7011535 -0.661181E-07  0.265E-03    8.76       7.4  T
   6    -50.7011535 -0.856841E-08  0.123E-03    8.76      16.0  T
speedup  1.02
cpu  time for SCC    0.01 s
wall time for SCC    0.01 s
speedup  0.97
cpu  time for grad    0.01 s
wall time for grad    0.01 s
 E :    -50.44061707  G :  0.015149    pred/act E change: -0.729D-03 -0.455D-03
Maxdispl :   0.1001   ||displ|| :   0.1894   Lambda : -0.550D-03
Largest |displ|/coords:  0.1001 (   4)  0.0793 (   5)  0.0743 (  26)
................................................................................
.............................. CYCLE   25 ......................................
................................................................................
   1    -50.7034617 -0.507035E+02  0.112E-01    8.78       0.0  T
   2    -50.7034844 -0.226977E-04  0.812E-02    8.77       1.0  T
   3    -50.7034943 -0.985125E-05  0.232E-02    8.77       1.0  T
   4    -50.7034964 -0.208570E-05  0.499E-03    8.77       3.9  T
   5    -50.7034964 -0.328238E-07  0.209E-03    8.77       9.4  T
   6    -50.7034964 -0.536170E-08  0.101E-03    8.77      19.4  T
speedup  0.98
cpu  time for SCC    0.01 s
wall time for SCC    0.01 s
speedup  1.01
cpu  time for grad    0.01 s
wall time for grad    0.01 s
 E :    -50.44099862  G :  0.015457    pred/act E change: -0.398D-03 -0.382D-03
Maxdispl :   0.1877   ||displ|| :   0.3493   Lambda : -0.963D-03
Largest |displ|/coords:  0.1877 (   4)  0.1444 (  26)  0.0952 (  10)

generating ANC from model Hessian ...
 Shifting diagonal of input Hessian by   4.741171035607620E-003
 Lowest  eigenvalues of input Hessian
   -0.000000   -0.000000   -0.000000    0.000000    0.000000    0.000000
    0.005000    0.005134    0.005698    0.005857    0.007241    0.008015
    0.008374    0.008713    0.009205    0.009703    0.011089    0.012219
 Highest eigenvalues
    1.377268    1.390050    1.398244    2.548632    3.307026    3.781516
 
cpu  time for ANC gen    0.03 s
wall time for ANC gen    0.03 s
................................................................................
.............................. CYCLE   26 ......................................
................................................................................
   1    -50.7070278 -0.507070E+02  0.230E-01    8.82       0.0  T
   2    -50.7070872 -0.594145E-04  0.169E-01    8.82       1.0  T
   3    -50.7071169 -0.296909E-04  0.406E-02    8.82       1.0  T
   4    -50.7071244 -0.755115E-05  0.952E-03    8.82       2.1  T
   5    -50.7071245 -0.116646E-06  0.429E-03    8.82       4.6  T
   6    -50.7071246 -0.220960E-07  0.198E-03    8.82       9.9  T
   7    -50.7071246 -0.567106E-08  0.546E-04    8.82      35.9  T
   8    -50.7071246 -0.700020E-09  0.149E-04    8.82     131.9  T
speedup  1.01
cpu  time for SCC    0.01 s
wall time for SCC    0.01 s
speedup  1.00
cpu  time for grad    0.02 s
wall time for grad    0.02 s
 E :    -50.44162158  G :  0.024010    pred/act E change:  0.000D+00 -0.623D-03
Maxdispl :   0.0728   ||displ|| :   0.1445   Lambda : -0.968D-03
Largest |displ|/coords:  0.0728 (  19)  0.0513 (   4)  0.0425 (   1)
................................................................................
.............................. CYCLE   27 ......................................
................................................................................
   1    -50.7075634 -0.507076E+02  0.990E-02    8.84       0.0  T
   2    -50.7075687 -0.528644E-05  0.733E-02    8.84       1.0  T
   3    -50.7075712 -0.248560E-05  0.145E-02    8.84       1.4  T
   4    -50.7075720 -0.753150E-06  0.353E-03    8.84       5.6  T
   5    -50.7075720 -0.280801E-07  0.139E-03    8.84      14.1  T
speedup  1.00
cpu  time for SCC    0.01 s
wall time for SCC    0.01 s
speedup  1.04
cpu  time for grad    0.01 s
wall time for grad    0.01 s
 E :    -50.44230162  G :  0.016945    pred/act E change:  0.000D+00 -0.680D-03
Maxdispl :   0.0881   ||displ|| :   0.2208   Lambda : -0.120D-02
Largest |displ|/coords:  0.0881 (   3)  0.0697 (   4)  0.0597 (  10)
................................................................................
.............................. CYCLE   28 ......................................
................................................................................
   1    -50.7082585 -0.507083E+02  0.149E-01    8.84       0.0  T
   2    -50.7082886 -0.301279E-04  0.110E-01    8.84       1.0  T
   3    -50.7083056 -0.170314E-04  0.330E-02    8.84       1.0  T
   4    -50.7083089 -0.323902E-05  0.733E-03    8.84       2.7  T
   5    -50.7083090 -0.144177E-06  0.306E-03    8.84       6.4  T
   6    -50.7083090 -0.719838E-08  0.141E-03    8.84      13.9  T
   7    -50.7083090 -0.380271E-08  0.368E-04    8.84      53.4  T
speedup  1.01
cpu  time for SCC    0.01 s
wall time for SCC    0.01 s
speedup  1.02
cpu  time for grad    0.02 s
wall time for grad    0.02 s
 E :    -50.44303869  G :  0.019679    pred/act E change: -0.494D-03 -0.737D-03
Maxdispl :   0.1319   ||displ|| :   0.2900   Lambda : -0.146D-02
Largest |displ|/coords:  0.1319 (   8)  0.0927 (   4)  0.0816 (  12)
................................................................................
.............................. CYCLE   29 ......................................
................................................................................
   1    -50.7103010 -0.507103E+02  0.171E-01    8.83       0.0  T
   2    -50.7103608 -0.597229E-04  0.126E-01    8.83       1.0  T
   3    -50.7103885 -0.277245E-04  0.414E-02    8.83       1.0  T
   4    -50.7103932 -0.467306E-05  0.709E-03    8.83       2.8  T
   5    -50.7103933 -0.118406E-06  0.324E-03    8.83       6.1  T
   6    -50.7103933 -0.793860E-08  0.152E-03    8.83      12.9  T
   7    -50.7103933 -0.379596E-08  0.436E-04    8.83      45.0  T
speedup  0.92
cpu  time for SCC    0.01 s
wall time for SCC    0.01 s
speedup  0.98
cpu  time for grad    0.01 s
wall time for grad    0.02 s
 E :    -50.44385123  G :  0.027565    pred/act E change: -0.627D-03 -0.813D-03
Maxdispl :   0.0987   ||displ|| :   0.2421   Lambda : -0.148D-02
Largest |displ|/coords:  0.0987 (   4)  0.0866 (   3)  0.0739 (  28)
................................................................................
.............................. CYCLE   30 ......................................
................................................................................
   1    -50.7136809 -0.507137E+02  0.137E-01    8.82       0.0  T
   2    -50.7137082 -0.272918E-04  0.104E-01    8.82       1.0  T
   3    -50.7137275 -0.193138E-04  0.288E-02    8.82       1.0  T
   4    -50.7137309 -0.341901E-05  0.651E-03    8.82       3.0  T
   5    -50.7137310 -0.544172E-07  0.285E-03    8.82       6.9  T
   6    -50.7137310 -0.359805E-08  0.109E-03    8.82      17.9  T
speedup  0.97
cpu  time for SCC    0.01 s
wall time for SCC    0.01 s
speedup  1.01
cpu  time for grad    0.01 s
wall time for grad    0.01 s
 E :    -50.44501814  G :  0.027484    pred/act E change: -0.794D-03 -0.117D-02
Maxdispl :   0.1386   ||displ|| :   0.3370   Lambda : -0.304D-02
Largest |displ|/coords:  0.1386 (  28)  0.0932 (  14)  0.0872 (   3)
................................................................................
.............................. CYCLE   31 ......................................
................................................................................
   1    -50.7198632 -0.507199E+02  0.176E-01    8.80       0.0  T
   2    -50.7199037 -0.404826E-04  0.133E-01    8.80       1.0  T
   3    -50.7199376 -0.338461E-04  0.362E-02    8.80       1.0  T
   4    -50.7199423 -0.468912E-05  0.979E-03    8.80       2.0  T
   5    -50.7199424 -0.134487E-06  0.418E-03    8.80       4.7  T
   6    -50.7199424 -0.124663E-07  0.180E-03    8.80      10.9  T
speedup  1.03
cpu  time for SCC    0.01 s
wall time for SCC    0.01 s
speedup  1.04
cpu  time for grad    0.01 s
wall time for grad    0.01 s
 E :    -50.44688671  G :  0.013361    pred/act E change: -0.783D-03 -0.187D-02
Maxdispl :   0.0632   ||displ|| :   0.1774   Lambda : -0.680D-03
Largest |displ|/coords:  0.0632 (  14)  0.0528 (   4)  0.0518 (   8)
................................................................................
.............................. CYCLE   32 ......................................
................................................................................
   1    -50.7216973 -0.507217E+02  0.105E-01    8.79       0.0  T
   2    -50.7217052 -0.792754E-05  0.783E-02    8.79       1.0  T
   3    -50.7217107 -0.549952E-05  0.160E-02    8.79       1.2  T
   4    -50.7217117 -0.949650E-06  0.411E-03    8.79       4.8  T
   5    -50.7217117 -0.293170E-07  0.175E-03    8.79      11.2  T
   6    -50.7217117 -0.351304E-08  0.729E-04    8.79      26.9  T
speedup  1.03
cpu  time for SCC    0.01 s
wall time for SCC    0.01 s
speedup  1.03
cpu  time for grad    0.01 s
wall time for grad    0.01 s
 E :    -50.44732965  G :  0.008308    pred/act E change: -0.169D-02 -0.443D-03
Maxdispl :   0.0761   ||displ|| :   0.1634   Lambda : -0.408D-03
Largest |displ|/coords:  0.0761 (  14)  0.0547 (   2)  0.0535 (  13)
................................................................................
.............................. CYCLE   33 ......................................
................................................................................
   1    -50.7222187 -0.507222E+02  0.933E-02    8.79       0.0  T
   2    -50.7222220 -0.331986E-05  0.693E-02    8.79       1.0  T
   3    -50.7222254 -0.344357E-05  0.121E-02    8.79       1.6  T
   4    -50.7222257 -0.253522E-06  0.274E-03    8.79       7.1  T
   5    -50.7222257 -0.128821E-07  0.131E-03    8.79      14.9  T
speedup  0.89
cpu  time for SCC    0.01 s
wall time for SCC    0.01 s
speedup  0.99
cpu  time for grad    0.01 s
wall time for grad    0.01 s
 E :    -50.44750575  G :  0.005759    pred/act E change: -0.351D-03 -0.176D-03
Maxdispl :   0.0521   ||displ|| :   0.1105   Lambda : -0.193D-03
Largest |displ|/coords:  0.0521 (  10)  0.0475 (  11)  0.0362 (   2)
................................................................................
.............................. CYCLE   34 ......................................
................................................................................
   1    -50.7224938 -0.507225E+02  0.818E-02    8.79       0.0  T
   2    -50.7224959 -0.211812E-05  0.613E-02    8.79       1.0  T
   3    -50.7224975 -0.157634E-05  0.902E-03    8.79       2.2  T
   4    -50.7224978 -0.293045E-06  0.226E-03    8.79       8.7  T
   5    -50.7224978 -0.713972E-08  0.101E-03    8.79      19.4  T
speedup  1.06
cpu  time for SCC    0.00 s
wall time for SCC    0.00 s
speedup  1.04
cpu  time for grad    0.01 s
wall time for grad    0.01 s
 E :    -50.44760789  G :  0.005039    pred/act E change: -0.210D-03 -0.102D-03
Maxdispl :   0.0337   ||displ|| :   0.0720   Lambda : -0.870D-04
Largest |displ|/coords:  0.0337 (   2)  0.0241 (  11)  0.0239 (  14)
................................................................................
.............................. CYCLE   35 ......................................
................................................................................
   1    -50.7233060 -0.507233E+02  0.493E-02    8.79       0.0  T
   2    -50.7233068 -0.739084E-06  0.370E-02    8.79       1.0  T
   3    -50.7233074 -0.658924E-06  0.533E-03    8.79       3.7  T
   4    -50.7233075 -0.823633E-07  0.152E-03    8.79      12.9  T
   5    -50.7233075 -0.276721E-08  0.602E-04    8.79      32.6  T
speedup  1.06
cpu  time for SCC    0.00 s
wall time for SCC    0.00 s
speedup  0.98
cpu  time for grad    0.01 s
wall time for grad    0.01 s
 E :    -50.44765408  G :  0.004357    pred/act E change: -0.977D-04 -0.462D-04
Maxdispl :   0.0414   ||displ|| :   0.0869   Lambda : -0.795D-04
Largest |displ|/coords:  0.0414 (   2)  0.0312 (  12)  0.0243 (  14)
................................................................................
.............................. CYCLE   36 ......................................
................................................................................
   1    -50.7228960 -0.507229E+02  0.563E-02    8.79       0.0  T
   2    -50.7228974 -0.145979E-05  0.417E-02    8.79       1.0  T
   3    -50.7228982 -0.791875E-06  0.751E-03    8.79       2.6  T
   4    -50.7228984 -0.205747E-06  0.200E-03    8.79       9.8  T
   5    -50.7228984 -0.573062E-08  0.661E-04    8.79      29.7  T
speedup  1.04
cpu  time for SCC    0.01 s
wall time for SCC    0.00 s
speedup  1.05
cpu  time for grad    0.01 s
wall time for grad    0.01 s
 E :    -50.44770363  G :  0.003246    pred/act E change: -0.437D-04 -0.495D-04
Maxdispl :   0.0311   ||displ|| :   0.0674   Lambda : -0.381D-04
Largest |displ|/coords:  0.0311 (   2)  0.0244 (  14)  0.0240 (   1)
................................................................................
.............................. CYCLE   37 ......................................
................................................................................
   1    -50.7230786 -0.507231E+02  0.453E-02    8.79       0.0  T
   2    -50.7230793 -0.664941E-06  0.337E-02    8.79       1.0  T
   3    -50.7230798 -0.478323E-06  0.508E-03    8.79       3.9  T
   4    -50.7230798 -0.869076E-07  0.149E-03    8.79      13.1  T
   5    -50.7230798 -0.313395E-08  0.506E-04    8.79      38.7  T
   6    -50.7230798 -0.267271E-09  0.259E-04    8.79      75.7  T
speedup  1.05
cpu  time for SCC    0.01 s
wall time for SCC    0.01 s
speedup  1.01
cpu  time for grad    0.01 s
wall time for grad    0.01 s
 E :    -50.44772975  G :  0.002345    pred/act E change: -0.400D-04 -0.261D-04
Maxdispl :   0.0375   ||displ|| :   0.0760   Lambda : -0.272D-04
Largest |displ|/coords:  0.0375 (   2)  0.0305 (   3)  0.0281 (   1)
................................................................................
.............................. CYCLE   38 ......................................
................................................................................
   1    -50.7230389 -0.507230E+02  0.469E-02    8.79       0.0  T
   2    -50.7230395 -0.606698E-06  0.351E-02    8.79       1.0  T
   3    -50.7230400 -0.517795E-06  0.490E-03    8.80       4.0  T
   4    -50.7230401 -0.762839E-07  0.147E-03    8.80      13.3  T
   5    -50.7230401 -0.354002E-08  0.524E-04    8.80      37.4  T
   6    -50.7230401 -0.309697E-09  0.262E-04    8.80      75.0  T
speedup  1.03
cpu  time for SCC    0.01 s
wall time for SCC    0.01 s
speedup  1.01
cpu  time for grad    0.01 s
wall time for grad    0.01 s
 E :    -50.44774852  G :  0.002349    pred/act E change: -0.191D-04 -0.188D-04
Maxdispl :   0.0304   ||displ|| :   0.0645   Lambda : -0.211D-04
Largest |displ|/coords:  0.0304 (   3)  0.0246 (   2)  0.0235 (   1)
................................................................................
.............................. CYCLE   39 ......................................
................................................................................
   1    -50.7234019 -0.507234E+02  0.339E-02    8.80       0.0  T
   2    -50.7234023 -0.432588E-06  0.255E-02    8.80       1.0  T
   3    -50.7234027 -0.338464E-06  0.374E-03    8.81       5.2  T
   4    -50.7234027 -0.609380E-07  0.133E-03    8.81      14.8  T
   5    -50.7234027 -0.235206E-08  0.468E-04    8.81      41.9  T
   6    -50.7234027 -0.288040E-09  0.231E-04    8.81      84.9  T
speedup  0.89
cpu  time for SCC    0.01 s
wall time for SCC    0.01 s
speedup  1.02
cpu  time for grad    0.01 s
wall time for grad    0.01 s
 E :    -50.44776322  G :  0.001950    pred/act E change: -0.137D-04 -0.147D-04
Maxdispl :   0.0313   ||displ|| :   0.0751   Lambda : -0.178D-04
Largest |displ|/coords:  0.0313 (   3)  0.0301 (   1)  0.0239 (  14)
................................................................................
.............................. CYCLE   40 ......................................
................................................................................
   1    -50.7233136 -0.507233E+02  0.406E-02    8.81       0.0  T
   2    -50.7233140 -0.376692E-06  0.306E-02    8.81       1.0  T
   3    -50.7233144 -0.423265E-06  0.350E-03    8.81       5.6  T
   4    -50.7233145 -0.305258E-07  0.133E-03    8.81      14.8  T
   5    -50.7233145 -0.230638E-08  0.480E-04    8.81      40.9  T
   6    -50.7233145 -0.378321E-09  0.254E-04    8.81      77.3  T
speedup  0.89
cpu  time for SCC    0.00 s
wall time for SCC    0.01 s
speedup  1.02
cpu  time for grad    0.01 s
wall time for grad    0.01 s
 E :    -50.44777535  G :  0.001711    pred/act E change: -0.106D-04 -0.121D-04
Maxdispl :   0.0267   ||displ|| :   0.0611   Lambda : -0.134D-04
Largest |displ|/coords:  0.0267 (   3)  0.0227 (   1)  0.0185 (  11)
................................................................................
.............................. CYCLE   41 ......................................
................................................................................
   1    -50.7235548 -0.507236E+02  0.285E-02    8.82       0.0  T
   2    -50.7235551 -0.320355E-06  0.213E-02    8.82       1.0  T
   3    -50.7235553 -0.237949E-06  0.317E-03    8.82       6.2  T
   4    -50.7235554 -0.393672E-07  0.124E-03    8.82      15.9  T
   5    -50.7235554 -0.236163E-08  0.408E-04    8.82      48.1  T
   6    -50.7235554 -0.243297E-09  0.201E-04    8.82      97.4  T
speedup  1.05
cpu  time for SCC    0.01 s
wall time for SCC    0.01 s
speedup  1.01
cpu  time for grad    0.01 s
wall time for grad    0.01 s
 E :    -50.44778398  G :  0.001319    pred/act E change: -0.893D-05 -0.863D-05
Maxdispl :   0.0245   ||displ|| :   0.0507   Lambda : -0.734D-05
Largest |displ|/coords:  0.0245 (   1)  0.0238 (   3)  0.0135 (  14)
................................................................................
.............................. CYCLE   42 ......................................
................................................................................
   1    -50.7233260 -0.507233E+02  0.248E-02    8.82       0.0  T
   2    -50.7233261 -0.148202E-06  0.185E-02    8.82       1.1  T
   3    -50.7233262 -0.127984E-06  0.226E-03    8.82       8.7  T
   4    -50.7233263 -0.162569E-07  0.841E-04    8.82      23.3  T
   5    -50.7233263 -0.834540E-09  0.279E-04    8.82      70.2  T
speedup  1.04
cpu  time for SCC    0.01 s
wall time for SCC    0.00 s
speedup  1.01
cpu  time for grad    0.01 s
wall time for grad    0.01 s
 E :    -50.44778885  G :  0.001114    pred/act E change: -0.674D-05 -0.487D-05
Maxdispl :   0.0193   ||displ|| :   0.0354   Lambda : -0.493D-05
Largest |displ|/coords:  0.0193 (   1)  0.0185 (   3)  0.0104 (   8)
................................................................................
.............................. CYCLE   43 ......................................
................................................................................
   1    -50.7233695 -0.507234E+02  0.161E-02    8.82       0.0  T
   2    -50.7233696 -0.901181E-07  0.119E-02    8.82       1.6  T
   3    -50.7233697 -0.619582E-07  0.174E-03    8.82      11.3  T
   4    -50.7233697 -0.108903E-07  0.620E-04    8.82      31.6  T
   5    -50.7233697 -0.448132E-09  0.189E-04    8.82     103.8  T
speedup  1.00
cpu  time for SCC    0.00 s
wall time for SCC    0.00 s
speedup  1.00
cpu  time for grad    0.01 s
wall time for grad    0.01 s
 E :    -50.44779215  G :  0.000881    pred/act E change: -0.368D-05 -0.330D-05
Maxdispl :   0.0293   ||displ|| :   0.0454   Lambda : -0.395D-05
Largest |displ|/coords:  0.0293 (   1)  0.0261 (   3)  0.0095 (   6)
................................................................................
.............................. CYCLE   44 ......................................
................................................................................
   1    -50.7232258 -0.507232E+02  0.191E-02    8.81       0.0  T
   2    -50.7232258 -0.951083E-07  0.142E-02    8.81       1.4  T
   3    -50.7232259 -0.604002E-07  0.178E-03    8.81      11.0  T
   4    -50.7232259 -0.138472E-07  0.594E-04    8.81      33.0  T
   5    -50.7232259 -0.471580E-09  0.199E-04    8.81      98.6  T
speedup  1.04
cpu  time for SCC    0.00 s
wall time for SCC    0.00 s
speedup  1.01
cpu  time for grad    0.01 s
wall time for grad    0.01 s
 E :    -50.44779494  G :  0.001090    pred/act E change: -0.247D-05 -0.279D-05
Maxdispl :   0.0439   ||displ|| :   0.0623   Lambda : -0.528D-05
Largest |displ|/coords:  0.0439 (   1)  0.0359 (   3)  0.0142 (   6)
................................................................................
.............................. CYCLE   45 ......................................
................................................................................
   1    -50.7233005 -0.507233E+02  0.238E-02    8.81       0.0  T
   2    -50.7233007 -0.128151E-06  0.177E-02    8.81       1.1  T
   3    -50.7233008 -0.982012E-07  0.218E-03    8.81       9.0  T
   4    -50.7233008 -0.167144E-07  0.818E-04    8.81      24.0  T
   5    -50.7233008 -0.824521E-09  0.266E-04    8.81      73.8  T
speedup  1.02
cpu  time for SCC    0.00 s
wall time for SCC    0.00 s
speedup  1.01
cpu  time for grad    0.01 s
wall time for grad    0.01 s
 E :    -50.44779864  G :  0.000939    pred/act E change: -0.198D-05 -0.370D-05
Maxdispl :   0.0643   ||displ|| :   0.0899   Lambda : -0.591D-05
Largest |displ|/coords:  0.0643 (   1)  0.0495 (   3)  0.0192 (   6)
................................................................................
.............................. CYCLE   46 ......................................
................................................................................
   1    -50.7232191 -0.507232E+02  0.352E-02    8.81       0.0  T
   2    -50.7232193 -0.190847E-06  0.263E-02    8.81       1.0  T
   3    -50.7232194 -0.163814E-06  0.283E-03    8.81       6.9  T
   4    -50.7232194 -0.229929E-07  0.105E-03    8.81      18.7  T
   5    -50.7232194 -0.133357E-08  0.349E-04    8.81      56.2  T
   6    -50.7232194 -0.202981E-09  0.201E-04    8.81      97.5  T
speedup  1.03
cpu  time for SCC    0.01 s
wall time for SCC    0.01 s
speedup  1.01
cpu  time for grad    0.01 s
wall time for grad    0.01 s
 E :    -50.44780289  G :  0.001351    pred/act E change: -0.265D-05 -0.425D-05
Maxdispl :   0.0794   ||displ|| :   0.1047   Lambda : -0.781D-05
Largest |displ|/coords:  0.0794 (   1)  0.0547 (   3)  0.0181 (   6)
................................................................................
.............................. CYCLE   47 ......................................
................................................................................
   1    -50.7234362 -0.507234E+02  0.398E-02    8.81       0.0  T
   2    -50.7234364 -0.205517E-06  0.296E-02    8.82       1.0  T
   3    -50.7234366 -0.202411E-06  0.326E-03    8.82       6.0  T
   4    -50.7234366 -0.196987E-07  0.119E-03    8.82      16.5  T
   5    -50.7234366 -0.186849E-08  0.384E-04    8.82      51.0  T
   6    -50.7234366 -0.195939E-09  0.236E-04    8.82      83.0  T
speedup  0.91
cpu  time for SCC    0.00 s
wall time for SCC    0.01 s
speedup  0.97
cpu  time for grad    0.01 s
wall time for grad    0.01 s
 E :    -50.44780849  G :  0.001331    pred/act E change: -0.298D-05 -0.560D-05
Maxdispl :   0.0912   ||displ|| :   0.1200   Lambda : -0.780D-05
Largest |displ|/coords:  0.0912 (   1)  0.0610 (   3)  0.0234 (   2)
................................................................................
.............................. CYCLE   48 ......................................
................................................................................
   1    -50.7234213 -0.507234E+02  0.494E-02    8.82       0.0  T
   2    -50.7234216 -0.307537E-06  0.368E-02    8.82       1.0  T
   3    -50.7234219 -0.298928E-06  0.423E-03    8.82       4.6  T
   4    -50.7234219 -0.285662E-07  0.157E-03    8.82      12.5  T
   5    -50.7234219 -0.292403E-08  0.445E-04    8.82      44.1  T
   6    -50.7234219 -0.227459E-09  0.289E-04    8.82      67.9  T
speedup  0.89
cpu  time for SCC    0.00 s
wall time for SCC    0.01 s
speedup  0.95
cpu  time for grad    0.01 s
wall time for grad    0.01 s
 E :    -50.44781449  G :  0.001476    pred/act E change: -0.395D-05 -0.600D-05
Maxdispl :   0.1182   ||displ|| :   0.1504   Lambda : -0.132D-04
Largest |displ|/coords:  0.1182 (   1)  0.0700 (   3)  0.0337 (   2)
................................................................................
.............................. CYCLE   49 ......................................
................................................................................
   1    -50.7238338 -0.507238E+02  0.648E-02    8.82       0.0  T
   2    -50.7238344 -0.689079E-06  0.480E-02    8.82       1.0  T
   3    -50.7238350 -0.581290E-06  0.618E-03    8.82       3.2  T
   4    -50.7238351 -0.758883E-07  0.238E-03    8.82       8.2  T
   5    -50.7238351 -0.641178E-08  0.647E-04    8.82      30.3  T
   6    -50.7238351 -0.539352E-09  0.421E-04    8.82      46.6  T
speedup  1.02
cpu  time for SCC    0.01 s
wall time for SCC    0.01 s
speedup  1.01
cpu  time for grad    0.01 s
wall time for grad    0.01 s
 E :    -50.44782329  G :  0.001214    pred/act E change: -0.395D-05 -0.879D-05
Maxdispl :   0.1920   ||displ|| :   0.2545   Lambda : -0.132D-04
Largest |displ|/coords:  0.1920 (   1)  0.1303 (   3)  0.0570 (   2)
................................................................................
.............................. CYCLE   50 ......................................
................................................................................
   1    -50.7227007 -0.507227E+02  0.109E-01    8.81       0.0  T
   2    -50.7227026 -0.187979E-05  0.806E-02    8.81       1.0  T
   3    -50.7227041 -0.148155E-05  0.998E-03    8.81       2.0  T
   4    -50.7227043 -0.232816E-06  0.375E-03    8.81       5.2  T
   5    -50.7227043 -0.145987E-07  0.105E-03    8.81      18.7  T
   6    -50.7227043 -0.164004E-08  0.660E-04    8.81      29.7  T
   7    -50.7227043 -0.614541E-09  0.187E-04    8.81     104.8  T
speedup  0.92
cpu  time for SCC    0.01 s
wall time for SCC    0.01 s
speedup  0.96
cpu  time for grad    0.01 s
wall time for grad    0.02 s
 E :    -50.44782281  G :  0.004068    pred/act E change: -0.674D-05  0.479D-06
Maxdispl :   0.0403   ||displ|| :   0.0650   Lambda : -0.295D-04
Largest |displ|/coords:  0.0403 (   1)  0.0319 (   3)  0.0186 (   6)
................................................................................
.............................. CYCLE   51 ......................................
................................................................................
   1    -50.7238918 -0.507239E+02  0.268E-02    8.82       0.0  T
   2    -50.7238921 -0.286687E-06  0.199E-02    8.82       1.0  T
   3    -50.7238923 -0.121526E-06  0.328E-03    8.82       6.0  T
   4    -50.7238923 -0.511640E-07  0.915E-04    8.82      21.4  T
   5    -50.7238923 -0.931109E-09  0.285E-04    8.82      68.9  T
speedup  0.96
cpu  time for SCC    0.00 s
wall time for SCC    0.01 s
speedup  0.95
cpu  time for grad    0.01 s
wall time for grad    0.01 s
 E :    -50.44783812  G :  0.001213    pred/act E change: -0.701D-05 -0.153D-04
Maxdispl :   0.0830   ||displ|| :   0.1124   Lambda : -0.961D-05
Largest |displ|/coords:  0.0830 (   1)  0.0533 (   3)  0.0332 (   2)
................................................................................
.............................. CYCLE   52 ......................................
................................................................................
   1    -50.7239575 -0.507240E+02  0.499E-02    8.82       0.0  T
   2    -50.7239580 -0.428466E-06  0.369E-02    8.82       1.0  T
   3    -50.7239583 -0.364872E-06  0.479E-03    8.82       4.1  T
   4    -50.7239584 -0.457165E-07  0.187E-03    8.82      10.5  T
   5    -50.7239584 -0.405407E-08  0.509E-04    8.82      38.5  T
   6    -50.7239584 -0.372026E-09  0.331E-04    8.82      59.2  T
speedup  0.85
cpu  time for SCC    0.00 s
wall time for SCC    0.01 s
speedup  0.95
cpu  time for grad    0.01 s
wall time for grad    0.01 s
 E :    -50.44784678  G :  0.001256    pred/act E change: -0.148D-04 -0.866D-05
Maxdispl :   0.3339   ||displ|| :   0.4682   Lambda : -0.390D-04
Largest |displ|/coords:  0.3339 (   1)  0.2305 (   3)  0.1539 (   2)

generating ANC from model Hessian ...
 Shifting diagonal of input Hessian by   4.851005836632541E-003
 Lowest  eigenvalues of input Hessian
   -0.000000   -0.000000   -0.000000   -0.000000   -0.000000    0.000000
    0.005000    0.005052    0.005400    0.005949    0.006751    0.007119
    0.007405    0.008010    0.009224    0.010075    0.010885    0.011515
 Highest eigenvalues
    1.383751    1.395967    1.404311    2.541892    3.273293    3.783740
 
cpu  time for ANC gen    0.02 s
wall time for ANC gen    0.03 s
................................................................................
.............................. CYCLE   53 ......................................
................................................................................
   1    -50.7221080 -0.507221E+02  0.203E-01    8.81       0.0  T
   2    -50.7221150 -0.707860E-05  0.150E-01    8.81       1.0  T
   3    -50.7221208 -0.572262E-05  0.192E-02    8.81       1.0  T
   4    -50.7221216 -0.822465E-06  0.732E-03    8.81       2.7  T
   5    -50.7221217 -0.595935E-07  0.214E-03    8.81       9.1  T
   6    -50.7221217 -0.720294E-08  0.136E-03    8.81      14.4  T
   7    -50.7221217 -0.279722E-08  0.365E-04    8.81      53.7  T
   8    -50.7221217 -0.377547E-09  0.928E-05    8.81     211.2  T
speedup  1.07
cpu  time for SCC    0.01 s
wall time for SCC    0.01 s
speedup  1.02
cpu  time for grad    0.02 s
wall time for grad    0.02 s
 E :    -50.44784165  G :  0.006737    pred/act E change:  0.000D+00  0.513D-05
Maxdispl :   0.0249   ||displ|| :   0.0449   Lambda : -0.880D-04
Largest |displ|/coords:  0.0249 (   5)  0.0214 (   2)  0.0129 (   7)
................................................................................
.............................. CYCLE   54 ......................................
................................................................................
   1    -50.7239600 -0.507240E+02  0.262E-02    8.82       0.0  T
   2    -50.7239603 -0.317458E-06  0.193E-02    8.82       1.0  T
   3    -50.7239604 -0.114282E-06  0.319E-03    8.82       6.2  T
   4    -50.7239605 -0.524633E-07  0.810E-04    8.82      24.2  T
   5    -50.7239605 -0.954742E-09  0.268E-04    8.82      73.2  T
speedup  1.00
cpu  time for SCC    0.00 s
wall time for SCC    0.01 s
speedup  0.96
cpu  time for grad    0.01 s
wall time for grad    0.01 s
 E :    -50.44789607  G :  0.001908    pred/act E change:  0.000D+00 -0.544D-04
Maxdispl :   0.0386   ||displ|| :   0.0612   Lambda : -0.316D-04
Largest |displ|/coords:  0.0386 (   5)  0.0203 (   3)  0.0202 (   4)
................................................................................
.............................. CYCLE   55 ......................................
................................................................................
   1    -50.7248677 -0.507249E+02  0.398E-02    8.83       0.0  T
   2    -50.7248680 -0.279462E-06  0.298E-02    8.83       1.0  T
   3    -50.7248682 -0.248003E-06  0.332E-03    8.83       5.9  T
   4    -50.7248683 -0.340740E-07  0.102E-03    8.83      19.2  T
   5    -50.7248683 -0.106738E-08  0.364E-04    8.83      53.9  T
   6    -50.7248683 -0.165322E-09  0.172E-04    8.83     113.9  T
speedup  1.00
cpu  time for SCC    0.01 s
wall time for SCC    0.01 s
speedup  1.00
cpu  time for grad    0.01 s
wall time for grad    0.01 s
 E :    -50.44790740  G :  0.001582    pred/act E change: -0.441D-04 -0.113D-04
Maxdispl :   0.0397   ||displ|| :   0.0672   Lambda : -0.254D-04
Largest |displ|/coords:  0.0397 (   5)  0.0325 (   2)  0.0247 (   4)
................................................................................
.............................. CYCLE   56 ......................................
................................................................................
   1    -50.7250034 -0.507250E+02  0.359E-02    8.84       0.0  T
   2    -50.7250035 -0.108051E-06  0.268E-02    8.84       1.0  T
   3    -50.7250036 -0.981855E-07  0.233E-03    8.84       8.4  T
   4    -50.7250036 -0.114921E-07  0.848E-04    8.84      23.1  T
   5    -50.7250036 -0.653344E-09  0.279E-04    8.84      70.3  T
speedup  0.96
cpu  time for SCC    0.00 s
wall time for SCC    0.01 s
speedup  0.99
cpu  time for grad    0.01 s
wall time for grad    0.01 s
 E :    -50.44792599  G :  0.001483    pred/act E change: -0.159D-04 -0.186D-04
Maxdispl :   0.0894   ||displ|| :   0.1519   Lambda : -0.323D-04
Largest |displ|/coords:  0.0894 (   5)  0.0683 (   4)  0.0666 (   2)
................................................................................
.............................. CYCLE   57 ......................................
................................................................................
   1    -50.7242337 -0.507242E+02  0.781E-02    8.84       0.0  T
   2    -50.7242342 -0.486672E-06  0.583E-02    8.84       1.0  T
   3    -50.7242346 -0.393570E-06  0.483E-03    8.84       4.1  T
   4    -50.7242347 -0.630274E-07  0.145E-03    8.84      13.5  T
   5    -50.7242347 -0.236260E-08  0.607E-04    8.84      32.3  T
   6    -50.7242347 -0.567212E-09  0.255E-04    8.84      76.8  T
speedup  1.00
cpu  time for SCC    0.01 s
wall time for SCC    0.01 s
speedup  0.98
cpu  time for grad    0.01 s
wall time for grad    0.02 s
 E :    -50.44794483  G :  0.001914    pred/act E change: -0.127D-04 -0.188D-04
Maxdispl :   0.0359   ||displ|| :   0.0743   Lambda : -0.141D-04
Largest |displ|/coords:  0.0359 (   4)  0.0309 (   1)  0.0305 (   5)
................................................................................
.............................. CYCLE   58 ......................................
................................................................................
   1    -50.7240461 -0.507240E+02  0.362E-02    8.84       0.0  T
   2    -50.7240462 -0.155092E-06  0.270E-02    8.84       1.0  T
   3    -50.7240464 -0.146815E-06  0.264E-03    8.84       7.4  T
   4    -50.7240464 -0.155803E-07  0.806E-04    8.84      24.3  T
   5    -50.7240464 -0.781377E-09  0.302E-04    8.84      65.0  T
speedup  0.96
cpu  time for SCC    0.01 s
wall time for SCC    0.01 s
speedup  1.05
cpu  time for grad    0.01 s
wall time for grad    0.01 s
 E :    -50.44795683  G :  0.002174    pred/act E change: -0.165D-04 -0.120D-04
Maxdispl :   0.1568   ||displ|| :   0.3110   Lambda : -0.670D-04
Largest |displ|/coords:  0.1568 (   4)  0.1494 (   1)  0.1270 (   2)
................................................................................
.............................. CYCLE   59 ......................................
................................................................................
   1    -50.7228537 -0.507229E+02  0.153E-01    8.83       0.0  T
   2    -50.7228572 -0.344375E-05  0.114E-01    8.83       1.0  T
   3    -50.7228604 -0.321281E-05  0.123E-02    8.83       1.6  T
   4    -50.7228607 -0.346974E-06  0.397E-03    8.83       4.9  T
   5    -50.7228608 -0.206035E-07  0.149E-03    8.83      13.2  T
   6    -50.7228608 -0.363666E-08  0.780E-04    8.83      25.1  T
   7    -50.7228608 -0.103248E-08  0.199E-04    8.83      98.6  T
speedup  1.00
cpu  time for SCC    0.01 s
wall time for SCC    0.01 s
speedup  0.99
cpu  time for grad    0.02 s
wall time for grad    0.02 s
 E :    -50.44799669  G :  0.004476    pred/act E change: -0.706D-05 -0.399D-04
Maxdispl :   0.0712   ||displ|| :   0.1295   Lambda : -0.498D-04
Largest |displ|/coords:  0.0712 (   1)  0.0582 (   4)  0.0453 (   3)
................................................................................
.............................. CYCLE   60 ......................................
................................................................................
   1    -50.7239779 -0.507240E+02  0.635E-02    8.82       0.0  T
   2    -50.7239789 -0.959095E-06  0.469E-02    8.83       1.0  T
   3    -50.7239797 -0.826819E-06  0.728E-03    8.83       2.7  T
   4    -50.7239798 -0.105397E-06  0.252E-03    8.83       7.8  T
   5    -50.7239798 -0.859416E-08  0.719E-04    8.83      27.3  T
speedup  0.96
cpu  time for SCC    0.00 s
wall time for SCC    0.01 s
speedup  1.01
cpu  time for grad    0.01 s
wall time for grad    0.01 s
 E :    -50.44800951  G :  0.003699    pred/act E change: -0.367D-04 -0.128D-04
Maxdispl :   0.1142   ||displ|| :   0.2161   Lambda : -0.565D-04
Largest |displ|/coords:  0.1142 (   4)  0.1052 (   1)  0.0868 (   2)
................................................................................
.............................. CYCLE   61 ......................................
................................................................................
   1    -50.7226096 -0.507226E+02  0.109E-01    8.82       0.0  T
   2    -50.7226113 -0.165184E-05  0.812E-02    8.82       1.0  T
   3    -50.7226129 -0.158537E-05  0.900E-03    8.82       2.2  T
   4    -50.7226130 -0.166348E-06  0.298E-03    8.82       6.6  T
   5    -50.7226130 -0.130943E-07  0.105E-03    8.82      18.7  T
   6    -50.7226130 -0.187236E-08  0.628E-04    8.82      31.2  T
   7    -50.7226130 -0.557556E-09  0.147E-04    8.82     133.1  T
speedup  1.06
cpu  time for SCC    0.01 s
wall time for SCC    0.01 s
speedup  1.03
cpu  time for grad    0.02 s
wall time for grad    0.02 s
 E :    -50.44804809  G :  0.005008    pred/act E change: -0.253D-04 -0.386D-04
Maxdispl :   0.0571   ||displ|| :   0.1050   Lambda : -0.659D-04
Largest |displ|/coords:  0.0571 (   1)  0.0486 (   4)  0.0367 (   8)
................................................................................
.............................. CYCLE   62 ......................................
................................................................................
   1    -50.7238037 -0.507238E+02  0.558E-02    8.84       0.0  T
   2    -50.7238044 -0.727422E-06  0.408E-02    8.84       1.0  T
   3    -50.7238050 -0.553798E-06  0.639E-03    8.84       3.1  T
   4    -50.7238050 -0.743085E-07  0.203E-03    8.84       9.6  T
   5    -50.7238051 -0.649792E-08  0.593E-04    8.84      33.1  T
speedup  0.93
cpu  time for SCC    0.00 s
wall time for SCC    0.01 s
speedup  0.99
cpu  time for grad    0.01 s
wall time for grad    0.01 s
 E :    -50.44808055  G :  0.004120    pred/act E change: -0.296D-04 -0.325D-04
Maxdispl :   0.0885   ||displ|| :   0.1454   Lambda : -0.436D-04
Largest |displ|/coords:  0.0885 (   4)  0.0730 (   1)  0.0480 (   2)
................................................................................
.............................. CYCLE   63 ......................................
................................................................................
   1    -50.7238331 -0.507238E+02  0.790E-02    8.84       0.0  T
   2    -50.7238343 -0.117508E-05  0.584E-02    8.84       1.0  T
   3    -50.7238354 -0.109371E-05  0.863E-03    8.85       2.3  T
   4    -50.7238355 -0.113755E-06  0.318E-03    8.85       6.2  T
   5    -50.7238355 -0.139831E-07  0.822E-04    8.85      23.9  T
   6    -50.7238355 -0.882864E-09  0.557E-04    8.85      35.2  T
speedup  1.02
cpu  time for SCC    0.01 s
wall time for SCC    0.01 s
speedup  0.98
cpu  time for grad    0.01 s
wall time for grad    0.01 s
 E :    -50.44811109  G :  0.004110    pred/act E change: -0.333D-04 -0.305D-04
Maxdispl :   0.0855   ||displ|| :   0.1476   Lambda : -0.719D-04
Largest |displ|/coords:  0.0855 (   1)  0.0842 (   4)  0.0344 (   3)
................................................................................
.............................. CYCLE   64 ......................................
................................................................................
   1    -50.7259143 -0.507259E+02  0.856E-02    8.86       0.0  T
   2    -50.7259164 -0.209067E-05  0.622E-02    8.87       1.0  T
   3    -50.7259179 -0.152580E-05  0.110E-02    8.87       1.8  T
   4    -50.7259182 -0.221338E-06  0.397E-03    8.87       4.9  T
   5    -50.7259182 -0.222294E-07  0.984E-04    8.87      19.9  T
   6    -50.7259182 -0.173460E-08  0.632E-04    8.87      31.1  T
speedup  0.98
cpu  time for SCC    0.01 s
wall time for SCC    0.01 s
speedup  0.95
cpu  time for grad    0.01 s
wall time for grad    0.01 s
 E :    -50.44814545  G :  0.002371    pred/act E change: -0.223D-04 -0.344D-04
Maxdispl :   0.2323   ||displ|| :   0.4095   Lambda : -0.759D-04
Largest |displ|/coords:  0.2323 (   4)  0.2247 (   1)  0.1091 (   3)
................................................................................
.............................. CYCLE   65 ......................................
................................................................................
   1    -50.7223936 -0.507224E+02  0.211E-01    8.83       0.0  T
   2    -50.7224013 -0.773520E-05  0.156E-01    8.83       1.0  T
   3    -50.7224087 -0.735929E-05  0.214E-02    8.83       1.0  T
   4    -50.7224094 -0.691225E-06  0.695E-03    8.83       2.8  T
   5    -50.7224094 -0.719058E-07  0.224E-03    8.83       8.8  T
[...]
   4    -50.7261288 -0.420565E-08  0.611E-04    8.88      32.1  T
   5    -50.7261288 -0.458577E-09  0.184E-04    8.88     106.8  T
speedup  1.00
cpu  time for SCC    0.00 s
wall time for SCC    0.01 s
speedup  1.00
cpu  time for grad    0.01 s
wall time for grad    0.01 s
 E :    -50.44829058  G :  0.000657    pred/act E change: -0.146D-05 -0.189D-05
Maxdispl :   0.0305   ||displ|| :   0.0438   Lambda : -0.176D-05
Largest |displ|/coords:  0.0305 (   1)  0.0193 (   2)  0.0158 (   3)
................................................................................
.............................. CYCLE   81 ......................................
................................................................................
   1    -50.7261899 -0.507262E+02  0.218E-02    8.88       0.0  T
   2    -50.7261900 -0.413202E-07  0.164E-02    8.88       1.2  T
   3    -50.7261900 -0.466225E-07  0.129E-03    8.88      15.2  T
   4    -50.7261900 -0.320248E-08  0.538E-04    8.88      36.5  T
   5    -50.7261900 -0.293447E-09  0.149E-04    8.88     131.5  T
speedup  1.06
cpu  time for SCC    0.00 s
wall time for SCC    0.00 s
speedup  1.01
cpu  time for grad    0.01 s
wall time for grad    0.01 s
 E :    -50.44829188  G :  0.000625    pred/act E change: -0.134D-05 -0.130D-05
Maxdispl :   0.0314   ||displ|| :   0.0461   Lambda : -0.161D-05
Largest |displ|/coords:  0.0314 (   1)  0.0228 (   2)  0.0159 (   3)

generating ANC from model Hessian ...
 Shifting diagonal of input Hessian by   5.057195937281418E-003
 Lowest  eigenvalues of input Hessian
    0.005000   -0.000000   -0.000000   -0.000000   -0.000000    0.000000
    0.000000    0.005266    0.005571    0.005926    0.006647    0.006890
    0.007058    0.007978    0.009098    0.009483    0.010191    0.011694
 Highest eigenvalues
    1.388374    1.394694    1.404556    2.553967    3.290963    3.792741
 
cpu  time for ANC gen    0.02 s
wall time for ANC gen    0.02 s
................................................................................
.............................. CYCLE   82 ......................................
................................................................................
   1    -50.7261889 -0.507262E+02  0.247E-02    8.88       0.0  T
   2    -50.7261890 -0.466446E-07  0.186E-02    8.88       1.1  T
   3    -50.7261890 -0.538018E-07  0.128E-03    8.88      15.3  T
   4    -50.7261890 -0.337296E-08  0.596E-04    8.88      32.9  T
   5    -50.7261890 -0.303416E-09  0.174E-04    8.88     112.8  T
speedup  0.98
cpu  time for SCC    0.00 s
wall time for SCC    0.01 s
speedup  0.98
cpu  time for grad    0.01 s
wall time for grad    0.01 s
 E :    -50.44829303  G :  0.000579    pred/act E change:  0.000D+00 -0.115D-05
Maxdispl :   0.0034   ||displ|| :   0.0051   Lambda : -0.602D-06
Largest |displ|/coords:  0.0034 (   2)  0.0017 (  13)  0.0014 (   9)
................................................................................
.............................. CYCLE   83 ......................................
................................................................................
   1    -50.7261414 -0.507261E+02  0.434E-03    8.88       0.0  T
   2    -50.7261414 -0.283893E-08  0.324E-03    8.88       6.0  T
   3    -50.7261414 -0.218619E-08  0.395E-04    8.88      49.6  T
   4    -50.7261414 -0.306990E-09  0.131E-04    8.88     149.4  T
speedup  0.95
cpu  time for SCC    0.00 s
wall time for SCC    0.00 s
speedup  0.98
cpu  time for grad    0.01 s
wall time for grad    0.01 s
 E :    -50.44829352  G :  0.000397    pred/act E change:  0.000D+00 -0.483D-06
Maxdispl :   0.0090   ||displ|| :   0.0131   Lambda : -0.106D-05
Largest |displ|/coords:  0.0090 (   2)  0.0040 (  13)  0.0037 (   9)
................................................................................
.............................. CYCLE   84 ......................................
................................................................................
   1    -50.7260816 -0.507261E+02  0.113E-02    8.88       0.0  T
   2    -50.7260816 -0.158793E-07  0.850E-03    8.88       2.3  T
   3    -50.7260816 -0.142975E-07  0.859E-04    8.88      22.8  T
   4    -50.7260816 -0.144957E-08  0.312E-04    8.88      62.8  T
speedup  1.25
cpu  time for SCC    0.00 s
wall time for SCC    0.00 s
speedup  1.06
cpu  time for grad    0.01 s
wall time for grad    0.01 s
 E :    -50.44829411  G :  0.000359    pred/act E change: -0.301D-06 -0.596D-06
Maxdispl :   0.0062   ||displ|| :   0.0078   Lambda : -0.362D-06
Largest |displ|/coords:  0.0062 (   2)  0.0029 (   5)  0.0015 (  15)
................................................................................
.............................. CYCLE   85 ......................................
................................................................................
   1    -50.7261054 -0.507261E+02  0.546E-03    8.88       0.0  T
   2    -50.7261054 -0.508886E-08  0.409E-03    8.88       4.8  T
   3    -50.7261054 -0.382145E-08  0.465E-04    8.88      42.2  T
   4    -50.7261054 -0.674873E-09  0.127E-04    8.88     154.9  T
speedup  1.11
cpu  time for SCC    0.00 s
wall time for SCC    0.00 s
speedup  1.02
cpu  time for grad    0.01 s
wall time for grad    0.01 s
 E :    -50.44829432  G :  0.000331    pred/act E change: -0.528D-06 -0.208D-06
Maxdispl :   0.0067   ||displ|| :   0.0092   Lambda : -0.374D-06
Largest |displ|/coords:  0.0067 (   2)  0.0028 (   5)  0.0022 (   3)
................................................................................
.............................. CYCLE   86 ......................................
................................................................................
   1    -50.7261597 -0.507262E+02  0.646E-03    8.88       0.0  T
   2    -50.7261597 -0.716383E-08  0.483E-03    8.88       4.1  T
   3    -50.7261597 -0.460258E-08  0.593E-04    8.88      33.1  T
   4    -50.7261597 -0.113563E-08  0.176E-04    8.88     111.5  T
speedup  1.00
cpu  time for SCC    0.00 s
wall time for SCC    0.00 s
speedup  0.98
cpu  time for grad    0.01 s
wall time for grad    0.01 s
 E :    -50.44829458  G :  0.000231    pred/act E change: -0.181D-06 -0.260D-06
Maxdispl :   0.0092   ||displ|| :   0.0116   Lambda : -0.439D-06
Largest |displ|/coords:  0.0092 (   2)  0.0029 (  21)  0.0024 (  10)
................................................................................
.............................. CYCLE   87 ......................................
................................................................................
   1    -50.7262257 -0.507262E+02  0.761E-03    8.88       0.0  T
   2    -50.7262257 -0.169195E-07  0.568E-03    8.88       3.5  T
   3    -50.7262257 -0.942027E-08  0.956E-04    8.88      20.5  T
   4    -50.7262257 -0.270781E-08  0.286E-04    8.88      68.6  T
speedup  0.98
cpu  time for SCC    0.00 s
wall time for SCC    0.00 s
speedup  0.98
cpu  time for grad    0.01 s
wall time for grad    0.01 s
 E :    -50.44829481  G :  0.000202    pred/act E change: -0.187D-06 -0.228D-06
Maxdispl :   0.0017   ||displ|| :   0.0040   Lambda : -0.163D-06
Largest |displ|/coords:  0.0017 (   2)  0.0017 (   3)  0.0012 (   8)
................................................................................
.............................. CYCLE   88 ......................................
................................................................................
   1    -50.7262256 -0.507262E+02  0.262E-03    8.88       0.0  T
   2    -50.7262256 -0.234831E-08  0.193E-03    8.88      10.2  T
   3    -50.7262256 -0.156562E-08  0.383E-04    8.88      51.1  T
   4    -50.7262256 -0.290946E-09  0.104E-04    8.88     188.9  T
speedup  0.98
cpu  time for SCC    0.00 s
wall time for SCC    0.00 s
speedup  0.98
cpu  time for grad    0.01 s
wall time for grad    0.01 s
 E :    -50.44829491  G :  0.000191    pred/act E change: -0.219D-06 -0.106D-06
Maxdispl :   0.0026   ||displ|| :   0.0047   Lambda : -0.124D-06
Largest |displ|/coords:  0.0026 (   2)  0.0018 (   3)  0.0015 (   1)
................................................................................
.............................. CYCLE   89 ......................................
................................................................................
   1    -50.7262008 -0.507262E+02  0.277E-03    8.88       0.0  T
   2    -50.7262008 -0.252791E-08  0.207E-03    8.88       9.5  T
   3    -50.7262008 -0.200605E-08  0.351E-04    8.88      55.9  T
   4    -50.7262008 -0.316845E-09  0.105E-04    8.88     185.9  T
speedup  0.87
cpu  time for SCC    0.00 s
wall time for SCC    0.00 s
speedup  1.02
cpu  time for grad    0.01 s
wall time for grad    0.01 s
 E :    -50.44829500  G :  0.000165    pred/act E change: -0.815D-07 -0.905D-07
Maxdispl :   0.0023   ||displ|| :   0.0052   Lambda : -0.101D-06
Largest |displ|/coords:  0.0023 (   2)  0.0021 (   1)  0.0018 (   3)

   *** GEOMETRY OPTIMIZATION CONVERGED AFTER 89 ITERATIONS ***

------------------------------------------------------------------------
 total energy gain (kcal):     -0.0012
------------------------------------------------------------------------
================
 final structure:
================
$coord
        2.90410050548124        0.78370329269563        2.54668860476130      S 
        3.12828256128338       -0.30088798855148       -0.04220351391523      O 
        1.26784457513593       -1.26751279545791        4.00828948691675      O 
        5.26787393705077        1.06771417195903        3.77537818823811      O 
        1.31920572350699        3.04203796077808        2.43962140423853      O 
       -2.40065166974840       -0.23137536172544       -3.74741911543626      O 
       -3.15053720135818       -0.39627557428477       -5.38640617984987      H 
        1.20633768170726        6.56918138941515       -1.12056017827340      O 
        2.61908534376690        7.67619790579177       -0.88004182285052      H 
        1.20243397223601        5.42640999870996        0.33842543609617      H 
       -2.80061119504338        0.47158438152605        1.52177991295317      O 
       -3.07011151434645        0.43428744229148       -0.28732411360203      H 
       -0.40360536362507       -0.83781394083535        3.37985573232496      H 
       -1.66151734661435        1.90067718607372        1.81268251855567      H 
        1.59955485111418        2.43883055802463       -4.02838703207173      O 
        1.36278630431107        4.13098785697158       -3.31084906030500      H 
        2.54150893843864        1.51507826067130       -2.73563256464270      H 
       -0.89763907593223        0.96038257099635       -3.96495822286400      H 
        0.28464975632415       -3.63449741307468       -1.55812853685680      O 
        1.65544702626550       -2.30886889131068       -0.83185979660368      H 
       -0.77036538298258       -4.31691310765415       -0.00619518519649      H 
       -0.87667034232380       -2.49697744874731       -2.57371900805580      H 
       -2.33444866444911       -5.09653662571215        2.23848259429227      N 
       -1.13104898688973       -5.09936770390137        3.72919552628582      H 
       -3.27322312210360       -6.76122303545265        2.18519242543129      H 
       -3.58868131121862       -3.66882312700064        2.49809248152518      H 
$end
 
 Bond Distances (Angstroems)
 ---------------------------
S1-O2=1.4901         S1-O3=1.5894         S1-O4=1.4177         S1-O5=1.4611         O2-S1=1.4901         O3-S1=1.5894         
O3-H13=0.9719        O4-S1=1.4177         O5-S1=1.4611         O6-H7=0.9578         O6-H18=1.0216        H7-O6=0.9578         
O8-H9=0.9583         O8-H10=0.9807        H9-O8=0.9583         H10-O8=0.9807        O11-H12=0.9681       O11-H14=0.9793       
H12-O11=0.9681       H13-O3=0.9719        H14-O11=0.9793       O15-H16=0.9807       O15-H17=0.9774       H16-O15=0.9807       
H17-O15=0.9774       H18-O6=1.0216        O19-H20=1.0798       O19-H21=1.0567       O19-H22=1.0143       H20-O19=1.0798       
H21-O19=1.0567       H22-O19=1.0143       N23-H24=1.0138       N23-H25=1.0117       N23-H26=1.0150       H24-N23=1.0138       
H25-N23=1.0117       H26-N23=1.0150       
 N  H  Rav=1.0135 sigma=0.0013  Rmin=1.0117  Rmax=1.0150     3
 O  H  Rav=0.9955 sigma=0.0377  Rmin=0.9578  Rmax=1.0798    12
 S  O  Rav=1.4896 sigma=0.0631  Rmin=1.4177  Rmax=1.5894     4
 
 selected bond angles (degree)
 --------------------
O3-S1-O2=103.16                O4-S1-O2=113.09                O4-S1-O3=109.26                O5-S1-O2=108.97                
O5-S1-O3=105.35                O5-S1-O4=115.95                H13-O3-S1= 99.76               H18-O6-H7=106.07               
H10-O8-H9=105.90               
 
 selected dihedral angles (degree)
 ---------------------------------
H13-O3-S1-O2=281.46           H13-O3-S1-O4=160.90           H13-O3-S1-O5= 35.69           
 
 CMA Distance (Angstroems)
 ---------------------------
R(CMA):  2.6801

========================================================================
 FINAL SINGLEPOINT CALCULATION ON OPTIMIZED GEOMETRY
========================================================================

 Ncao       : 65
 Nao        : 64
 Nshell     : 38
 Nel        : 80
 T(el)      :   300.0
 intcut     :    25.0
 scfconv/Eh :  0.100E-05
   qconv/e  :  0.100E-03
 intneglect :  0.100E-07
 broydamp   :      0.250
 iter      E             dE          RMSdq      gap      omega  full diag
   1    -50.7262008 -0.507262E+02  0.450E-05    8.88       0.0  T
   2    -50.7262008 -0.171951E-11  0.289E-05    8.88     679.5  T
   3    -50.7262008 -0.859757E-12  0.647E-06    8.88    3029.4  T
speedup  1.03
cpu  time for SCC    0.00 s
wall time for SCC    0.00 s

   *** convergence criteria satisfied after 3 iterations ***

          eigenvalues
 #    :          28         29         30         31         32         33         34         35
 occ. :        2.000      2.000      2.000      2.000      2.000      2.000      2.000      2.000
 eps  :       -13.548    -13.161    -12.861    -12.418    -12.397    -12.354    -12.223    -12.039
 #    :          36         37         38         39         40         41         42         43
 occ. :        2.000      2.000      2.000      2.000      2.000      0.000      0.000      0.000
 eps  :       -11.952    -11.921    -11.783    -11.722    -11.485     -2.602     -1.099     -0.405
 #    :          44         45         46         47         48         49         50         51
 occ. :        0.000      0.000      0.000      0.000      0.000      0.000      0.000      0.000
 eps  :         0.392      0.989      1.710      2.132      2.330      3.387      4.648      4.725


   #   Z            q   n(s)   n(p)   n(d)      C6AA      α(0)
   1  16 S      1.672  1.586  1.790  0.953    89.416    15.915
   2   8 O     -0.755  1.773  4.982  0.000    30.160     7.367
   3   8 O     -0.636  1.766  4.870  0.000    26.029     6.887
   4   8 O     -0.662  1.757  4.905  0.000    27.694     7.056
   5   8 O     -0.757  1.774  4.984  0.000    30.323     7.383
   6   8 O     -0.642  1.756  4.886  0.000    26.209     6.909
   7   1 H      0.289  0.711  0.000  0.000     0.755     1.365
   8   8 O     -0.609  1.744  4.865  0.000    25.412     6.804
   9   1 H      0.284  0.716  0.000  0.000     0.772     1.380
  10   1 H      0.326  0.674  0.000  0.000     0.647     1.263
  11   8 O     -0.655  1.757  4.898  0.000    26.536     6.952
  12   1 H      0.321  0.679  0.000  0.000     0.661     1.277
  13   1 H      0.370  0.630  0.000  0.000     0.535     1.145
  14   1 H      0.322  0.678  0.000  0.000     0.659     1.276
  15   8 O     -0.627  1.757  4.869  0.000    25.832     6.860
  16   1 H      0.329  0.671  0.000  0.000     0.640     1.257
  17   1 H      0.321  0.679  0.000  0.000     0.661     1.277
  18   1 H      0.353  0.647  0.000  0.000     0.581     1.198
  19   8 O     -0.518  1.729  4.789  0.000    23.228     6.509
  20   1 H      0.395  0.605  0.000  0.000     0.486     1.091
  21   1 H      0.357  0.643  0.000  0.000     0.564     1.174
  22   1 H      0.378  0.622  0.000  0.000     0.528     1.142
  23   7 N     -0.424  1.340  4.084  0.000    31.032     8.273
  24   1 H      0.193  0.807  0.000  0.000     1.142     1.674
  25   1 H      0.177  0.823  0.000  0.000     1.234     1.740
  26   1 H      0.199  0.801  0.000  0.000     1.109     1.650

 Mol. C6AA /au·bohr⁶  :       5469.102912
 Mol. C8AA /au·bohr⁸  :     118308.865195
 Mol. α(0) /au        :        106.824124

 
 Wiberg/Mayer (AO) data. WBOs > 0.1 written file <wbo>
 largest (>0.05) Wiberg bond orders for each atom
           total WBO             WBO to atom ...
     1  S   4.865    O    4 1.490    O    5 1.271    O    2 1.161    O    3 0.897
     2  O   1.759    S    1 1.161    H   20 0.206    O    4 0.100    O    5 0.096    O    3 0.071    O   19 0.055
     3  O   1.941    S    1 0.897    H   13 0.784    O    5 0.075    O    4 0.073    O    2 0.071
     4  O   1.796    S    1 1.490    O    5 0.115    O    2 0.100    O    3 0.073
     5  O   1.715    S    1 1.271    O    4 0.115    O    2 0.096    O    3 0.075    H   10 0.056    H   14 0.054
     6  O   1.899    H    7 0.907    H   18 0.738    H   22 0.117    O   15 0.055
     7  H   0.916    O    6 0.907
     8  O   1.866    H    9 0.916    H   10 0.834    H   16 0.057
     9  H   0.919    O    8 0.916
    10  H   0.893    O    8 0.834    O    5 0.056
    11  O   1.838    H   12 0.865    H   14 0.836    H   13 0.056
    12  H   0.897    O   11 0.865
    13  H   0.863    O    3 0.784    O   11 0.056
    14  H   0.896    O   11 0.836    O    5 0.054
    15  O   1.926    H   17 0.847    H   16 0.831    H   18 0.136    O    6 0.055
    16  H   0.892    O   15 0.831    O    8 0.057
    17  H   0.897    O   15 0.847
    18  H   0.875    O    6 0.738    O   15 0.136
    19  O   2.228    H   22 0.736    H   21 0.664    H   20 0.625    N   23 0.075    O    2 0.055
    20  H   0.844    O   19 0.625    O    2 0.206
    21  H   0.873    O   19 0.664    N   23 0.205
    22  H   0.857    O   19 0.736    O    6 0.117
    23  N   3.167    H   25 0.965    H   24 0.957    H   26 0.951    H   21 0.205    O   19 0.075
    24  H   0.963    N   23 0.957
    25  H   0.969    N   23 0.965
    26  H   0.960    N   23 0.951
 MOs/occ written to file <molden.input>
 
molecular dipole:
                 x           y           z       tot (Debye)
 q only:       -2.283      -2.159      -1.155
   full:       -2.303      -1.849      -0.700       7.716
molecular quadrupole (traceless):
                xx          xy          yy          xz          yz          zz
 q only:       -9.380       7.969      12.674      -7.308      -4.473      -3.294
  q+dip:       -9.829      11.358      12.635      -6.639      -5.775      -2.805
   full:       -9.757      11.910      12.664      -6.294      -6.017      -2.907

SCC energy    :     -50.7262008
rep           :       0.2776293
ES            :       0.2549672
AES           :      -0.0679853
AXC           :      -0.0074274
disp          :      -0.0196717
XB            :       0.0000000
fix           :       0.0000000
total E       :     -50.4482950
atomizationE  :       4.9785992     3124.12
(atE without considering molecular charge,
 total energy contains solvation terms)
H-L gap (eV)  :          8.8834
optimized geometry written to: xtbopt.xyz


------------------------------------------------------------------------
 * finished run on 2019/09/16 at 12:04:54.870     
------------------------------------------------------------------------
 total:
 * wall-time:     0 d,  0 h,  0 min,  2.308 sec
 *  cpu-time:     0 d,  0 h,  0 min,  2.286 sec
 * ratio c/w:     0.990 speedup
 SCF:
 * wall-time:     0 d,  0 h,  0 min,  0.159 sec
 *  cpu-time:     0 d,  0 h,  0 min,  0.156 sec
 * ratio c/w:     0.979 speedup
 ANC optimizer:
 * wall-time:     0 d,  0 h,  0 min,  2.121 sec
 *  cpu-time:     0 d,  0 h,  0 min,  2.104 sec
 * ratio c/w:     0.992 speedup

