      -----------------------------------------------------------      
     |                   =====================                   |     
     |                           x T B                           |     
     |                   =====================                   |     
     |                         S. Grimme                         |     
     |          Mulliken Center for Theoretical Chemistry        |     
     |                    University of Bonn                     |     
     |                 Version 6.0.1 (SAW181210)                 |     
      -----------------------------------------------------------      

   This program is distributed in the hope that it will be useful,
   but WITHOUT ANY WARRANTY; without even the implied warranty of
   MERCHANTABILITY or FITNESS FOR A PARTICULAR PURPOSE.
   
   FOR NON-COMMERCIAL, ACADEMIA USE ONLY.
   
   Cite this work as:
   S. Grimme, C. Bannwarth, P. Shushkov, J. Comput. Theory Chem., 2017,
   13, 1989-2009.
   C. Bannwarth, S. Ehlert and S. Grimme., ChemRxiv, 2018, preprint.
   http://doi.org/10.26434/chemrxiv.7246238.v1
   
   for sTDA-xTB:
   S. Grimme and C. Bannwarth, J. Chem. Phys., 2016, 145, 054103.
   
   in the mass-spec context:
   V. Asgeirsson, C. Bauer and S. Grimme, Chem. Sci., 2017, 8, 4879.
   
   if GBSA is used:
   P. Shushkov, F. März and S. Grimme, unpublished.
   
   for ANC optimizer:
   S. Grimme, unpublished.
   Rational Function algorithm used in ANCopt:
   F. Eckert, P. Pulay, H.-J. Werner, J. Comput. Chem., 1997, 18, 1473.
   
   with help from (in alphabetical order)
   C. Bannwarth, F. Bohle, G. Brandenburg, E. Caldeweyher, M. Checinski,
   S. Dohm, S. Ehlert, S. Ehrlich, F. März, H. Neugebauer, J. Pisarek,
   P. Pracht, P. Shushkov, and S. Spicher.
   
 * started run on 2019/09/16 at 11:13:40.368     
========================================================================
 # omp threads = 1
========================================================================
number of atoms            : 23
number of electrons        : 72
charge                     : 0
spin                       : .0
first test random number   : .3098

########################################################################
# WARNING! Please study the warnings concerning your input carefully
#  - XTBPATH is not set, using XTBHOME instead
#  - the use of '-opt' is discouraged, please use '--opt' next time
#  - the use of '-chrg' is discouraged, please use '--chrg' next time
#  - the use of '-uhf' is discouraged, please use '--uhf' next time
########################################################################

           ------------------------------------------------- 
          |                 G F N 2 - x T B                 |
          | Geometry, Frequencies, Noncovalent interactions |
          |            JCTC 2018 parametrisation            |
           ------------------------------------------------- 
      method parameters     
 k(s)        :  1.8500
 k(p)        :  2.2300
 k(d)        :  2.2300
 k(f)        :  2.0000
 kEN (H0ij)  : -2.0000
 D4 a1       :  0.5200
 D4 a2       :  5.0000
 D4 s6       :  1.0000
 D4 s8       :  2.7000
 D4 s9       :  5.0000
 alphaj      :  2.0000


            Z     q(EN)     CN     RAES       Cart. coordinates
     1  S   6.0    0.61    4.53    4.60     2.62107    -0.04780     2.40776
     2  O   6.0   -0.33    1.24    1.80     2.10100     1.23272    -0.04539
     3  O   6.0   -0.27    1.12    1.80     5.39112    -0.47694     2.67378
     4  O   6.0   -0.26    2.11    1.84     1.29545    -2.48712     2.47802
     5  O   6.0   -0.25    2.09    1.84     1.72751     1.55182     4.49470
     6  H   1.0    0.15    1.22    1.47     0.47233     0.65569     5.44999
     7  H   1.0    0.17    1.27    1.49     1.87859    -3.53271     1.11502
     8  O   6.0   -0.31    2.06    1.83     0.53606    -0.68980    -4.38259
     9  H   1.0    0.14    0.97    1.43     0.81542     0.38779    -5.82320
    10  H   1.0    0.17    1.05    1.44     1.18567     0.23585    -2.95578
    11  O   6.0   -0.28    2.02    1.83     2.74117    -4.59366    -1.87600
    12  H   1.0    0.16    1.02    1.43     1.98590    -3.47526    -3.09803
    13  H   1.0    0.15    0.97    1.43     4.33149    -5.09900    -2.60411
    14  O   6.0   -0.27    1.98    1.82    -3.33882     0.55313     3.15563
    15  H   1.0    0.15    1.03    1.43    -3.35123     2.24619     2.48631
    16  H   1.0    0.17    1.03    1.43    -3.65540    -0.53133     1.72793
    17  O   6.0   -0.29    2.00    1.83    -3.40121    -1.99496    -1.27288
    18  H   1.0    0.15    0.97    1.43    -4.23594    -3.44017    -2.00033
    19  H   1.0    0.16    1.02    1.43    -2.13323    -1.51016    -2.48606
    20  N   5.0   -0.22    2.99    1.92    -2.08115     4.98813     0.50222
    21  H   1.0    0.12    1.02    1.43    -0.54539     3.93815     0.00217
    22  H   1.0    0.11    0.99    1.43    -1.37998     6.64127     1.19975
    23  H   1.0    0.10    0.99    1.43    -2.96043     5.44818    -1.14893

  Z AO/shell   Hii/eV     exponent
  1     Wed Apr 25 08:07:45 CEST 2018   EN: 2.200 GM2: 0.406  GM3: 0.0800  RAES: 1.40
     1s    -10.707211    1.230000
  7     Wed Apr 25 08:07:45 CEST 2018   EN: 3.040 GM2: 0.461  GM3:-0.0640  RAES: 1.90
     2s    -16.686243    2.339881
     2p    -12.523956    2.014332
  8     Wed Apr 25 08:07:45 CEST 2018   EN: 3.440 GM2: 0.452  GM3:-0.0517  RAES: 1.80
     2s    -20.229985    2.439742
     2p    -15.503117    2.137023
 16     Tue Apr 24 11:44:34 CEST 2018   EN: 2.580 GM2: 0.340  GM3:-0.0502  RAES: 3.10
     3s    -20.029654    1.981333
     3p    -11.377694    2.025643
     3d     -0.420282    1.702555
 no old-style atom pair restraining (fixing) potential

molecular fragmentation (1/2 indicates fragments):
11111112222222222222222
# atoms in fragment 1/2:     7    16
 fragment masses (1/2) :       98.07       89.09
CMA distance (Bohr)    :   4.931
constraining FC (au)   :  0.0500
           ------------------------------------------------- 
          |        Self-Consistent Charge Iterations        |
           ------------------------------------------------- 

 Ncao       : 59
 Nao        : 58
 Nshell     : 34
 Nel        : 72
 T(el)      :   300.0
 intcut     :    25.0
 scfconv/Eh :  0.100E-05
   qconv/e  :  0.100E-03
 intneglect :  0.100E-07
 broydamp   :      0.250
 iter      E             dE          RMSdq      gap      omega  full diag
   1    -45.5022700 -0.455023E+02  0.717E+00   10.28       0.0  T
   2    -45.5554390 -0.531690E-01  0.516E+00    9.44       1.0  T
   3    -45.5913136 -0.358746E-01  0.153E+00    7.92       1.0  T
   4    -45.5974030 -0.608935E-02  0.607E-01    8.12       1.0  T
   5    -45.5979664 -0.563464E-03  0.395E-01    8.02       1.0  T
   6    -45.5986386 -0.672206E-03  0.177E-01    8.02       1.0  T
   7    -45.5988155 -0.176838E-03  0.705E-02    8.01       1.0  T
   8    -45.5988405 -0.250637E-04  0.391E-02    8.02       1.0  T
   9    -45.5988483 -0.780749E-05  0.169E-02    8.03       1.2  T
  10    -45.5988501 -0.181111E-05  0.309E-03    8.03       6.7  T
  11    -45.5988502 -0.303724E-07  0.143E-03    8.03      14.6  T
  12    -45.5988502 -0.687751E-08  0.653E-04    8.03      31.9  T
  13    -45.5988502 -0.181126E-08  0.173E-04    8.03     120.7  T
speedup  1.01
cpu  time for SCC    0.01 s
wall time for SCC    0.01 s

   *** convergence criteria satisfied after 13 iterations ***

          eigenvalues
 #    :          24         25         26         27         28         29         30         31
 occ. :        2.000      2.000      2.000      2.000      2.000      2.000      2.000      2.000
 eps  :       -13.472    -13.325    -12.834    -12.717    -12.557    -12.445    -12.303    -12.300
 #    :          32         33         34         35         36         37         38         39
 occ. :        2.000      2.000      2.000      2.000      2.000      0.000      0.000      0.000
 eps  :       -11.931    -11.771    -11.478    -10.795    -10.542     -2.513     -1.340     -0.282
 #    :          40         41         42         43         44         45         46         47
 occ. :        0.000      0.000      0.000      0.000      0.000      0.000      0.000      0.000
 eps  :         0.408      0.870      1.695      2.397      3.114      4.495      5.444      5.492


   #   Z            q   n(s)   n(p)   n(d)      C6AA      α(0)
   1  16 S      1.703  1.573  1.780  0.943    88.696    15.851
   2   8 O     -0.731  1.764  4.967  0.000    29.569     7.291
   3   8 O     -0.703  1.778  4.925  0.000    28.782     7.193
   4   8 O     -0.559  1.713  4.846  0.000    24.203     6.641
   5   8 O     -0.527  1.712  4.815  0.000    23.467     6.540
   6   1 H      0.402  0.598  0.000  0.000     0.473     1.076
   7   1 H      0.417  0.583  0.000  0.000     0.448     1.047
   8   8 O     -0.618  1.740  4.878  0.000    25.620     6.831
   9   1 H      0.294  0.706  0.000  0.000     0.739     1.351
  10   1 H      0.341  0.659  0.000  0.000     0.610     1.226
  11   8 O     -0.615  1.745  4.870  0.000    25.553     6.823
  12   1 H      0.331  0.669  0.000  0.000     0.635     1.252
  13   1 H      0.299  0.701  0.000  0.000     0.725     1.338
  14   8 O     -0.652  1.747  4.904  0.000    26.456     6.942
  15   1 H      0.299  0.701  0.000  0.000     0.723     1.336
  16   1 H      0.311  0.689  0.000  0.000     0.688     1.302
  17   8 O     -0.606  1.745  4.861  0.000    25.331     6.793
  18   1 H      0.281  0.719  0.000  0.000     0.781     1.388
  19   1 H      0.321  0.679  0.000  0.000     0.662     1.278
  20   7 N     -0.453  1.399  4.053  0.000    31.900     8.388
  21   1 H      0.178  0.822  0.000  0.000     1.227     1.735
  22   1 H      0.143  0.857  0.000  0.000     1.450     1.886
  23   1 H      0.144  0.856  0.000  0.000     1.446     1.884

 Mol. C6AA /au·bohr⁶  :       4508.719907
 Mol. C8AA /au·bohr⁸  :      98896.879228
 Mol. α(0) /au        :         97.392330

 
 Wiberg/Mayer (AO) data. WBOs > 0.1 written file <wbo>
 largest (>0.05) Wiberg bond orders for each atom
           total WBO             WBO to atom ...
     1  S   4.820    O    3 1.387    O    2 1.299    O    5 1.050    O    4 1.045
     2  O   1.699    S    1 1.299    O    3 0.133    O    4 0.088    O    5 0.074    H   10 0.051
     3  O   1.706    S    1 1.387    O    2 0.133    O    4 0.093    O    5 0.081
     4  O   2.044    S    1 1.045    H    7 0.743    O    3 0.093    O    2 0.088
     5  O   2.072    S    1 1.050    H    6 0.804    O    3 0.081    O    2 0.074
     6  H   0.838    O    5 0.804
     7  H   0.826    O    4 0.743    O   11 0.060
     8  O   1.869    H    9 0.902    H   10 0.827
     9  H   0.914    O    8 0.902
    10  H   0.884    O    8 0.827    O    2 0.051
    11  O   1.858    H   13 0.905    H   12 0.848    H    7 0.060
    12  H   0.890    O   11 0.848
    13  H   0.911    O   11 0.905
    14  O   1.799    H   15 0.873    H   16 0.867
    15  H   0.910    O   14 0.873
    16  H   0.903    O   14 0.867
    17  O   1.838    H   18 0.915    H   19 0.853
    18  H   0.921    O   17 0.915
    19  H   0.897    O   17 0.853
    20  N   2.968    H   23 0.977    H   22 0.976    H   21 0.946
    21  H   0.968    N   20 0.946
    22  H   0.980    N   20 0.976
    23  H   0.979    N   20 0.977
 MOs/occ written to file <molden.input>
 
molecular dipole:
                 x           y           z       tot (Debye)
 q only:       -0.499      -0.431      -1.082
   full:       -0.433      -0.198      -1.703       4.495
molecular quadrupole (traceless):
                xx          xy          yy          xz          yz          zz
 q only:      -15.291      -3.006       5.373      -3.119       1.081       9.917
  q+dip:      -19.668      -2.826       7.794      -2.434      -0.283      11.874
   full:      -20.267      -2.599       8.180      -2.666       0.111      12.087

SCC energy    :     -45.5988502
rep           :       0.2826248
ES            :       0.2175928
AES           :      -0.0390761
AXC           :      -0.0061220
disp          :      -0.0164504
XB            :       0.0000000
fix           :       0.0000000
total E       :     -45.3159765
atomizationE  :       4.3990390     2760.44
(atE without considering molecular charge,
 total energy contains solvation terms)
H-L gap (eV)  :          8.0292
           ------------------------------------------------- 
          |                 ===============                 |
          |                   A N C O P T                   |
          |                 ===============                 |
          |          Approximate Normal Coordinate          |
          |           Rational Function Optimizer           |
           ------------------------------------------------- 
dumping coords to <xtbopt.coord> and <xtbopt.log>
 optlevel               2
 Maxcycle             460
 Maxmicro              25
 Econv         1.000000000000000E-007
 Gconv         2.000000000000000E-004
 Maxdispl       1.00000000000000     
 Hlow          5.000000000000000E-003
 S6             20.0000000000000     
 Nvar               63

generating ANC from model Hessian ...
 Shifting diagonal of input Hessian by   5.053076721895386E-003
 Lowest  eigenvalues of input Hessian
    0.005000   -0.000000   -0.000000    0.000000    0.000000    0.000000
    0.000000    0.005282    0.005373    0.005641    0.005844    0.005896
    0.006256    0.006453    0.006719    0.007119    0.007312    0.008650
 Highest eigenvalues
    1.427081    1.443191    1.552609    3.212244    3.409609    3.461738
 
cpu  time for ANC gen    0.01 s
wall time for ANC gen    0.01 s
................................................................................
.............................. CYCLE    1 ......................................
................................................................................
   1    -45.5988502 -0.455989E+02  0.776E-05    8.03       0.0  T
   2    -45.5988502 -0.135074E-10  0.591E-05    8.03     352.6  T
   3    -45.5988502 -0.101892E-10  0.368E-05    8.03     566.1  T
speedup  1.11
cpu  time for SCC    0.00 s
wall time for SCC    0.00 s
speedup  1.00
cpu  time for grad    0.01 s
wall time for grad    0.01 s
 E :    -45.31597642  G :  0.182983    pred/act E change:  0.000D+00  0.378D-07
Maxdispl :   0.1746   ||displ|| :   0.3518   Lambda : -0.156D-01
Largest |displ|/coords:  0.1746 (  11)  0.1136 (  24)  0.1000 (  19)
................................................................................
.............................. CYCLE    2 ......................................
................................................................................
   1    -45.6038263 -0.456038E+02  0.357E-01    7.92       0.0  T
   2    -45.6040374 -0.211118E-03  0.271E-01    7.89       1.0  T
   3    -45.6040940 -0.566447E-04  0.136E-01    7.85       1.0  T
   4    -45.6041038 -0.980309E-05  0.240E-02    7.85       1.0  T
   5    -45.6041049 -0.108628E-05  0.677E-03    7.85       3.1  T
   6    -45.6041049 -0.427267E-07  0.259E-03    7.85       8.1  T
   7    -45.6041050 -0.131543E-07  0.131E-03    7.85      15.9  T
speedup  1.05
cpu  time for SCC    0.01 s
wall time for SCC    0.01 s
speedup  1.05
cpu  time for grad    0.01 s
wall time for grad    0.01 s
 E :    -45.32873001  G :  0.121705    pred/act E change:  0.000D+00 -0.128D-01
Maxdispl :   0.2012   ||displ|| :   0.3370   Lambda : -0.101D-01
Largest |displ|/coords:  0.2012 (  11)  0.1111 (  19)  0.0754 (  15)
................................................................................
.............................. CYCLE    3 ......................................
................................................................................
   1    -45.6107587 -0.456108E+02  0.268E-01    7.79       0.0  T
   2    -45.6109389 -0.180167E-03  0.209E-01    7.78       1.0  T
   3    -45.6109845 -0.455830E-04  0.120E-01    7.76       1.0  T
   4    -45.6109888 -0.426788E-05  0.229E-02    7.77       1.0  T
   5    -45.6109894 -0.686565E-06  0.492E-03    7.77       4.2  T
   6    -45.6109895 -0.242979E-07  0.177E-03    7.77      11.8  T
speedup  1.04
cpu  time for SCC    0.00 s
wall time for SCC    0.00 s
speedup  1.02
cpu  time for grad    0.01 s
wall time for grad    0.01 s
 E :    -45.33671173  G :  0.063700    pred/act E change: -0.878D-02 -0.798D-02
Maxdispl :   0.2081   ||displ|| :   0.3495   Lambda : -0.519D-02
Largest |displ|/coords:  0.2081 (  11)  0.0966 (   6)  0.0957 (   7)
................................................................................
.............................. CYCLE    4 ......................................
................................................................................
   1    -45.6139078 -0.456139E+02  0.267E-01    7.64       0.0  T
   2    -45.6140294 -0.121583E-03  0.204E-01    7.64       1.0  T
   3    -45.6140601 -0.306386E-04  0.953E-02    7.65       1.0  T
   4    -45.6140664 -0.630844E-05  0.202E-02    7.66       1.0  T
   5    -45.6140669 -0.508884E-06  0.418E-03    7.66       5.0  T
   6    -45.6140669 -0.188163E-07  0.178E-03    7.66      11.7  T
speedup  1.04
cpu  time for SCC    0.00 s
wall time for SCC    0.00 s
speedup  0.95
cpu  time for grad    0.01 s
wall time for grad    0.01 s
 E :    -45.34093275  G :  0.032558    pred/act E change: -0.563D-02 -0.422D-02
Maxdispl :   0.2538   ||displ|| :   0.5661   Lambda : -0.645D-02
Largest |displ|/coords:  0.2538 (   7)  0.2260 (  11)  0.1634 (  32)
................................................................................
.............................. CYCLE    5 ......................................
................................................................................
   1    -45.6161303 -0.456161E+02  0.493E-01    7.40       0.0  T
   2    -45.6164573 -0.326984E-03  0.374E-01    7.41       1.0  T
   3    -45.6165517 -0.943330E-04  0.140E-01    7.47       1.0  T
   4    -45.6165794 -0.277647E-04  0.385E-02    7.49       1.0  T
   5    -45.6165816 -0.214739E-05  0.846E-03    7.49       2.5  T
   6    -45.6165817 -0.893154E-07  0.448E-03    7.49       4.7  T
   7    -45.6165817 -0.304741E-07  0.188E-03    7.49      11.1  T
speedup  1.07
cpu  time for SCC    0.01 s
wall time for SCC    0.01 s
speedup  1.06
cpu  time for grad    0.01 s
wall time for grad    0.01 s
 E :    -45.34486322  G :  0.048696    pred/act E change: -0.291D-02 -0.393D-02
Maxdispl :   0.2690   ||displ|| :   0.5930   Lambda : -0.482D-02
Largest |displ|/coords:  0.2690 (  11)  0.2410 (   4)  0.2206 (  12)
................................................................................
.............................. CYCLE    6 ......................................
................................................................................
   1    -45.6027623 -0.456028E+02  0.655E-01    7.17       0.0  T
   2    -45.6031316 -0.369313E-03  0.492E-01    7.22       1.0  T
   3    -45.6032822 -0.150610E-03  0.125E-01    7.36       1.0  T
   4    -45.6033294 -0.471656E-04  0.413E-02    7.36       1.0  T
   5    -45.6033330 -0.356963E-05  0.983E-03    7.36       2.1  T
   6    -45.6033331 -0.108211E-06  0.637E-03    7.35       3.3  T
   7    -45.6033331 -0.464223E-07  0.185E-03    7.35      11.3  T
   8    -45.6033331 -0.550199E-08  0.546E-04    7.35      38.2  T
speedup  0.95
cpu  time for SCC    0.01 s
wall time for SCC    0.01 s
speedup  1.00
cpu  time for grad    0.01 s
wall time for grad    0.01 s
 E :    -45.34627943  G :  0.074117    pred/act E change: -0.426D-02 -0.142D-02
Maxdispl :   0.2015   ||displ|| :   0.4790   Lambda : -0.106D-01
Largest |displ|/coords:  0.2015 (   6)  0.1864 (   3)  0.1680 (   9)
................................................................................
.............................. CYCLE    7 ......................................
................................................................................
   1    -45.6141099 -0.456141E+02  0.812E-01    7.63       0.0  T
   2    -45.6144139 -0.304018E-03  0.616E-01    7.63       1.0  T
   3    -45.6145817 -0.167765E-03  0.119E-01    7.61       1.0  T
   4    -45.6146277 -0.460621E-04  0.348E-02    7.61       1.0  T
   5    -45.6146310 -0.330665E-05  0.104E-02    7.61       2.0  T
   6    -45.6146311 -0.341457E-07  0.555E-03    7.61       3.8  T
   7    -45.6146311 -0.436570E-07  0.120E-03    7.61      17.4  T
speedup  0.91
cpu  time for SCC    0.00 s
wall time for SCC    0.01 s
speedup  0.98
cpu  time for grad    0.01 s
wall time for grad    0.01 s
 E :    -45.34795788  G :  0.056424    pred/act E change: -0.326D-02 -0.168D-02
Maxdispl :   0.1121   ||displ|| :   0.3273   Lambda : -0.419D-02
Largest |displ|/coords:  0.1121 (  19)  0.1106 (   1)  0.1086 (   7)
................................................................................
.............................. CYCLE    8 ......................................
................................................................................
   1    -45.6176376 -0.456176E+02  0.351E-01    7.59       0.0  T
   2    -45.6177646 -0.126928E-03  0.261E-01    7.61       1.0  T
   3    -45.6178274 -0.628221E-04  0.735E-02    7.64       1.0  T
   4    -45.6178397 -0.123041E-04  0.260E-02    7.65       1.0  T
   5    -45.6178413 -0.160397E-05  0.740E-03    7.65       2.8  T
   6    -45.6178413 -0.433012E-07  0.405E-03    7.65       5.2  T
   7    -45.6178414 -0.200533E-07  0.126E-03    7.65      16.6  T
speedup  0.91
cpu  time for SCC    0.01 s
wall time for SCC    0.01 s
speedup  0.98
cpu  time for grad    0.01 s
wall time for grad    0.01 s
 E :    -45.34843478  G :  0.062675    pred/act E change: -0.650D-02 -0.477D-03
Maxdispl :   0.1491   ||displ|| :   0.3552   Lambda : -0.828D-02
Largest |displ|/coords:  0.1491 (  22)  0.1309 (  19)  0.1097 (  17)
................................................................................
.............................. CYCLE    9 ......................................
................................................................................
   1    -45.6082665 -0.456083E+02  0.504E-01    7.79       0.0  T
   2    -45.6084899 -0.223369E-03  0.375E-01    7.82       1.0  T
   3    -45.6085925 -0.102598E-03  0.100E-01    7.88       1.0  T
   4    -45.6086167 -0.242135E-04  0.312E-02    7.88       1.0  T
   5    -45.6086191 -0.239237E-05  0.807E-03    7.87       2.6  T
   6    -45.6086192 -0.760235E-07  0.486E-03    7.87       4.3  T
   7    -45.6086192 -0.316209E-07  0.183E-03    7.87      11.4  T
speedup  1.09
cpu  time for SCC    0.01 s
wall time for SCC    0.01 s
speedup  1.06
cpu  time for grad    0.01 s
wall time for grad    0.01 s
 E :    -45.34914731  G :  0.055288    pred/act E change: -0.232D-02 -0.713D-03
Maxdispl :   0.1226   ||displ|| :   0.3681   Lambda : -0.865D-02
Largest |displ|/coords:  0.1226 (  11)  0.1182 (  16)  0.1129 (  23)
................................................................................
.............................. CYCLE   10 ......................................
................................................................................
   1    -45.6157380 -0.456157E+02  0.454E-01    7.86       0.0  T
   2    -45.6159464 -0.208412E-03  0.341E-01    7.84       1.0  T
   3    -45.6160308 -0.844233E-04  0.935E-02    7.78       1.0  T
   4    -45.6160551 -0.242645E-04  0.308E-02    7.78       1.0  T
   5    -45.6160572 -0.217792E-05  0.747E-03    7.78       2.8  T
   6    -45.6160573 -0.547430E-07  0.415E-03    7.78       5.0  T
   7    -45.6160573 -0.196329E-07  0.173E-03    7.78      12.0  T
speedup  0.89
cpu  time for SCC    0.00 s
wall time for SCC    0.01 s
speedup  0.95
cpu  time for grad    0.01 s
wall time for grad    0.01 s
 E :    -45.35063217  G :  0.038859    pred/act E change: -0.466D-02 -0.148D-02
Maxdispl :   0.1181   ||displ|| :   0.2431   Lambda : -0.343D-02
Largest |displ|/coords:  0.1181 (  11)  0.0894 (  22)  0.0786 (   4)
................................................................................
.............................. CYCLE   11 ......................................
................................................................................
   1    -45.6205707 -0.456206E+02  0.280E-01    7.85       0.0  T
   2    -45.6206755 -0.104799E-03  0.212E-01    7.89       1.0  T
   3    -45.6207106 -0.350996E-04  0.683E-02    7.97       1.0  T
   4    -45.6207212 -0.105937E-04  0.207E-02    7.98       1.0  T
   5    -45.6207219 -0.695396E-06  0.304E-03    7.97       6.9  T
   6    -45.6207219 -0.186048E-07  0.190E-03    7.97      11.0  T
speedup  1.02
cpu  time for SCC    0.01 s
wall time for SCC    0.00 s
speedup  1.03
cpu  time for grad    0.01 s
wall time for grad    0.01 s
 E :    -45.35203898  G :  0.038667    pred/act E change: -0.491D-02 -0.141D-02
Maxdispl :   0.1338   ||displ|| :   0.3157   Lambda : -0.371D-02
Largest |displ|/coords:  0.1338 (   4)  0.0918 (  20)  0.0873 (  22)
................................................................................
.............................. CYCLE   12 ......................................
................................................................................
   1    -45.6052147 -0.456052E+02  0.408E-01    7.94       0.0  T
   2    -45.6053351 -0.120376E-03  0.303E-01    7.96       1.0  T
   3    -45.6054027 -0.676154E-04  0.668E-02    8.00       1.0  T
   4    -45.6054177 -0.150602E-04  0.179E-02    8.00       1.2  T
   5    -45.6054183 -0.546940E-06  0.625E-03    8.00       3.3  T
   6    -45.6054183 -0.475204E-07  0.360E-03    8.00       5.8  T
   7    -45.6054184 -0.191969E-07  0.826E-04    8.00      25.3  T
speedup  1.07
cpu  time for SCC    0.01 s
wall time for SCC    0.01 s
speedup  0.97
cpu  time for grad    0.01 s
wall time for grad    0.01 s
 E :    -45.35163790  G :  0.057068    pred/act E change: -0.182D-02  0.401D-03
Maxdispl :   0.1348   ||displ|| :   0.3532   Lambda : -0.778D-02
Largest |displ|/coords:  0.1348 (  20)  0.1135 (  15)  0.1087 (   6)
................................................................................
.............................. CYCLE   13 ......................................
................................................................................
   1    -45.6225020 -0.456225E+02  0.475E-01    8.15       0.0  T
   2    -45.6226861 -0.184079E-03  0.355E-01    8.14       1.0  T
   3    -45.6227974 -0.111315E-03  0.809E-02    8.10       1.0  T
   4    -45.6228192 -0.217720E-04  0.246E-02    8.10       1.0  T
   5    -45.6228201 -0.976089E-06  0.828E-03    8.10       2.5  T
   6    -45.6228202 -0.354992E-07  0.436E-03    8.10       4.8  T
   7    -45.6228202 -0.292272E-07  0.855E-04    8.10      24.4  T
speedup  0.70
cpu  time for SCC    0.00 s
wall time for SCC    0.01 s
speedup  0.88
cpu  time for grad    0.01 s
wall time for grad    0.01 s
 E :    -45.35213191  G :  0.047251    pred/act E change: -0.204D-02 -0.494D-03
Maxdispl :   0.0915   ||displ|| :   0.2057   Lambda : -0.299D-02
Largest |displ|/coords:  0.0915 (   4)  0.0630 (  15)  0.0617 (  32)
................................................................................
.............................. CYCLE   14 ......................................
................................................................................
   1    -45.6183859 -0.456184E+02  0.221E-01    8.06       0.0  T
   2    -45.6184278 -0.419197E-04  0.165E-01    8.07       1.0  T
   3    -45.6184482 -0.204584E-04  0.407E-02    8.11       1.0  T
   4    -45.6184536 -0.533027E-05  0.133E-02    8.12       1.6  T
   5    -45.6184540 -0.387789E-06  0.361E-03    8.11       5.8  T
   6    -45.6184540 -0.129551E-07  0.217E-03    8.11       9.6  T
speedup  1.02
cpu  time for SCC    0.01 s
wall time for SCC    0.00 s
speedup  1.03
cpu  time for grad    0.01 s
wall time for grad    0.01 s
 E :    -45.35382869  G :  0.019008    pred/act E change: -0.437D-02 -0.170D-02
Maxdispl :   0.1177   ||displ|| :   0.2939   Lambda : -0.187D-02
Largest |displ|/coords:  0.1177 (   8)  0.1087 (   5)  0.0867 (  22)
................................................................................
.............................. CYCLE   15 ......................................
................................................................................
   1    -45.6084649 -0.456085E+02  0.299E-01    8.13       0.0  T
   2    -45.6085053 -0.404020E-04  0.225E-01    8.15       1.0  T
   3    -45.6085342 -0.288309E-04  0.400E-02    8.18       1.0  T
   4    -45.6085396 -0.547472E-05  0.130E-02    8.17       1.6  T
   5    -45.6085399 -0.262458E-06  0.444E-03    8.17       4.7  T
   6    -45.6085399 -0.173026E-07  0.253E-03    8.17       8.2  T
   7    -45.6085399 -0.103387E-07  0.586E-04    8.17      35.6  T
speedup  1.07
cpu  time for SCC    0.01 s
wall time for SCC    0.01 s
speedup  0.96
cpu  time for grad    0.01 s
wall time for grad    0.01 s
 E :    -45.35358781  G :  0.039363    pred/act E change: -0.156D-02  0.241D-03
Maxdispl :   0.0535   ||displ|| :   0.1442   Lambda : -0.196D-02
Largest |displ|/coords:  0.0535 (   8)  0.0531 (  14)  0.0399 (  13)
................................................................................
.............................. CYCLE   16 ......................................
................................................................................
   1    -45.6158212 -0.456158E+02  0.149E-01    8.20       0.0  T
   2    -45.6158325 -0.113363E-04  0.111E-01    8.19       1.0  T
   3    -45.6158404 -0.787767E-05  0.208E-02    8.18       1.0  T
   4    -45.6158418 -0.144137E-05  0.632E-03    8.19       3.3  T
   5    -45.6158419 -0.597754E-07  0.248E-03    8.19       8.4  T
   6    -45.6158419 -0.420934E-08  0.127E-03    8.19      16.4  T
speedup  0.83
cpu  time for SCC    0.00 s
wall time for SCC    0.00 s
speedup  0.94
cpu  time for grad    0.01 s
wall time for grad    0.01 s
 E :    -45.35472241  G :  0.016812    pred/act E change: -0.101D-02 -0.113D-02
Maxdispl :   0.0657   ||displ|| :   0.1528   Lambda : -0.624D-03
Largest |displ|/coords:  0.0657 (  32)  0.0644 (   4)  0.0389 (   2)
................................................................................
.............................. CYCLE   17 ......................................
................................................................................
   1    -45.6158356 -0.456158E+02  0.123E-01    8.17       0.0  T
   2    -45.6158736 -0.380398E-04  0.925E-02    8.19       1.0  T
   3    -45.6158892 -0.155668E-04  0.387E-02    8.24       1.0  T
   4    -45.6158914 -0.217730E-05  0.117E-02    8.25       1.8  T
   5    -45.6158916 -0.264527E-06  0.294E-03    8.25       7.1  T
   6    -45.6158916 -0.107329E-07  0.170E-03    8.25      12.2  T
speedup  1.04
cpu  time for SCC    0.00 s
wall time for SCC    0.00 s
speedup  1.03
cpu  time for grad    0.01 s
wall time for grad    0.01 s
 E :    -45.35505383  G :  0.016203    pred/act E change: -0.100D-02 -0.331D-03
Maxdispl :   0.1486   ||displ|| :   0.3723   Lambda : -0.152D-02
Largest |displ|/coords:  0.1486 (   7)  0.1189 (   1)  0.1131 (  27)
................................................................................
.............................. CYCLE   18 ......................................
................................................................................
   1    -45.6183764 -0.456184E+02  0.253E-01    8.32       0.0  T
   2    -45.6184439 -0.674898E-04  0.190E-01    8.31       1.0  T
   3    -45.6184625 -0.186352E-04  0.546E-02    8.30       1.0  T
   4    -45.6184710 -0.848003E-05  0.147E-02    8.30       1.4  T
   5    -45.6184715 -0.490692E-06  0.293E-03    8.31       7.1  T
   6    -45.6184715 -0.679441E-08  0.172E-03    8.31      12.1  T
speedup  1.04
cpu  time for SCC    0.00 s
wall time for SCC    0.00 s
speedup  1.03
cpu  time for grad    0.01 s
wall time for grad    0.01 s
 E :    -45.35578827  G :  0.019977    pred/act E change: -0.319D-03 -0.734D-03
Maxdispl :   0.1225   ||displ|| :   0.2776   Lambda : -0.944D-03
Largest |displ|/coords:  0.1225 (   1)  0.0935 (   5)  0.0903 (  10)
................................................................................
.............................. CYCLE   19 ......................................
................................................................................
   1    -45.6156537 -0.456157E+02  0.167E-01    8.29       0.0  T
   2    -45.6156617 -0.801129E-05  0.125E-01    8.30       1.0  T
   3    -45.6156692 -0.746919E-05  0.174E-02    8.33       1.2  T
   4    -45.6156700 -0.849542E-06  0.714E-03    8.33       2.9  T
   5    -45.6156701 -0.599232E-07  0.212E-03    8.33       9.9  T
   6    -45.6156701 -0.513825E-08  0.122E-03    8.33      17.0  T
speedup  1.04
cpu  time for SCC    0.00 s
wall time for SCC    0.00 s
speedup  1.03
cpu  time for grad    0.01 s
wall time for grad    0.01 s
 E :    -45.35641926  G :  0.013803    pred/act E change: -0.865D-03 -0.631D-03
Maxdispl :   0.2344   ||displ|| :   0.3836   Lambda : -0.991D-03
Largest |displ|/coords:  0.2344 (   1)  0.1549 (   7)  0.1004 (  10)
................................................................................
.............................. CYCLE   20 ......................................
................................................................................
   1    -45.6126128 -0.456126E+02  0.245E-01    8.27       0.0  T
   2    -45.6126262 -0.133820E-04  0.185E-01    8.28       1.0  T
   3    -45.6126375 -0.113430E-04  0.223E-02    8.30       1.0  T
   4    -45.6126391 -0.161931E-05  0.894E-03    8.30       2.3  T
   5    -45.6126392 -0.895187E-07  0.272E-03    8.30       7.7  T
   6    -45.6126392 -0.757382E-08  0.162E-03    8.30      12.9  T
speedup  1.04
cpu  time for SCC    0.00 s
wall time for SCC    0.00 s
speedup  1.03
cpu  time for grad    0.01 s
wall time for grad    0.01 s
 E :    -45.35693522  G :  0.018853    pred/act E change: -0.509D-03 -0.516D-03
Maxdispl :   0.1824   ||displ|| :   0.2655   Lambda : -0.711D-03
Largest |displ|/coords:  0.1824 (   1)  0.0909 (  10)  0.0767 (   7)
................................................................................
.............................. CYCLE   21 ......................................
................................................................................
   1    -45.6141824 -0.456142E+02  0.117E-01    8.32       0.0  T
   2    -45.6141914 -0.896983E-05  0.869E-02    8.32       1.0  T
   3    -45.6141981 -0.668198E-05  0.178E-02    8.32       1.2  T
   4    -45.6141991 -0.101347E-05  0.433E-03    8.31       4.8  T
   5    -45.6141991 -0.299369E-07  0.201E-03    8.31      10.4  T
   6    -45.6141991 -0.322624E-08  0.100E-03    8.31      20.8  T
speedup  1.02
cpu  time for SCC    0.01 s
wall time for SCC    0.00 s
speedup  0.94
cpu  time for grad    0.01 s
wall time for grad    0.01 s
 E :    -45.35711322  G :  0.018871    pred/act E change: -0.569D-03 -0.178D-03
Maxdispl :   0.1906   ||displ|| :   0.2967   Lambda : -0.983D-03
Largest |displ|/coords:  0.1906 (   1)  0.1545 (   7)  0.0584 (  13)
................................................................................
.............................. CYCLE   22 ......................................
................................................................................
   1    -45.6107877 -0.456108E+02  0.194E-01    8.33       0.0  T
   2    -45.6108016 -0.139332E-04  0.146E-01    8.34       1.0  T
   3    -45.6108114 -0.978105E-05  0.226E-02    8.35       1.0  T
   4    -45.6108133 -0.197285E-05  0.714E-03    8.34       2.9  T
   5    -45.6108134 -0.742046E-07  0.263E-03    8.34       7.9  T
   6    -45.6108134 -0.585384E-08  0.143E-03    8.34      14.6  T
speedup  0.83
cpu  time for SCC    0.00 s
wall time for SCC    0.00 s
speedup  0.94
cpu  time for grad    0.01 s
wall time for grad    0.01 s
 E :    -45.35761410  G :  0.016213    pred/act E change: -0.381D-03 -0.501D-03
Maxdispl :   0.1515   ||displ|| :   0.2404   Lambda : -0.631D-03
Largest |displ|/coords:  0.1515 (   1)  0.1121 (   7)  0.0598 (   8)
................................................................................
.............................. CYCLE   23 ......................................
................................................................................
   1    -45.6141265 -0.456141E+02  0.173E-01    8.42       0.0  T
   2    -45.6141360 -0.947831E-05  0.129E-01    8.41       1.0  T
   3    -45.6141429 -0.694471E-05  0.185E-02    8.37       1.1  T
   4    -45.6141441 -0.114637E-05  0.700E-03    8.38       3.0  T
   5    -45.6141441 -0.544174E-07  0.241E-03    8.38       8.7  T
   6    -45.6141441 -0.692108E-08  0.126E-03    8.38      16.5  T
speedup  1.04
cpu  time for SCC    0.00 s
wall time for SCC    0.00 s
speedup  1.03
cpu  time for grad    0.01 s
wall time for grad    0.01 s
 E :    -45.35790610  G :  0.015390    pred/act E change: -0.535D-03 -0.292D-03
Maxdispl :   0.1554   ||displ|| :   0.1949   Lambda : -0.398D-03
Largest |displ|/coords:  0.1554 (   1)  0.0689 (   7)  0.0410 (   5)
................................................................................
.............................. CYCLE   24 ......................................
................................................................................
   1    -45.6168269 -0.456168E+02  0.100E-01    8.41       0.0  T
   2    -45.6168335 -0.653267E-05  0.739E-02    8.41       1.0  T
   3    -45.6168371 -0.361762E-05  0.174E-02    8.40       1.2  T
   4    -45.6168378 -0.757469E-06  0.411E-03    8.40       5.1  T
   5    -45.6168379 -0.337061E-07  0.168E-03    8.40      12.4  T
   6    -45.6168379 -0.238191E-08  0.940E-04    8.40      22.2  T
speedup  1.04
cpu  time for SCC    0.01 s
wall time for SCC    0.00 s
speedup  1.03
cpu  time for grad    0.01 s
wall time for grad    0.01 s
 E :    -45.35817165  G :  0.009495    pred/act E change: -0.334D-03 -0.266D-03
Maxdispl :   0.2751   ||displ|| :   0.3533   Lambda : -0.485D-03
Largest |displ|/coords:  0.2751 (   1)  0.0863 (   7)  0.0804 (  13)
................................................................................
.............................. CYCLE   25 ......................................
................................................................................
   1    -45.6167292 -0.456167E+02  0.181E-01    8.40       0.0  T
   2    -45.6167371 -0.792491E-05  0.134E-01    8.40       1.0  T
   3    -45.6167434 -0.627793E-05  0.228E-02    8.41       1.0  T
   4    -45.6167443 -0.946885E-06  0.705E-03    8.40       3.0  T
   5    -45.6167444 -0.470803E-07  0.226E-03    8.40       9.2  T
   6    -45.6167444 -0.691202E-08  0.130E-03    8.41      16.0  T
speedup  0.98
cpu  time for SCC    0.00 s
wall time for SCC    0.01 s
speedup  1.01
cpu  time for grad    0.01 s
wall time for grad    0.01 s
 E :    -45.35841937  G :  0.011279    pred/act E change: -0.207D-03 -0.248D-03
Maxdispl :   0.1600   ||displ|| :   0.2321   Lambda : -0.425D-03
Largest |displ|/coords:  0.1600 (   1)  0.0579 (   4)  0.0576 (   8)

generating ANC from model Hessian ...
 Shifting diagonal of input Hessian by   4.862038004813393E-003
 Lowest  eigenvalues of input Hessian
   -0.000000   -0.000000    0.000000    0.000000    0.000000    0.000000
    0.005000    0.005182    0.005303    0.005575    0.005781    0.006314
    0.006600    0.006984    0.008614    0.009557    0.010311    0.011556
 Highest eigenvalues
    1.402602    1.413745    1.430488    2.686017    3.333471    3.759929
 
cpu  time for ANC gen    0.01 s
wall time for ANC gen    0.01 s
................................................................................
.............................. CYCLE   26 ......................................
................................................................................
   1    -45.6203662 -0.456204E+02  0.135E-01    8.45       0.0  T
   2    -45.6203742 -0.804897E-05  0.998E-02    8.45       1.0  T
   3    -45.6203790 -0.479958E-05  0.222E-02    8.42       1.0  T
   4    -45.6203800 -0.966308E-06  0.840E-03    8.42       2.5  T
   5    -45.6203801 -0.764805E-07  0.210E-03    8.42       9.9  T
   6    -45.6203801 -0.461542E-08  0.128E-03    8.42      16.3  T
   7    -45.6203801 -0.248811E-08  0.330E-04    8.42      63.1  T
   8    -45.6203801 -0.220986E-09  0.827E-05    8.42     252.1  T
speedup  1.09
cpu  time for SCC    0.01 s
wall time for SCC    0.01 s
speedup  0.95
cpu  time for grad    0.01 s
wall time for grad    0.01 s
 E :    -45.35863375  G :  0.008556    pred/act E change:  0.000D+00 -0.214D-03
Maxdispl :   0.1202   ||displ|| :   0.2290   Lambda : -0.632D-03
Largest |displ|/coords:  0.1202 (   5)  0.0867 (  11)  0.0734 (  13)
................................................................................
.............................. CYCLE   27 ......................................
................................................................................
   1    -45.6191596 -0.456192E+02  0.244E-01    8.38       0.0  T
   2    -45.6191698 -0.101595E-04  0.185E-01    8.37       1.0  T
   3    -45.6191795 -0.978588E-05  0.203E-02    8.36       1.0  T
   4    -45.6191807 -0.112135E-05  0.713E-03    8.36       2.9  T
   5    -45.6191807 -0.450701E-07  0.237E-03    8.36       8.8  T
   6    -45.6191807 -0.354949E-08  0.107E-03    8.36      19.5  T
speedup  0.82
cpu  time for SCC    0.00 s
wall time for SCC    0.00 s
speedup  0.94
cpu  time for grad    0.01 s
wall time for grad    0.01 s
 E :    -45.35907944  G :  0.010791    pred/act E change:  0.000D+00 -0.446D-03
Maxdispl :   0.1648   ||displ|| :   0.3131   Lambda : -0.567D-03
Largest |displ|/coords:  0.1648 (   5)  0.1233 (   3)  0.1110 (  11)
................................................................................
.............................. CYCLE   28 ......................................
................................................................................
   1    -45.6164734 -0.456165E+02  0.253E-01    8.30       0.0  T
   2    -45.6164820 -0.852436E-05  0.190E-01    8.29       1.0  T
   3    -45.6164898 -0.788640E-05  0.170E-02    8.28       1.2  T
   4    -45.6164908 -0.997846E-06  0.674E-03    8.29       3.1  T
   5    -45.6164909 -0.430243E-07  0.264E-03    8.29       7.9  T
   6    -45.6164909 -0.665122E-08  0.131E-03    8.29      15.9  T
speedup  1.04
cpu  time for SCC    0.00 s
wall time for SCC    0.00 s
speedup  1.03
cpu  time for grad    0.01 s
wall time for grad    0.01 s
 E :    -45.35935587  G :  0.021105    pred/act E change: -0.332D-03 -0.276D-03
Maxdispl :   0.1210   ||displ|| :   0.2124   Lambda : -0.639D-03
Largest |displ|/coords:  0.1210 (   2)  0.0706 (   9)  0.0582 (   1)
................................................................................
.............................. CYCLE   29 ......................................
................................................................................
   1    -45.6182970 -0.456183E+02  0.151E-01    8.26       0.0  T
   2    -45.6183063 -0.925091E-05  0.113E-01    8.26       1.0  T
   3    -45.6183132 -0.689140E-05  0.185E-02    8.25       1.1  T
   4    -45.6183144 -0.118867E-05  0.499E-03    8.25       4.2  T
   5    -45.6183144 -0.302108E-07  0.236E-03    8.25       8.8  T
speedup  0.98
cpu  time for SCC    0.00 s
wall time for SCC    0.00 s
speedup  1.01
cpu  time for grad    0.01 s
wall time for grad    0.01 s
 E :    -45.35960379  G :  0.014590    pred/act E change: -0.311D-03 -0.248D-03
Maxdispl :   0.0829   ||displ|| :   0.1992   Lambda : -0.567D-03
Largest |displ|/coords:  0.0829 (   1)  0.0729 (   5)  0.0682 (   3)
................................................................................
.............................. CYCLE   30 ......................................
................................................................................
   1    -45.6199351 -0.456199E+02  0.146E-01    8.24       0.0  T
   2    -45.6199414 -0.628807E-05  0.111E-01    8.24       1.0  T
   3    -45.6199469 -0.551889E-05  0.161E-02    8.24       1.3  T
   4    -45.6199476 -0.758780E-06  0.535E-03    8.24       3.9  T
   5    -45.6199477 -0.417398E-07  0.196E-03    8.24      10.6  T
   6    -45.6199477 -0.265392E-08  0.103E-03    8.24      20.3  T
speedup  1.04
cpu  time for SCC    0.00 s
wall time for SCC    0.00 s
speedup  1.03
cpu  time for grad    0.01 s
wall time for grad    0.01 s
 E :    -45.35989809  G :  0.007084    pred/act E change: -0.334D-03 -0.294D-03
Maxdispl :   0.1560   ||displ|| :   0.3444   Lambda : -0.477D-03
Largest |displ|/coords:  0.1560 (   3)  0.1446 (   5)  0.1382 (   1)
................................................................................
.............................. CYCLE   31 ......................................
................................................................................
   1    -45.6163417 -0.456163E+02  0.243E-01    8.19       0.0  T
   2    -45.6163517 -0.100375E-04  0.183E-01    8.20       1.0  T
   3    -45.6163617 -0.100114E-04  0.216E-02    8.20       1.0  T
   4    -45.6163627 -0.997482E-06  0.624E-03    8.20       3.3  T
   5    -45.6163628 -0.478730E-07  0.276E-03    8.20       7.5  T
   6    -45.6163628 -0.701733E-08  0.146E-03    8.20      14.3  T
speedup  1.02
cpu  time for SCC    0.01 s
wall time for SCC    0.00 s
speedup  1.02
cpu  time for grad    0.01 s
wall time for grad    0.01 s
 E :    -45.36014816  G :  0.018593    pred/act E change: -0.295D-03 -0.250D-03
Maxdispl :   0.1359   ||displ|| :   0.2437   Lambda : -0.507D-03
Largest |displ|/coords:  0.1359 (   4)  0.0997 (   3)  0.0981 (   1)
................................................................................
.............................. CYCLE   32 ......................................
................................................................................
   1    -45.6167098 -0.456167E+02  0.144E-01    8.23       0.0  T
   2    -45.6167156 -0.576478E-05  0.108E-01    8.23       1.0  T
   3    -45.6167207 -0.513829E-05  0.153E-02    8.24       1.4  T
   4    -45.6167214 -0.683113E-06  0.567E-03    8.23       3.7  T
   5    -45.6167214 -0.320885E-07  0.202E-03    8.24      10.3  T
   6    -45.6167214 -0.483245E-08  0.115E-03    8.24      18.2  T
speedup  1.02
cpu  time for SCC    0.00 s
wall time for SCC    0.00 s
speedup  1.02
cpu  time for grad    0.01 s
wall time for grad    0.01 s
 E :    -45.36040642  G :  0.012327    pred/act E change: -0.267D-03 -0.258D-03
Maxdispl :   0.1481   ||displ|| :   0.2635   Lambda : -0.450D-03
Largest |displ|/coords:  0.1481 (   2)  0.1370 (   1)  0.1033 (   5)
................................................................................
.............................. CYCLE   33 ......................................
................................................................................
   1    -45.6178045 -0.456178E+02  0.151E-01    8.29       0.0  T
   2    -45.6178079 -0.340788E-05  0.113E-01    8.29       1.0  T
   3    -45.6178104 -0.258244E-05  0.146E-02    8.30       1.4  T
   4    -45.6178108 -0.396877E-06  0.434E-03    8.30       4.8  T
   5    -45.6178109 -0.193202E-07  0.137E-03    8.30      15.3  T
   6    -45.6178109 -0.228469E-08  0.819E-04    8.30      25.4  T
speedup  1.02
cpu  time for SCC    0.01 s
wall time for SCC    0.00 s
speedup  1.01
cpu  time for grad    0.01 s
wall time for grad    0.01 s
 E :    -45.36071357  G :  0.009657    pred/act E change: -0.269D-03 -0.307D-03
Maxdispl :   0.2009   ||displ|| :   0.3717   Lambda : -0.383D-03
Largest |displ|/coords:  0.2009 (   1)  0.1828 (   2)  0.1376 (   3)
................................................................................
.............................. CYCLE   34 ......................................
................................................................................
   1    -45.6168385 -0.456168E+02  0.230E-01    8.33       0.0  T
   2    -45.6168458 -0.725684E-05  0.172E-01    8.34       1.0  T
   3    -45.6168518 -0.605376E-05  0.239E-02    8.35       1.0  T
   4    -45.6168526 -0.788333E-06  0.625E-03    8.35       3.3  T
   5    -45.6168527 -0.553706E-07  0.231E-03    8.35       9.0  T
   6    -45.6168527 -0.698536E-08  0.144E-03    8.35      14.5  T
speedup  1.04
cpu  time for SCC    0.00 s
wall time for SCC    0.00 s
speedup  1.03
cpu  time for grad    0.01 s
wall time for grad    0.01 s
 E :    -45.36094720  G :  0.011657    pred/act E change: -0.240D-03 -0.234D-03
Maxdispl :   0.1072   ||displ|| :   0.1666   Lambda : -0.327D-03
Largest |displ|/coords:  0.1072 (   1)  0.0792 (   2)  0.0414 (  30)
................................................................................
.............................. CYCLE   35 ......................................
................................................................................
   1    -45.6218844 -0.456219E+02  0.973E-02    8.42       0.0  T
   2    -45.6218895 -0.511918E-05  0.705E-02    8.43       1.0  T
   3    -45.6218929 -0.334453E-05  0.160E-02    8.44       1.3  T
   4    -45.6218933 -0.466629E-06  0.523E-03    8.44       4.0  T
   5    -45.6218934 -0.360179E-07  0.150E-03    8.44      13.9  T
   6    -45.6218934 -0.299428E-08  0.886E-04    8.44      23.5  T
speedup  1.02
cpu  time for SCC    0.01 s
wall time for SCC    0.00 s
speedup  0.93
cpu  time for grad    0.01 s
wall time for grad    0.01 s
 E :    -45.36101135  G :  0.009716    pred/act E change: -0.218D-03 -0.642D-04
Maxdispl :   0.1534   ||displ|| :   0.2810   Lambda : -0.379D-03
Largest |displ|/coords:  0.1534 (   1)  0.1353 (   2)  0.0863 (   5)
................................................................................
.............................. CYCLE   36 ......................................
................................................................................
   1    -45.6183622 -0.456184E+02  0.199E-01    8.42       0.0  T
   2    -45.6183686 -0.641956E-05  0.150E-01    8.42       1.0  T
   3    -45.6183751 -0.654243E-05  0.178E-02    8.43       1.2  T
   4    -45.6183758 -0.635116E-06  0.697E-03    8.43       3.0  T
   5    -45.6183758 -0.449925E-07  0.233E-03    8.43       9.0  T
   6    -45.6183758 -0.686060E-08  0.144E-03    8.43      14.5  T
speedup  0.82
cpu  time for SCC    0.00 s
wall time for SCC    0.00 s
speedup  0.93
cpu  time for grad    0.01 s
wall time for grad    0.01 s
 E :    -45.36111342  G :  0.015775    pred/act E change: -0.168D-03 -0.102D-03
Maxdispl :   0.0903   ||displ|| :   0.1274   Lambda : -0.299D-03
Largest |displ|/coords:  0.0903 (   2)  0.0473 (   7)  0.0347 (   1)
................................................................................
.............................. CYCLE   37 ......................................
................................................................................
   1    -45.6179323 -0.456179E+02  0.805E-02    8.40       0.0  T
   2    -45.6179341 -0.183890E-05  0.592E-02    8.40       1.0  T
   3    -45.6179356 -0.150161E-05  0.102E-02    8.40       2.0  T
   4    -45.6179358 -0.174734E-06  0.431E-03    8.40       4.8  T
   5    -45.6179358 -0.169271E-07  0.106E-03    8.40      19.6  T
   6    -45.6179358 -0.137479E-08  0.648E-04    8.40      32.2  T
speedup  1.04
cpu  time for SCC    0.00 s
wall time for SCC    0.00 s
speedup  1.03
cpu  time for grad    0.01 s
wall time for grad    0.01 s
 E :    -45.36126203  G :  0.007287    pred/act E change: -0.204D-03 -0.149D-03
Maxdispl :   0.0401   ||displ|| :   0.0765   Lambda : -0.136D-03
Largest |displ|/coords:  0.0401 (   1)  0.0333 (   7)  0.0179 (  11)
................................................................................
.............................. CYCLE   38 ......................................
................................................................................
   1    -45.6191580 -0.456192E+02  0.535E-02    8.39       0.0  T
   2    -45.6191586 -0.586544E-06  0.397E-02    8.39       1.0  T
   3    -45.6191591 -0.531961E-06  0.642E-03    8.40       3.2  T
   4    -45.6191592 -0.533612E-07  0.203E-03    8.40      10.3  T
   5    -45.6191592 -0.455253E-08  0.505E-04    8.40      41.3  T
speedup  0.98
cpu  time for SCC    0.00 s
wall time for SCC    0.00 s
speedup  1.00
cpu  time for grad    0.01 s
wall time for grad    0.01 s
 E :    -45.36136053  G :  0.004440    pred/act E change: -0.152D-03 -0.985D-04
Maxdispl :   0.2260   ||displ|| :   0.3200   Lambda : -0.278D-03
Largest |displ|/coords:  0.2260 (   1)  0.1077 (   5)  0.0925 (   4)
................................................................................
.............................. CYCLE   39 ......................................
................................................................................
   1    -45.6184449 -0.456184E+02  0.204E-01    8.38       0.0  T
   2    -45.6184528 -0.790867E-05  0.154E-01    8.39       1.0  T
   3    -45.6184582 -0.546016E-05  0.170E-02    8.42       1.2  T
   4    -45.6184595 -0.126113E-05  0.752E-03    8.42       2.8  T
   5    -45.6184596 -0.647862E-07  0.221E-03    8.42       9.4  T
   6    -45.6184596 -0.556776E-08  0.141E-03    8.42      14.8  T
speedup  1.04
cpu  time for SCC    0.01 s
wall time for SCC    0.00 s
speedup  1.01
cpu  time for grad    0.01 s
wall time for grad    0.01 s
 E :    -45.36155799  G :  0.006162    pred/act E change: -0.684D-04 -0.197D-03
Maxdispl :   0.2348   ||displ|| :   0.3273   Lambda : -0.172D-03
Largest |displ|/coords:  0.2348 (   1)  0.1121 (   5)  0.0761 (   9)
................................................................................
.............................. CYCLE   40 ......................................
................................................................................
   1    -45.6162502 -0.456163E+02  0.211E-01    8.39       0.0  T
   2    -45.6162581 -0.780739E-05  0.159E-01    8.41       1.0  T
   3    -45.6162639 -0.584402E-05  0.169E-02    8.44       1.2  T
   4    -45.6162651 -0.119113E-05  0.682E-03    8.44       3.1  T
   5    -45.6162651 -0.552253E-07  0.239E-03    8.43       8.7  T
   6    -45.6162651 -0.644382E-08  0.144E-03    8.43      14.5  T
speedup  1.04
cpu  time for SCC    0.00 s
wall time for SCC    0.00 s
speedup  1.03
cpu  time for grad    0.01 s
wall time for grad    0.01 s
 E :    -45.36164915  G :  0.009464    pred/act E change: -0.153D-03 -0.912D-04
Maxdispl :   0.0979   ||displ|| :   0.1479   Lambda : -0.160D-03
Largest |displ|/coords:  0.0979 (   1)  0.0466 (   5)  0.0349 (   4)
................................................................................
.............................. CYCLE   41 ......................................
................................................................................
   1    -45.6172871 -0.456173E+02  0.946E-02    8.43       0.0  T
   2    -45.6172903 -0.315395E-05  0.699E-02    8.44       1.0  T
   3    -45.6172920 -0.177020E-05  0.117E-02    8.46       1.8  T
   4    -45.6172925 -0.407053E-06  0.307E-03    8.46       6.8  T
   5    -45.6172925 -0.116707E-07  0.106E-03    8.46      19.7  T
   6    -45.6172925 -0.124185E-08  0.623E-04    8.46      33.5  T
speedup  1.04
cpu  time for SCC    0.00 s
wall time for SCC    0.00 s
speedup  0.95
cpu  time for grad    0.01 s
wall time for grad    0.01 s
 E :    -45.36171506  G :  0.006482    pred/act E change: -0.954D-04 -0.659D-04
Maxdispl :   0.0766   ||displ|| :   0.1388   Lambda : -0.905D-04
Largest |displ|/coords:  0.0766 (   1)  0.0748 (   5)  0.0512 (   4)
................................................................................
.............................. CYCLE   42 ......................................
................................................................................
   1    -45.6167121 -0.456167E+02  0.880E-02    8.46       0.0  T
   2    -45.6167142 -0.217896E-05  0.664E-02    8.47       1.0  T
   3    -45.6167162 -0.190885E-05  0.893E-03    8.49       2.3  T
   4    -45.6167164 -0.286073E-06  0.304E-03    8.48       6.8  T
   5    -45.6167164 -0.113560E-07  0.126E-03    8.48      16.5  T
   6    -45.6167165 -0.210999E-08  0.643E-04    8.48      32.4  T
speedup  1.06
cpu  time for SCC    0.01 s
wall time for SCC    0.00 s
speedup  1.04
cpu  time for grad    0.01 s
wall time for grad    0.01 s
 E :    -45.36176378  G :  0.004638    pred/act E change: -0.819D-04 -0.487D-04
Maxdispl :   0.0467   ||displ|| :   0.0925   Lambda : -0.752D-04
Largest |displ|/coords:  0.0467 (   5)  0.0299 (   1)  0.0224 (  13)
................................................................................
.............................. CYCLE   43 ......................................
................................................................................
   1    -45.6165667 -0.456166E+02  0.683E-02    8.49       0.0  T
   2    -45.6165681 -0.144604E-05  0.508E-02    8.49       1.0  T
   3    -45.6165693 -0.113614E-05  0.814E-03    8.50       2.6  T
   4    -45.6165694 -0.172546E-06  0.272E-03    8.50       7.7  T
   5    -45.6165694 -0.891387E-08  0.965E-04    8.50      21.6  T
speedup  1.00
cpu  time for SCC    0.00 s
wall time for SCC    0.00 s
speedup  1.02
cpu  time for grad    0.01 s
wall time for grad    0.01 s
 E :    -45.36180268  G :  0.004052    pred/act E change: -0.461D-04 -0.389D-04
Maxdispl :   0.0367   ||displ|| :   0.0729   Lambda : -0.475D-04
Largest |displ|/coords:  0.0367 (   9)  0.0339 (   5)  0.0252 (   7)
................................................................................
.............................. CYCLE   44 ......................................
................................................................................
   1    -45.6167730 -0.456168E+02  0.426E-02    8.52       0.0  T
   2    -45.6167738 -0.847530E-06  0.314E-02    8.53       1.0  T
   3    -45.6167742 -0.395005E-06  0.620E-03    8.53       3.4  T
   4    -45.6167743 -0.107027E-06  0.179E-03    8.53      11.7  T
   5    -45.6167744 -0.617884E-08  0.602E-04    8.53      34.6  T
speedup  0.98
cpu  time for SCC    0.00 s
wall time for SCC    0.00 s
speedup  1.01
cpu  time for grad    0.01 s
wall time for grad    0.01 s
 E :    -45.36183466  G :  0.003174    pred/act E change: -0.379D-04 -0.320D-04
Maxdispl :   0.0758   ||displ|| :   0.1453   Lambda : -0.647D-04
Largest |displ|/coords:  0.0758 (   5)  0.0460 (   9)  0.0456 (   4)
................................................................................
.............................. CYCLE   45 ......................................
................................................................................
   1    -45.6171353 -0.456171E+02  0.100E-01    8.55       0.0  T
   2    -45.6171386 -0.329245E-05  0.744E-02    8.55       1.0  T
   3    -45.6171404 -0.179064E-05  0.114E-02    8.57       1.8  T
   4    -45.6171409 -0.495755E-06  0.351E-03    8.57       5.9  T
   5    -45.6171409 -0.166306E-07  0.125E-03    8.56      16.6  T
   6    -45.6171409 -0.204739E-08  0.704E-04    8.56      29.6  T
   7    -45.6171409 -0.809990E-09  0.212E-04    8.56      98.3  T
speedup  0.91
cpu  time for SCC    0.01 s
wall time for SCC    0.01 s
speedup  1.02
cpu  time for grad    0.01 s
wall time for grad    0.01 s
 E :    -45.36186138  G :  0.004890    pred/act E change: -0.239D-04 -0.267D-04
Maxdispl :   0.0212   ||displ|| :   0.0561   Lambda : -0.348D-04
Largest |displ|/coords:  0.0212 (   1)  0.0212 (   5)  0.0182 (   6)
................................................................................
.............................. CYCLE   46 ......................................
................................................................................
   1    -45.6171277 -0.456171E+02  0.375E-02    8.56       0.0  T
   2    -45.6171284 -0.657356E-06  0.279E-02    8.56       1.0  T
   3    -45.6171288 -0.401629E-06  0.521E-03    8.57       4.0  T
   4    -45.6171289 -0.905624E-07  0.193E-03    8.57      10.8  T
   5    -45.6171289 -0.412673E-08  0.511E-04    8.57      40.8  T
speedup  1.00
cpu  time for SCC    0.00 s
wall time for SCC    0.00 s
speedup  1.01
cpu  time for grad    0.01 s
wall time for grad    0.01 s
 E :    -45.36188449  G :  0.003159    pred/act E change: -0.330D-04 -0.231D-04
Maxdispl :   0.0843   ||displ|| :   0.1375   Lambda : -0.311D-04
Largest |displ|/coords:  0.0843 (   1)  0.0520 (   5)  0.0465 (   4)
................................................................................
.............................. CYCLE   47 ......................................
................................................................................
   1    -45.6156816 -0.456157E+02  0.788E-02    8.56       0.0  T
   2    -45.6156850 -0.340938E-05  0.593E-02    8.57       1.0  T
   3    -45.6156866 -0.160862E-05  0.107E-02    8.58       1.9  T
   4    -45.6156872 -0.587541E-06  0.449E-03    8.58       4.6  T
   5    -45.6156872 -0.339526E-07  0.123E-03    8.58      17.0  T
   6    -45.6156872 -0.206308E-08  0.725E-04    8.58      28.8  T
   7    -45.6156872 -0.941199E-09  0.222E-04    8.58      94.1  T
speedup  1.07
cpu  time for SCC    0.01 s
wall time for SCC    0.01 s
speedup  1.01
cpu  time for grad    0.01 s
wall time for grad    0.01 s
 E :    -45.36189931  G :  0.003201    pred/act E change: -0.175D-04 -0.148D-04
Maxdispl :   0.0382   ||displ|| :   0.0845   Lambda : -0.408D-04
Largest |displ|/coords:  0.0382 (   3)  0.0321 (   9)  0.0317 (   8)
................................................................................
.............................. CYCLE   48 ......................................
................................................................................
   1    -45.6169465 -0.456169E+02  0.519E-02    8.60       0.0  T
   2    -45.6169485 -0.207909E-05  0.392E-02    8.60       1.0  T
   3    -45.6169495 -0.952523E-06  0.882E-03    8.60       2.4  T
   4    -45.6169498 -0.326627E-06  0.395E-03    8.60       5.3  T
   5    -45.6169498 -0.180349E-07  0.756E-04    8.60      27.6  T
   6    -45.6169498 -0.865903E-09  0.425E-04    8.60      49.1  T
speedup  1.04
cpu  time for SCC    0.01 s
wall time for SCC    0.00 s
speedup  1.07
cpu  time for grad    0.01 s
wall time for grad    0.01 s
 E :    -45.36191103  G :  0.004043    pred/act E change: -0.159D-04 -0.117D-04
Maxdispl :   0.0264   ||displ|| :   0.0562   Lambda : -0.264D-04
Largest |displ|/coords:  0.0264 (   1)  0.0205 (   4)  0.0184 (   5)
................................................................................
.............................. CYCLE   49 ......................................
................................................................................
   1    -45.6162227 -0.456162E+02  0.366E-02    8.60       0.0  T
   2    -45.6162233 -0.598063E-06  0.274E-02    8.60       1.0  T
   3    -45.6162236 -0.334042E-06  0.459E-03    8.61       4.5  T
   4    -45.6162237 -0.932841E-07  0.161E-03    8.61      13.0  T
   5    -45.6162237 -0.403838E-08  0.572E-04    8.61      36.5  T
speedup  1.00
cpu  time for SCC    0.00 s
wall time for SCC    0.00 s
speedup  1.01
cpu  time for grad    0.01 s
wall time for grad    0.01 s
 E :    -45.36192802  G :  0.002512    pred/act E change: -0.205D-04 -0.170D-04
Maxdispl :   0.0543   ||displ|| :   0.0957   Lambda : -0.218D-04
Largest |displ|/coords:  0.0543 (   1)  0.0349 (   5)  0.0297 (   4)
................................................................................
.............................. CYCLE   50 ......................................
................................................................................
   1    -45.6155106 -0.456155E+02  0.553E-02    8.62       0.0  T
   2    -45.6155127 -0.208919E-05  0.417E-02    8.63       1.0  T
   3    -45.6155138 -0.104089E-05  0.850E-03    8.64       2.5  T
   4    -45.6155141 -0.342935E-06  0.311E-03    8.64       6.7  T
   5    -45.6155141 -0.178155E-07  0.104E-03    8.64      20.1  T
   6    -45.6155141 -0.158963E-08  0.526E-04    8.64      39.7  T
   7    -45.6155141 -0.488754E-09  0.157E-04    8.64     133.1  T
speedup  0.91
cpu  time for SCC    0.00 s
wall time for SCC    0.01 s
speedup  0.93
cpu  time for grad    0.01 s
wall time for grad    0.01 s
 E :    -45.36194105  G :  0.002876    pred/act E change: -0.133D-04 -0.130D-04
Maxdispl :   0.0641   ||displ|| :   0.1288   Lambda : -0.269D-04
Largest |displ|/coords:  0.0641 (   1)  0.0436 (   3)  0.0344 (   4)
................................................................................
.............................. CYCLE   51 ......................................
................................................................................
   1    -45.6145653 -0.456146E+02  0.772E-02    8.65       0.0  T
   2    -45.6145703 -0.504912E-05  0.578E-02    8.66       1.0  T
   3    -45.6145727 -0.241251E-05  0.135E-02    8.69       1.5  T
   4    -45.6145735 -0.715859E-06  0.489E-03    8.68       4.3  T
   5    -45.6145735 -0.390951E-07  0.149E-03    8.68      14.0  T
   6    -45.6145735 -0.339335E-08  0.772E-04    8.68      27.0  T
   7    -45.6145735 -0.107641E-08  0.235E-04    8.68      88.6  T
speedup  1.09
cpu  time for SCC    0.01 s
wall time for SCC    0.01 s
speedup  1.01
cpu  time for grad    0.01 s
wall time for grad    0.01 s
 E :    -45.36195674  G :  0.004184    pred/act E change: -0.110D-04 -0.157D-04
Maxdispl :   0.0887   ||displ|| :   0.1981   Lambda : -0.511D-04
Largest |displ|/coords:  0.0887 (   1)  0.0885 (   3)  0.0575 (   4)
................................................................................
.............................. CYCLE   52 ......................................
................................................................................
   1    -45.6139859 -0.456140E+02  0.118E-01    8.71       0.0  T
   2    -45.6140007 -0.148796E-04  0.892E-02    8.73       1.0  T
   3    -45.6140078 -0.707185E-05  0.233E-02    8.77       1.0  T
   4    -45.6140099 -0.204378E-05  0.877E-03    8.77       2.4  T
   5    -45.6140100 -0.122549E-06  0.249E-03    8.77       8.4  T
   6    -45.6140100 -0.853279E-08  0.135E-03    8.77      15.4  T
speedup  1.02
cpu  time for SCC    0.00 s
wall time for SCC    0.00 s
speedup  1.01
cpu  time for grad    0.01 s
wall time for grad    0.01 s
 E :    -45.36199752  G :  0.005437    pred/act E change: -0.137D-04 -0.408D-04
Maxdispl :   0.2642   ||displ|| :   0.5792   Lambda : -0.165D-03
Largest |displ|/coords:  0.2642 (   1)  0.2459 (   3)  0.1572 (   8)

generating ANC from model Hessian ...
 Shifting diagonal of input Hessian by   4.750861066573474E-003
 Lowest  eigenvalues of input Hessian
   -0.000000    0.000000    0.000000    0.000000    0.000000    0.000000
    0.005000    0.005440    0.006349    0.006530    0.006659    0.007073
    0.008421    0.008835    0.009740    0.010242    0.012224    0.012527
 Highest eigenvalues
    1.378024    1.387664    1.417770    2.600561    3.347077    3.709996
 
cpu  time for ANC gen    0.01 s
wall time for ANC gen    0.01 s
................................................................................
.............................. CYCLE   53 ......................................
................................................................................
   1    -45.6097085 -0.456097E+02  0.359E-01    8.81       0.0  T
   2    -45.6098582 -0.149691E-03  0.271E-01    8.88       1.0  T
   3    -45.6099308 -0.726335E-04  0.735E-02    9.02       1.0  T
   4    -45.6099508 -0.199832E-04  0.274E-02    9.01       1.0  T
   5    -45.6099520 -0.114936E-05  0.784E-03    9.01       2.7  T
   6    -45.6099520 -0.749269E-07  0.445E-03    9.01       4.7  T
   7    -45.6099521 -0.336314E-07  0.127E-03    9.01      16.4  T
   8    -45.6099521 -0.389280E-08  0.334E-04    9.01      62.4  T
   9    -45.6099521 -0.271818E-09  0.125E-04    9.01     167.4  T
speedup  1.10
cpu  time for SCC    0.01 s
wall time for SCC    0.01 s
speedup  1.02
cpu  time for grad    0.01 s
wall time for grad    0.01 s
 E :    -45.36215522  G :  0.013843    pred/act E change:  0.000D+00 -0.158D-03
Maxdispl :   0.0609   ||displ|| :   0.1284   Lambda : -0.406D-03
Largest |displ|/coords:  0.0609 (   6)  0.0515 (   9)  0.0378 (  11)
................................................................................
.............................. CYCLE   54 ......................................
................................................................................
   1    -45.6120234 -0.456120E+02  0.123E-01    9.02       0.0  T
   2    -45.6120265 -0.310080E-05  0.931E-02    9.02       1.0  T
   3    -45.6120289 -0.244066E-05  0.101E-02    9.03       2.1  T
   4    -45.6120294 -0.469341E-06  0.293E-03    9.03       7.1  T
   5    -45.6120294 -0.771076E-08  0.128E-03    9.03      16.3  T
speedup  0.95
cpu  time for SCC    0.00 s
wall time for SCC    0.00 s
speedup  0.98
cpu  time for grad    0.01 s
wall time for grad    0.01 s
 E :    -45.36242741  G :  0.008907    pred/act E change:  0.000D+00 -0.272D-03
Maxdispl :   0.0587   ||displ|| :   0.1376   Lambda : -0.259D-03
Largest |displ|/coords:  0.0587 (  10)  0.0556 (   1)  0.0426 (   6)
................................................................................
.............................. CYCLE   55 ......................................
................................................................................
   1    -45.6138484 -0.456138E+02  0.114E-01    9.05       0.0  T
   2    -45.6138531 -0.470341E-05  0.860E-02    9.05       1.0  T
   3    -45.6138557 -0.258428E-05  0.129E-02    9.07       1.6  T
   4    -45.6138565 -0.853759E-06  0.318E-03    9.07       6.6  T
   5    -45.6138566 -0.202069E-07  0.142E-03    9.07      14.7  T
   6    -45.6138566 -0.161844E-08  0.810E-04    9.07      25.7  T
speedup  0.80
cpu  time for SCC    0.00 s
wall time for SCC    0.01 s
speedup  0.92
cpu  time for grad    0.01 s
wall time for grad    0.01 s
 E :    -45.36259078  G :  0.007206    pred/act E change: -0.206D-03 -0.163D-03
Maxdispl :   0.0709   ||displ|| :   0.1687   Lambda : -0.205D-03
Largest |displ|/coords:  0.0709 (   9)  0.0676 (   1)  0.0560 (   2)
................................................................................
.............................. CYCLE   56 ......................................
................................................................................
   1    -45.6145153 -0.456145E+02  0.121E-01    9.07       0.0  T
   2    -45.6145211 -0.580404E-05  0.904E-02    9.08       1.0  T
   3    -45.6145238 -0.271831E-05  0.148E-02    9.11       1.4  T
   4    -45.6145248 -0.945466E-06  0.395E-03    9.11       5.3  T
   5    -45.6145248 -0.311709E-07  0.168E-03    9.11      12.4  T
   6    -45.6145248 -0.297561E-08  0.993E-04    9.11      21.0  T
speedup  1.04
cpu  time for SCC    0.00 s
wall time for SCC    0.00 s
speedup  1.02
cpu  time for grad    0.01 s
wall time for grad    0.01 s
 E :    -45.36268489  G :  0.008440    pred/act E change: -0.132D-03 -0.941D-04
Maxdispl :   0.1086   ||displ|| :   0.1919   Lambda : -0.263D-03
Largest |displ|/coords:  0.1086 (   1)  0.0674 (  11)  0.0589 (   7)
................................................................................
.............................. CYCLE   57 ......................................
................................................................................
   1    -45.6139923 -0.456140E+02  0.147E-01    9.12       0.0  T
   2    -45.6140034 -0.111176E-04  0.111E-01    9.14       1.0  T
   3    -45.6140090 -0.558336E-05  0.196E-02    9.18       1.1  T
   4    -45.6140109 -0.192391E-05  0.592E-03    9.17       3.5  T
   5    -45.6140110 -0.847428E-07  0.205E-03    9.17      10.2  T
   6    -45.6140110 -0.322026E-08  0.122E-03    9.17      17.1  T
speedup  1.04
cpu  time for SCC    0.00 s
wall time for SCC    0.00 s
speedup  1.03
cpu  time for grad    0.01 s
wall time for grad    0.01 s
 E :    -45.36284011  G :  0.008845    pred/act E change: -0.105D-03 -0.155D-03
Maxdispl :   0.1029   ||displ|| :   0.1509   Lambda : -0.271D-03
Largest |displ|/coords:  0.1029 (   1)  0.0476 (   3)  0.0344 (   7)
................................................................................
.............................. CYCLE   58 ......................................
................................................................................
   1    -45.6140665 -0.456141E+02  0.981E-02    9.18       0.0  T
   2    -45.6140778 -0.113588E-04  0.733E-02    9.20       1.0  T
   3    -45.6140832 -0.537548E-05  0.212E-02    9.23       1.0  T
   4    -45.6140844 -0.120636E-05  0.634E-03    9.23       3.3  T
   5    -45.6140845 -0.815341E-07  0.209E-03    9.23      10.0  T
   6    -45.6140845 -0.475577E-08  0.115E-03    9.23      18.2  T
speedup  1.02
cpu  time for SCC    0.00 s
wall time for SCC    0.00 s
speedup  1.01
cpu  time for grad    0.01 s
wall time for grad    0.01 s
 E :    -45.36304646  G :  0.009750    pred/act E change: -0.136D-03 -0.206D-03
Maxdispl :   0.1368   ||displ|| :   0.2595   Lambda : -0.481D-03
Largest |displ|/coords:  0.1368 (   1)  0.0812 (   8)  0.0741 (   3)
................................................................................
.............................. CYCLE   59 ......................................
................................................................................
   1    -45.6125287 -0.456125E+02  0.183E-01    9.22       0.0  T
   2    -45.6125624 -0.337116E-04  0.138E-01    9.23       1.0  T
   3    -45.6125793 -0.168872E-04  0.378E-02    9.24       1.0  T
   4    -45.6125833 -0.403159E-05  0.118E-02    9.23       1.8  T
   5    -45.6125836 -0.239871E-06  0.386E-03    9.24       5.4  T
   6    -45.6125836 -0.150032E-07  0.202E-03    9.24      10.3  T
   7    -45.6125836 -0.611130E-08  0.636E-04    9.24      32.8  T
speedup  1.09
cpu  time for SCC    0.01 s
wall time for SCC    0.01 s
speedup  1.05
cpu  time for grad    0.01 s
wall time for grad    0.01 s
 E :    -45.36327095  G :  0.009166    pred/act E change: -0.139D-03 -0.224D-03
Maxdispl :   0.0591   ||displ|| :   0.1278   Lambda : -0.289D-03
Largest |displ|/coords:  0.0591 (   1)  0.0526 (  10)  0.0396 (  23)
................................................................................
.............................. CYCLE   60 ......................................
................................................................................
   1    -45.6136574 -0.456137E+02  0.123E-01    9.24       0.0  T
   2    -45.6136601 -0.268193E-05  0.932E-02    9.24       1.0  T
   3    -45.6136627 -0.261617E-05  0.105E-02    9.24       2.0  T
   4    -45.6136629 -0.249009E-06  0.228E-03    9.24       9.1  T
   5    -45.6136629 -0.467032E-08  0.120E-03    9.24      17.4  T
speedup  1.00
cpu  time for SCC    0.00 s
wall time for SCC    0.00 s
speedup  0.99
cpu  time for grad    0.01 s
wall time for grad    0.01 s
 E :    -45.36346124  G :  0.010537    pred/act E change: -0.257D-03 -0.190D-03
Maxdispl :   0.0368   ||displ|| :   0.1145   Lambda : -0.287D-03
Largest |displ|/coords:  0.0368 (  10)  0.0363 (  23)  0.0325 (   1)
................................................................................
.............................. CYCLE   61 ......................................
................................................................................
   1    -45.6119638 -0.456120E+02  0.106E-01    9.23       0.0  T
   2    -45.6119674 -0.358961E-05  0.801E-02    9.23       1.0  T
   3    -45.6119702 -0.287318E-05  0.134E-02    9.23       1.6  T
   4    -45.6119707 -0.456511E-06  0.512E-03    9.23       4.1  T
   5    -45.6119707 -0.204605E-07  0.121E-03    9.23      17.2  T
   6    -45.6119707 -0.174635E-08  0.750E-04    9.23      27.8  T
speedup  0.85
cpu  time for SCC    0.00 s
wall time for SCC    0.00 s
speedup  0.95
cpu  time for grad    0.01 s
wall time for grad    0.01 s
 E :    -45.36364488  G :  0.006598    pred/act E change: -0.147D-03 -0.184D-03
Maxdispl :   0.0324   ||displ|| :   0.0973   Lambda : -0.129D-03
Largest |displ|/coords:  0.0324 (   8)  0.0293 (  11)  0.0276 (  14)
................................................................................
.............................. CYCLE   62 ......................................
................................................................................
   1    -45.6118705 -0.456119E+02  0.946E-02    9.23       0.0  T
   2    -45.6118746 -0.402076E-05  0.718E-02    9.22       1.0  T
   3    -45.6118773 -0.278080E-05  0.133E-02    9.22       1.6  T
   4    -45.6118779 -0.605745E-06  0.487E-03    9.22       4.3  T
   5    -45.6118780 -0.205628E-07  0.147E-03    9.22      14.2  T
   6    -45.6118780 -0.278461E-08  0.794E-04    9.22      26.3  T
speedup  1.06
cpu  time for SCC    0.01 s
wall time for SCC    0.00 s
speedup  1.04
cpu  time for grad    0.01 s
wall time for grad    0.01 s
 E :    -45.36371448  G :  0.004546    pred/act E change: -0.145D-03 -0.696D-04
Maxdispl :   0.0366   ||displ|| :   0.0608   Lambda : -0.591D-04
Largest |displ|/coords:  0.0366 (   3)  0.0194 (   8)  0.0178 (   4)
................................................................................
.............................. CYCLE   63 ......................................
................................................................................
   1    -45.6120807 -0.456121E+02  0.370E-02    9.23       0.0  T
   2    -45.6120810 -0.329157E-06  0.277E-02    9.23       1.0  T
   3    -45.6120812 -0.196241E-06  0.374E-03    9.23       5.6  T
   4    -45.6120813 -0.489999E-07  0.161E-03    9.23      12.9  T
   5    -45.6120813 -0.231592E-08  0.346E-04    9.23      60.2  T
speedup  1.03
cpu  time for SCC    0.00 s
wall time for SCC    0.00 s
speedup  0.93
cpu  time for grad    0.01 s
wall time for grad    0.01 s
 E :    -45.36374467  G :  0.002379    pred/act E change: -0.651D-04 -0.302D-04
Maxdispl :   0.0313   ||displ|| :   0.0513   Lambda : -0.326D-04
Largest |displ|/coords:  0.0313 (   5)  0.0188 (   7)  0.0160 (   6)
................................................................................
.............................. CYCLE   64 ......................................
................................................................................
   1    -45.6125585 -0.456126E+02  0.331E-02    9.23       0.0  T
   2    -45.6125587 -0.181190E-06  0.248E-02    9.23       1.0  T
   3    -45.6125588 -0.195322E-06  0.318E-03    9.23       6.6  T
   4    -45.6125589 -0.134491E-07  0.112E-03    9.23      18.6  T
   5    -45.6125589 -0.141397E-08  0.342E-04    9.23      60.9  T
   6    -45.6125589 -0.137312E-09  0.212E-04    9.23      98.2  T
speedup  0.87
cpu  time for SCC    0.00 s
wall time for SCC    0.00 s
speedup  0.93
cpu  time for grad    0.01 s
wall time for grad    0.01 s
 E :    -45.36376148  G :  0.001995    pred/act E change: -0.297D-04 -0.168D-04
Maxdispl :   0.0104   ||displ|| :   0.0302   Lambda : -0.154D-04
Largest |displ|/coords:  0.0104 (   3)  0.0099 (   6)  0.0098 (  10)
................................................................................
.............................. CYCLE   65 ......................................
................................................................................
   1    -45.6128948 -0.456129E+02  0.221E-02    9.24       0.0  T
   2    -45.6128949 -0.126386E-06  0.164E-02    9.24       1.3  T
   3    -45.6128950 -0.109763E-06  0.274E-03    9.24       7.6  T
   4    -45.6128950 -0.109244E-07  0.907E-04    9.24      23.0  T
   5    -45.6128950 -0.118813E-08  0.221E-04    9.24      94.4  T
speedup  1.00
cpu  time for SCC    0.00 s
wall time for SCC    0.00 s
speedup  0.96
cpu  time for grad    0.01 s
wall time for grad    0.01 s
 E :    -45.36377037  G :  0.001419    pred/act E change: -0.164D-04 -0.889D-05
Maxdispl :   0.0284   ||displ|| :   0.0488   Lambda : -0.924D-05
Largest |displ|/coords:  0.0284 (   1)  0.0174 (   5)  0.0149 (   3)
................................................................................
[...]
Maxdispl :   0.0127   ||displ|| :   0.0239   Lambda : -0.211D-05
Largest |displ|/coords:  0.0127 (   5)  0.0084 (   1)  0.0072 (  13)
................................................................................
.............................. CYCLE   69 ......................................
................................................................................
   1    -45.6126956 -0.456127E+02  0.135E-02    9.23       0.0  T
   2    -45.6126956 -0.330374E-07  0.101E-02    9.23       2.1  T
   3    -45.6126956 -0.365245E-07  0.138E-03    9.23      15.1  T
   4    -45.6126956 -0.241600E-08  0.490E-04    9.23      42.6  T
   5    -45.6126956 -0.259490E-09  0.135E-04    9.23     154.0  T
speedup  1.00
cpu  time for SCC    0.00 s
wall time for SCC    0.00 s
speedup  0.98
cpu  time for grad    0.01 s
wall time for grad    0.01 s
 E :    -45.36378211  G :  0.000541    pred/act E change: -0.117D-05 -0.134D-05
Maxdispl :   0.0078   ||displ|| :   0.0175   Lambda : -0.122D-05
Largest |displ|/coords:  0.0078 (   9)  0.0071 (   5)  0.0061 (   7)
................................................................................
.............................. CYCLE   70 ......................................
................................................................................
   1    -45.6126706 -0.456127E+02  0.102E-02    9.23       0.0  T
   2    -45.6126707 -0.204385E-07  0.765E-03    9.23       2.7  T
   3    -45.6126707 -0.177232E-07  0.898E-04    9.23      23.2  T
   4    -45.6126707 -0.237645E-08  0.336E-04    9.23      62.1  T
speedup  1.25
cpu  time for SCC    0.00 s
wall time for SCC    0.00 s
speedup  1.05
cpu  time for grad    0.01 s
wall time for grad    0.01 s
 E :    -45.36378295  G :  0.000497    pred/act E change: -0.106D-05 -0.840D-06
Maxdispl :   0.0091   ||displ|| :   0.0182   Lambda : -0.106D-05
Largest |displ|/coords:  0.0091 (   9)  0.0066 (   1)  0.0065 (   7)
................................................................................
.............................. CYCLE   71 ......................................
................................................................................
   1    -45.6126613 -0.456127E+02  0.128E-02    9.23       0.0  T
   2    -45.6126613 -0.209190E-07  0.960E-03    9.23       2.2  T
   3    -45.6126613 -0.210153E-07  0.904E-04    9.23      23.1  T
   4    -45.6126613 -0.190172E-08  0.321E-04    9.23      65.0  T
speedup  0.94
cpu  time for SCC    0.00 s
wall time for SCC    0.00 s
speedup  1.05
cpu  time for grad    0.01 s
wall time for grad    0.01 s
 E :    -45.36378369  G :  0.000381    pred/act E change: -0.612D-06 -0.735D-06
Maxdispl :   0.0060   ||displ|| :   0.0135   Lambda : -0.629D-06
Largest |displ|/coords:  0.0060 (   9)  0.0056 (   7)  0.0055 (   1)
................................................................................
.............................. CYCLE   72 ......................................
................................................................................
   1    -45.6126486 -0.456126E+02  0.949E-03    9.23       0.0  T
   2    -45.6126487 -0.148648E-07  0.714E-03    9.23       2.9  T
   3    -45.6126487 -0.114768E-07  0.711E-04    9.23      29.3  T
   4    -45.6126487 -0.198431E-08  0.302E-04    9.23      69.1  T
speedup  0.91
cpu  time for SCC    0.00 s
wall time for SCC    0.00 s
speedup  0.95
cpu  time for grad    0.01 s
wall time for grad    0.01 s
 E :    -45.36378412  G :  0.000255    pred/act E change: -0.528D-06 -0.428D-06
Maxdispl :   0.0037   ||displ|| :   0.0084   Lambda : -0.290D-06
Largest |displ|/coords:  0.0037 (   1)  0.0034 (   2)  0.0031 (   7)
................................................................................
.............................. CYCLE   73 ......................................
................................................................................
   1    -45.6126648 -0.456127E+02  0.522E-03    9.23       0.0  T
   2    -45.6126648 -0.459247E-08  0.392E-03    9.23       5.3  T
   3    -45.6126648 -0.361455E-08  0.382E-04    9.23      54.6  T
   4    -45.6126648 -0.603357E-09  0.186E-04    9.23     112.4  T
speedup  0.94
cpu  time for SCC    0.00 s
wall time for SCC    0.00 s
speedup  0.95
cpu  time for grad    0.01 s
wall time for grad    0.01 s
 E :    -45.36378433  G :  0.000226    pred/act E change: -0.314D-06 -0.215D-06
Maxdispl :   0.0051   ||displ|| :   0.0101   Lambda : -0.263D-06
Largest |displ|/coords:  0.0051 (   2)  0.0041 (   1)  0.0040 (   5)
................................................................................
.............................. CYCLE   74 ......................................
................................................................................
   1    -45.6126770 -0.456127E+02  0.493E-03    9.23       0.0  T
   2    -45.6126770 -0.503168E-08  0.369E-03    9.23       5.6  T
   3    -45.6126770 -0.353192E-08  0.414E-04    9.23      50.4  T
   4    -45.6126770 -0.737430E-09  0.196E-04    9.23     106.2  T
speedup  1.25
cpu  time for SCC    0.00 s
wall time for SCC    0.00 s
speedup  1.05
cpu  time for grad    0.01 s
wall time for grad    0.01 s
 E :    -45.36378452  G :  0.000244    pred/act E change: -0.145D-06 -0.192D-06
Maxdispl :   0.0070   ||displ|| :   0.0118   Lambda : -0.242D-06
Largest |displ|/coords:  0.0070 (   2)  0.0046 (   5)  0.0040 (   1)
................................................................................
.............................. CYCLE   75 ......................................
................................................................................
   1    -45.6126969 -0.456127E+02  0.481E-03    9.23       0.0  T
   2    -45.6126969 -0.528454E-08  0.359E-03    9.23       5.8  T
   3    -45.6126969 -0.365543E-08  0.470E-04    9.23      44.3  T
   4    -45.6126969 -0.751932E-09  0.204E-04    9.23     102.0  T
speedup  0.94
cpu  time for SCC    0.00 s
wall time for SCC    0.00 s
speedup  1.05
cpu  time for grad    0.01 s
wall time for grad    0.01 s
 E :    -45.36378471  G :  0.000250    pred/act E change: -0.131D-06 -0.182D-06
Maxdispl :   0.0097   ||displ|| :   0.0150   Lambda : -0.255D-06
Largest |displ|/coords:  0.0097 (   2)  0.0061 (   5)  0.0043 (   1)
................................................................................
.............................. CYCLE   76 ......................................
................................................................................
   1    -45.6127154 -0.456127E+02  0.587E-03    9.23       0.0  T
   2    -45.6127154 -0.788543E-08  0.436E-03    9.23       4.8  T
   3    -45.6127154 -0.538169E-08  0.642E-04    9.23      32.5  T
   4    -45.6127154 -0.106336E-08  0.245E-04    9.23      85.2  T
speedup  0.91
cpu  time for SCC    0.00 s
wall time for SCC    0.00 s
speedup  0.95
cpu  time for grad    0.01 s
wall time for grad    0.01 s
 E :    -45.36378489  G :  0.000227    pred/act E change: -0.121D-06 -0.185D-06
Maxdispl :   0.0097   ||displ|| :   0.0138   Lambda : -0.200D-06
Largest |displ|/coords:  0.0097 (   2)  0.0055 (   5)  0.0032 (   7)
................................................................................
.............................. CYCLE   77 ......................................
................................................................................
   1    -45.6127304 -0.456127E+02  0.525E-03    9.23       0.0  T
   2    -45.6127304 -0.612521E-08  0.388E-03    9.23       5.4  T
   3    -45.6127305 -0.436130E-08  0.617E-04    9.23      33.8  T
   4    -45.6127305 -0.757687E-09  0.222E-04    9.23      93.9  T
speedup  0.94
cpu  time for SCC    0.00 s
wall time for SCC    0.00 s
speedup  0.95
cpu  time for grad    0.01 s
wall time for grad    0.01 s
 E :    -45.36378504  G :  0.000191    pred/act E change: -0.128D-06 -0.148D-06
Maxdispl :   0.0090   ||displ|| :   0.0122   Lambda : -0.157D-06
Largest |displ|/coords:  0.0090 (   2)  0.0050 (   5)  0.0029 (  10)
................................................................................
.............................. CYCLE   78 ......................................
................................................................................
   1    -45.6127391 -0.456127E+02  0.498E-03    9.23       0.0  T
   2    -45.6127392 -0.475715E-08  0.368E-03    9.23       5.7  T
   3    -45.6127392 -0.330612E-08  0.586E-04    9.23      35.6  T
   4    -45.6127392 -0.587718E-09  0.198E-04    9.23     105.2  T
speedup  0.91
cpu  time for SCC    0.00 s
wall time for SCC    0.00 s
speedup  1.04
cpu  time for grad    0.01 s
wall time for grad    0.01 s
 E :    -45.36378515  G :  0.000170    pred/act E change: -0.100D-06 -0.114D-06
Maxdispl :   0.0075   ||displ|| :   0.0099   Lambda : -0.115D-06
Largest |displ|/coords:  0.0075 (   2)  0.0040 (   5)  0.0031 (  10)
................................................................................
.............................. CYCLE   79 ......................................
................................................................................
   1    -45.6127421 -0.456127E+02  0.419E-03    9.23       0.0  T
   2    -45.6127421 -0.325495E-08  0.311E-03    9.23       6.7  T
   3    -45.6127421 -0.221896E-08  0.474E-04    9.23      43.9  T
   4    -45.6127421 -0.427505E-09  0.152E-04    9.23     137.6  T
speedup  0.94
cpu  time for SCC    0.00 s
wall time for SCC    0.00 s
speedup  0.96
cpu  time for grad    0.01 s
wall time for grad    0.01 s
 E :    -45.36378524  G :  0.000128    pred/act E change: -0.786D-07 -0.857D-07
Maxdispl :   0.0073   ||displ|| :   0.0096   Lambda : -0.995D-07
Largest |displ|/coords:  0.0073 (   2)  0.0040 (   5)  0.0036 (  10)

   *** GEOMETRY OPTIMIZATION CONVERGED AFTER 79 ITERATIONS ***

------------------------------------------------------------------------
 total energy gain (kcal):     -1.0229
------------------------------------------------------------------------
================
 final structure:
================
$coord
        2.20897106389944       -0.70654380980822        1.97849937856256      S 
        1.40874697135941        0.91645168356891       -0.13835500499356      O 
        4.88190082065920       -1.11796439466549        1.98658882618986      O 
        0.85295708109812       -3.35122847510025        1.52092551527333      O 
        1.06950912301111        0.22664397677114        4.30841970341757      O 
       -1.49026777717269        0.78642674847059        3.70539538516780      H 
        1.93848303545253       -4.15390380104041        0.22225848485144      H 
       -0.00250412522649       -1.15633450284621       -4.28889951423571      O 
        0.10644270841231        0.02001417896802       -5.66042019062566      H 
        0.60669885270418       -0.26358989378157       -2.75828271366361      H 
        4.03040892323179       -4.16107711127829       -2.07482460036554      O 
        3.10608761247356       -3.22414624258255       -3.34406540081506      H 
        5.01441926268784       -2.97762749159370       -1.07366321049275      H 
       -3.26670770787454        1.30948029076877        2.93143828747629      O 
       -2.82840706020263        3.03794165590161        2.01291407233273      H 
       -3.61888751384534        0.02182311580479        1.53770517445265      H 
       -3.65106313600456       -2.07490197791932       -0.53778612518092      O 
       -2.44986085380384       -3.18333976728880        0.29551619408051      H 
       -2.85981162605973       -1.69551014998646       -2.15165667481966      H 
       -1.59550045316137        5.16591131726471        0.62417206892585      N 
       -0.11060368982880        4.06762049179828        0.04936798123741      H 
       -0.92389523442907        6.55169590331330        1.75560164345217      H 
       -2.42711625843055        5.96215829306151       -0.90084929911258      H 
$end
 
 Bond Distances (Angstroems)
 ---------------------------
S1-O2=1.4737         S1-O3=1.4311         S1-O4=1.5913         S1-O5=1.4586         O2-S1=1.4737         O3-S1=1.4311         
O4-S1=1.5913         O4-H7=0.9913         O5-S1=1.4586         H6-O14=1.0621        H7-O4=0.9913         O8-H9=0.9579         
O8-H10=0.9915        H9-O8=0.9579         H10-O8=0.9915        O11-H12=0.9676       O11-H13=0.9716       H12-O11=0.9676       
H13-O11=0.9716       O14-H6=1.0621        O14-H15=1.0614       O14-H16=1.0213       H15-O14=1.0614       H16-O14=1.0213       
O17-H18=0.9709       O17-H19=0.9721       H18-O17=0.9709       H19-O17=0.9721       N20-H21=1.0236       N20-H22=1.0112       
N20-H23=1.0112       H21-N20=1.0236       H22-N20=1.0112       H23-N20=1.0112       
 N  H  Rav=1.0153 sigma=0.0058  Rmin=1.0112  Rmax=1.0236     3
 O  H  Rav=0.9968 sigma=0.0366  Rmin=0.9579  Rmax=1.0621    10
 S  O  Rav=1.4887 sigma=0.0612  Rmin=1.4311  Rmax=1.5913     4
 
 selected bond angles (degree)
 --------------------
O3-S1-O2=112.02                O4-S1-O2=105.50                O4-S1-O3=108.20                O5-S1-O2=109.05                
O5-S1-O3=117.23                O5-S1-O4=103.88                H7-O4-S1=102.77                H10-O8-H9=106.84               
 
 selected dihedral angles (degree)
 ---------------------------------
H7-O4-S1-O2= 79.59            H7-O4-S1-O3=319.54            H7-O4-S1-O5=194.27            
 
 CMA Distance (Angstroems)
 ---------------------------
R(CMA):  2.1152

========================================================================
 FINAL SINGLEPOINT CALCULATION ON OPTIMIZED GEOMETRY
========================================================================

 Ncao       : 59
 Nao        : 58
 Nshell     : 34
 Nel        : 72
 T(el)      :   300.0
 intcut     :    25.0
 scfconv/Eh :  0.100E-05
   qconv/e  :  0.100E-03
 intneglect :  0.100E-07
 broydamp   :      0.250
 iter      E             dE          RMSdq      gap      omega  full diag
   1    -45.6127421 -0.456127E+02  0.576E-05    9.23       0.0  T
   2    -45.6127421 -0.184031E-11  0.371E-05    9.23     561.7  T
   3    -45.6127421 -0.909495E-12  0.523E-06    9.23    3986.7  T
speedup  0.87
cpu  time for SCC    0.00 s
wall time for SCC    0.00 s

   *** convergence criteria satisfied after 3 iterations ***

          eigenvalues
 #    :          24         25         26         27         28         29         30         31
 occ. :        2.000      2.000      2.000      2.000      2.000      2.000      2.000      2.000
 eps  :       -14.052    -13.858    -13.173    -12.716    -12.623    -12.495    -12.443    -12.333
 #    :          32         33         34         35         36         37         38         39
 occ. :        2.000      2.000      2.000      2.000      2.000      0.000      0.000      0.000
 eps  :       -12.206    -12.137    -12.039    -11.951    -11.792     -2.565     -0.612     -0.330
 #    :          40         41         42         43         44         45         46         47
 occ. :        0.000      0.000      0.000      0.000      0.000      0.000      0.000      0.000
 eps  :         0.504      0.764      1.571      1.944      2.897      3.972      4.868      5.415


   #   Z            q   n(s)   n(p)   n(d)      C6AA      α(0)
   1  16 S      1.679  1.589  1.784  0.949    89.255    15.901
   2   8 O     -0.783  1.771  5.011  0.000    31.057     7.472
   3   8 O     -0.706  1.767  4.939  0.000    28.877     7.205
   4   8 O     -0.649  1.767  4.882  0.000    26.359     6.931
   5   8 O     -0.709  1.767  4.942  0.000    28.904     7.210
   6   1 H      0.384  0.616  0.000  0.000     0.509     1.118
   7   1 H      0.374  0.626  0.000  0.000     0.531     1.141
   8   8 O     -0.638  1.754  4.884  0.000    26.106     6.896
   9   1 H      0.280  0.720  0.000  0.000     0.784     1.391
  10   1 H      0.330  0.670  0.000  0.000     0.639     1.255
  11   8 O     -0.602  1.745  4.857  0.000    25.225     6.779
  12   1 H      0.318  0.682  0.000  0.000     0.669     1.285
  13   1 H      0.316  0.684  0.000  0.000     0.675     1.291
  14   8 O     -0.507  1.721  4.786  0.000    22.978     6.474
  15   1 H      0.359  0.641  0.000  0.000     0.557     1.167
  16   1 H      0.379  0.621  0.000  0.000     0.525     1.139
  17   8 O     -0.604  1.745  4.859  0.000    25.276     6.786
  18   1 H      0.321  0.679  0.000  0.000     0.661     1.277
  19   1 H      0.329  0.671  0.000  0.000     0.640     1.257
  20   7 N     -0.433  1.342  4.091  0.000    31.300     8.309
  21   1 H      0.215  0.785  0.000  0.000     1.035     1.594
  22   1 H      0.174  0.826  0.000  0.000     1.249     1.751
  23   1 H      0.173  0.827  0.000  0.000     1.257     1.756

 Mol. C6AA /au·bohr⁶  :       4521.498007
 Mol. C8AA /au·bohr⁸  :      99476.808839
 Mol. α(0) /au        :         97.383325

 
 Wiberg/Mayer (AO) data. WBOs > 0.1 written file <wbo>
 largest (>0.05) Wiberg bond orders for each atom
           total WBO             WBO to atom ...
     1  S   4.849    O    3 1.405    O    5 1.283    O    2 1.231    O    4 0.891
     2  O   1.686    S    1 1.231    O    3 0.109    O    5 0.100    H   10 0.085    O    4 0.075
     3  O   1.753    S    1 1.405    O    2 0.109    O    5 0.102    O    4 0.083
     4  O   1.946    S    1 0.891    H    7 0.746    O    3 0.083    O    2 0.075    O    5 0.064
     5  O   1.800    S    1 1.283    H    6 0.182    O    3 0.102    O    2 0.100    O    4 0.064    O   14 0.055
     6  H   0.852    O   14 0.662    O    5 0.182
     7  H   0.860    O    4 0.746    O   11 0.097
     8  O   1.836    H    9 0.917    H   10 0.799
     9  H   0.922    O    8 0.917
    10  H   0.891    O    8 0.799    O    2 0.085
    11  O   1.912    H   12 0.876    H   13 0.868    H    7 0.097
    12  H   0.899    O   11 0.876
    13  H   0.900    O   11 0.868
    14  O   2.242    H   16 0.726    H    6 0.662    H   15 0.657    N   20 0.076    O    5 0.055
    15  H   0.871    O   14 0.657    N   20 0.209
    16  H   0.856    O   14 0.726    O   17 0.126
    17  O   1.930    H   18 0.864    H   19 0.855    H   16 0.126
    18  H   0.897    O   17 0.864
    19  H   0.892    O   17 0.855
    20  N   3.162    H   22 0.967    H   23 0.966    H   21 0.917    H   15 0.209    O   14 0.076
    21  H   0.954    N   20 0.917
    22  H   0.970    N   20 0.967
    23  H   0.970    N   20 0.966
 MOs/occ written to file <molden.input>
 
molecular dipole:
                 x           y           z       tot (Debye)
 q only:       -1.793       1.757      -0.999
   full:       -1.073       2.095      -1.395       6.955
molecular quadrupole (traceless):
                xx          xy          yy          xz          yz          zz
 q only:       -8.049      -1.381       9.872      -6.460      -1.181      -1.823
  q+dip:      -11.393       0.275      12.073      -4.133      -4.795      -0.680
   full:      -11.836       0.182      12.242      -3.843      -4.576      -0.406

SCC energy    :     -45.6127421
rep           :       0.2487502
ES            :       0.2200775
AES           :      -0.0612260
AXC           :      -0.0073353
disp          :      -0.0176207
XB            :       0.0000000
fix           :       0.0000000
total E       :     -45.3637852
atomizationE  :       4.4468477     2790.44
(atE without considering molecular charge,
 total energy contains solvation terms)
H-L gap (eV)  :          9.2265
optimized geometry written to: xtbopt.xyz


------------------------------------------------------------------------
 * finished run on 2019/09/16 at 11:13:42.005     
------------------------------------------------------------------------
 total:
 * wall-time:     0 d,  0 h,  0 min,  1.634 sec
 *  cpu-time:     0 d,  0 h,  0 min,  1.619 sec
 * ratio c/w:     0.991 speedup
 SCF:
 * wall-time:     0 d,  0 h,  0 min,  0.126 sec
 *  cpu-time:     0 d,  0 h,  0 min,  0.123 sec
 * ratio c/w:     0.976 speedup
 ANC optimizer:
 * wall-time:     0 d,  0 h,  0 min,  1.482 sec
 *  cpu-time:     0 d,  0 h,  0 min,  1.474 sec
 * ratio c/w:     0.994 speedup

