      -----------------------------------------------------------      
     |                   =====================                   |     
     |                           x T B                           |     
     |                   =====================                   |     
     |                         S. Grimme                         |     
     |          Mulliken Center for Theoretical Chemistry        |     
     |                    University of Bonn                     |     
     |                 Version 6.0.1 (SAW181210)                 |     
      -----------------------------------------------------------      

   This program is distributed in the hope that it will be useful,
   but WITHOUT ANY WARRANTY; without even the implied warranty of
   MERCHANTABILITY or FITNESS FOR A PARTICULAR PURPOSE.
   
   FOR NON-COMMERCIAL, ACADEMIA USE ONLY.
   
   Cite this work as:
   S. Grimme, C. Bannwarth, P. Shushkov, J. Comput. Theory Chem., 2017,
   13, 1989-2009.
   C. Bannwarth, S. Ehlert and S. Grimme., ChemRxiv, 2018, preprint.
   http://doi.org/10.26434/chemrxiv.7246238.v1
   
   for sTDA-xTB:
   S. Grimme and C. Bannwarth, J. Chem. Phys., 2016, 145, 054103.
   
   in the mass-spec context:
   V. Asgeirsson, C. Bauer and S. Grimme, Chem. Sci., 2017, 8, 4879.
   
   if GBSA is used:
   P. Shushkov, F. März and S. Grimme, unpublished.
   
   for ANC optimizer:
   S. Grimme, unpublished.
   Rational Function algorithm used in ANCopt:
   F. Eckert, P. Pulay, H.-J. Werner, J. Comput. Chem., 1997, 18, 1473.
   
   with help from (in alphabetical order)
   C. Bannwarth, F. Bohle, G. Brandenburg, E. Caldeweyher, M. Checinski,
   S. Dohm, S. Ehlert, S. Ehrlich, F. März, H. Neugebauer, J. Pisarek,
   P. Pracht, P. Shushkov, and S. Spicher.
   
 * started run on 2019/09/16 at 12:16:43.245     
========================================================================
 # omp threads = 1
========================================================================
number of atoms            : 23
number of electrons        : 72
charge                     : 0
spin                       : .0
first test random number   : .3539

########################################################################
# WARNING! Please study the warnings concerning your input carefully
#  - XTBPATH is not set, using XTBHOME instead
#  - the use of '-opt' is discouraged, please use '--opt' next time
#  - the use of '-chrg' is discouraged, please use '--chrg' next time
#  - the use of '-uhf' is discouraged, please use '--uhf' next time
########################################################################

           ------------------------------------------------- 
          |                 G F N 2 - x T B                 |
          | Geometry, Frequencies, Noncovalent interactions |
          |            JCTC 2018 parametrisation            |
           ------------------------------------------------- 
      method parameters     
 k(s)        :  1.8500
 k(p)        :  2.2300
 k(d)        :  2.2300
 k(f)        :  2.0000
 kEN (H0ij)  : -2.0000
 D4 a1       :  0.5200
 D4 a2       :  5.0000
 D4 s6       :  1.0000
 D4 s8       :  2.7000
 D4 s9       :  5.0000
 alphaj      :  2.0000


            Z     q(EN)     CN     RAES       Cart. coordinates
     1  S   6.0    0.61    4.53    4.60     2.94638     0.80418    -3.04242
     2  O   6.0   -0.31    1.20    1.80     0.74880     1.57700    -4.62404
     3  O   6.0   -0.32    1.23    1.80     2.36479    -1.63046    -1.75308
     4  O   6.0   -0.27    2.10    1.84     3.45107     2.76231    -1.13885
     5  O   6.0   -0.24    2.08    1.84     5.18280     0.48512    -4.65769
     6  H   1.0    0.14    1.22    1.47     6.48698     1.62499    -4.11831
     7  H   1.0    0.17    1.28    1.49     1.99058     2.97137    -0.08322
     8  O   6.0   -0.29    2.04    1.83    -1.03448     2.62797     1.15015
     9  H   1.0    0.16    1.02    1.43    -2.39239     2.27241    -0.00928
    10  H   1.0    0.14    1.02    1.43    -1.32822     1.54353     2.58274
    11  O   6.0   -0.26    1.94    1.82     3.40081    -1.22510     3.26807
    12  H   1.0    0.17    1.03    1.43     3.07109    -1.92205     1.61878
    13  H   1.0    0.14    1.02    1.43     1.77985    -1.15516     4.09403
    14  O   6.0   -0.29    1.99    1.83    -2.35646    -3.03087    -0.20218
    15  H   1.0    0.16    1.02    1.43    -3.26713    -1.82482    -1.21743
    16  H   1.0    0.17    1.02    1.43    -0.64578    -2.98924    -0.82382
    17  O   6.0   -0.30    2.05    1.83    -3.95119     1.10690    -2.85720
    18  H   1.0    0.15    0.97    1.43    -5.26573     1.48877    -4.05753
    19  H   1.0    0.17    1.05    1.44    -2.39020     1.30955    -3.77201
    20  N   5.0   -0.23    3.04    1.93    -1.81771    -1.28656     4.85432
    21  H   1.0    0.10    0.99    1.43    -3.52259    -0.65562     5.49180
    22  H   1.0    0.11    0.99    1.43    -1.26695    -2.65140     6.09727
    23  H   1.0    0.12    1.03    1.43    -2.18432    -2.20281     3.19989

  Z AO/shell   Hii/eV     exponent
  1     Wed Apr 25 08:07:45 CEST 2018   EN: 2.200 GM2: 0.406  GM3: 0.0800  RAES: 1.40
     1s    -10.707211    1.230000
  7     Wed Apr 25 08:07:45 CEST 2018   EN: 3.040 GM2: 0.461  GM3:-0.0640  RAES: 1.90
     2s    -16.686243    2.339881
     2p    -12.523956    2.014332
  8     Wed Apr 25 08:07:45 CEST 2018   EN: 3.440 GM2: 0.452  GM3:-0.0517  RAES: 1.80
     2s    -20.229985    2.439742
     2p    -15.503117    2.137023
 16     Tue Apr 24 11:44:34 CEST 2018   EN: 2.580 GM2: 0.340  GM3:-0.0502  RAES: 3.10
     3s    -20.029654    1.981333
     3p    -11.377694    2.025643
     3d     -0.420282    1.702555
 no old-style atom pair restraining (fixing) potential

molecular fragmentation (1/2 indicates fragments):
11111112222222222222222
# atoms in fragment 1/2:     7    16
 fragment masses (1/2) :       98.07       89.09
CMA distance (Bohr)    :   6.017
constraining FC (au)   :  0.0500
           ------------------------------------------------- 
          |        Self-Consistent Charge Iterations        |
           ------------------------------------------------- 

 Ncao       : 59
 Nao        : 58
 Nshell     : 34
 Nel        : 72
 T(el)      :   300.0
 intcut     :    25.0
 scfconv/Eh :  0.100E-05
   qconv/e  :  0.100E-03
 intneglect :  0.100E-07
 broydamp   :      0.250
 iter      E             dE          RMSdq      gap      omega  full diag
   1    -45.5073949 -0.455074E+02  0.716E+00   10.26       0.0  T
   2    -45.5608215 -0.534266E-01  0.516E+00    9.22       1.0  T
   3    -45.5977871 -0.369656E-01  0.149E+00    7.16       1.0  T
   4    -45.6038629 -0.607589E-02  0.605E-01    7.42       1.0  T
   5    -45.6045799 -0.717002E-03  0.368E-01    7.33       1.0  T
   6    -45.6052036 -0.623651E-03  0.168E-01    7.35       1.0  T
   7    -45.6053745 -0.170890E-03  0.599E-02    7.35       1.0  T
   8    -45.6053910 -0.164795E-04  0.381E-02    7.35       1.0  T
   9    -45.6053997 -0.876204E-05  0.117E-02    7.37       1.8  T
  10    -45.6054005 -0.798600E-06  0.242E-03    7.37       8.6  T
  11    -45.6054005 -0.111848E-07  0.130E-03    7.37      16.0  T
  12    -45.6054005 -0.699372E-08  0.388E-04    7.37      53.8  T
  13    -45.6054005 -0.718920E-09  0.122E-04    7.37     170.9  T
speedup  0.97
cpu  time for SCC    0.01 s
wall time for SCC    0.01 s

   *** convergence criteria satisfied after 13 iterations ***

          eigenvalues
 #    :          24         25         26         27         28         29         30         31
 occ. :        2.000      2.000      2.000      2.000      2.000      2.000      2.000      2.000
 eps  :       -13.445    -13.345    -13.183    -12.927    -12.754    -12.646    -12.413    -12.202
 #    :          32         33         34         35         36         37         38         39
 occ. :        2.000      2.000      2.000      2.000      2.000      0.000      0.000      0.000
 eps  :       -12.038    -11.856    -11.171    -10.767    -10.626     -3.259     -2.031     -0.851
 #    :          40         41         42         43         44         45         46         47
 occ. :        0.000      0.000      0.000      0.000      0.000      0.000      0.000      0.000
 eps  :         0.007      0.475      1.789      3.125      3.577      4.667      5.107      5.632


   #   Z            q   n(s)   n(p)   n(d)      C6AA      α(0)
   1  16 S      1.738  1.570  1.760  0.932    87.903    15.780
   2   8 O     -0.718  1.772  4.946  0.000    29.197     7.245
   3   8 O     -0.711  1.773  4.938  0.000    29.000     7.220
   4   8 O     -0.575  1.716  4.859  0.000    24.560     6.690
   5   8 O     -0.532  1.717  4.815  0.000    23.580     6.555
   6   1 H      0.387  0.613  0.000  0.000     0.502     1.109
   7   1 H      0.432  0.568  0.000  0.000     0.424     1.019
   8   8 O     -0.645  1.747  4.898  0.000    26.294     6.921
   9   1 H      0.323  0.677  0.000  0.000     0.655     1.271
  10   1 H      0.328  0.672  0.000  0.000     0.643     1.260
  11   8 O     -0.631  1.747  4.884  0.000    25.950     6.875
  12   1 H      0.293  0.707  0.000  0.000     0.744     1.354
  13   1 H      0.300  0.700  0.000  0.000     0.721     1.334
  14   8 O     -0.627  1.743  4.884  0.000    25.841     6.861
  15   1 H      0.306  0.694  0.000  0.000     0.703     1.317
  16   1 H      0.307  0.693  0.000  0.000     0.700     1.314
  17   8 O     -0.611  1.738  4.873  0.000    25.452     6.809
  18   1 H      0.292  0.708  0.000  0.000     0.746     1.357
  19   1 H      0.332  0.668  0.000  0.000     0.633     1.250
  20   7 N     -0.480  1.400  4.079  0.000    32.701     8.493
  21   1 H      0.141  0.859  0.000  0.000     1.464     1.896
  22   1 H      0.147  0.853  0.000  0.000     1.418     1.866
  23   1 H      0.204  0.796  0.000  0.000     1.088     1.634

 Mol. C6AA /au·bohr⁶  :       4514.514640
 Mol. C8AA /au·bohr⁸  :      99010.544340
 Mol. α(0) /au        :         97.428224

 
 Wiberg/Mayer (AO) data. WBOs > 0.1 written file <wbo>
 largest (>0.05) Wiberg bond orders for each atom
           total WBO             WBO to atom ...
     1  S   4.788    O    2 1.335    O    3 1.328    O    4 1.052    O    5 1.030
     2  O   1.707    S    1 1.335    O    3 0.135    O    4 0.092    O    5 0.074
     3  O   1.717    S    1 1.328    O    2 0.135    O    4 0.091    O    5 0.074
     4  O   2.031    S    1 1.052    H    7 0.718    O    2 0.092    O    3 0.091
     5  O   2.064    S    1 1.030    H    6 0.826    O    3 0.074    O    2 0.074
     6  H   0.850    O    5 0.826
     7  H   0.814    O    4 0.718    O    8 0.072
     8  O   1.853    H    9 0.858    H   10 0.854    H    7 0.072
     9  H   0.895    O    8 0.858
    10  H   0.893    O    8 0.854
    11  O   1.803    H   12 0.883    H   13 0.880
    12  H   0.914    O   11 0.883
    13  H   0.910    O   11 0.880
    14  O   1.845    H   16 0.873    H   15 0.868
    15  H   0.906    O   14 0.868
    16  H   0.906    O   14 0.873
    17  O   1.865    H   18 0.904    H   19 0.841
    18  H   0.915    O   17 0.904
    19  H   0.890    O   17 0.841
    20  N   2.968    H   21 0.973    H   22 0.970    H   23 0.916
    21  H   0.980    N   20 0.973
    22  H   0.978    N   20 0.970
    23  H   0.959    N   20 0.916
 MOs/occ written to file <molden.input>
 
molecular dipole:
                 x           y           z       tot (Debye)
 q only:        0.383       1.200      -0.673
   full:        0.299       1.200      -1.023       4.080
molecular quadrupole (traceless):
                xx          xy          yy          xz          yz          zz
 q only:        9.959       5.102      -7.116     -10.252      -4.400      -2.843
  q+dip:       12.107       6.367      -9.600     -14.275      -8.178      -2.507
   full:       12.673       6.347     -10.472     -14.539      -7.965      -2.202

SCC energy    :     -45.6054005
rep           :       0.2827246
ES            :       0.2184234
AES           :      -0.0467314
AXC           :      -0.0062897
disp          :      -0.0166154
XB            :       0.0000000
fix           :       0.0000000
total E       :     -45.3224939
atomizationE  :       4.4055564     2764.53
(atE without considering molecular charge,
 total energy contains solvation terms)
H-L gap (eV)  :          7.3671
           ------------------------------------------------- 
          |                 ===============                 |
          |                   A N C O P T                   |
          |                 ===============                 |
          |          Approximate Normal Coordinate          |
          |           Rational Function Optimizer           |
           ------------------------------------------------- 
dumping coords to <xtbopt.coord> and <xtbopt.log>
 optlevel               2
 Maxcycle             460
 Maxmicro              25
 Econv         1.000000000000000E-007
 Gconv         2.000000000000000E-004
 Maxdispl       1.00000000000000     
 Hlow          5.000000000000000E-003
 S6             20.0000000000000     
 Nvar               63

generating ANC from model Hessian ...
 Shifting diagonal of input Hessian by   4.675711152198512E-003
 Lowest  eigenvalues of input Hessian
   -0.000000   -0.000000   -0.000000   -0.000000   -0.000000    0.000000
    0.005000    0.005270    0.005788    0.006474    0.006585    0.007054
    0.007810    0.008269    0.008327    0.008502    0.009450    0.010100
 Highest eigenvalues
    1.423648    1.443494    1.552234    3.214032    3.413306    3.463341
 
cpu  time for ANC gen    0.02 s
wall time for ANC gen    0.02 s
................................................................................
.............................. CYCLE    1 ......................................
................................................................................
   1    -45.6054005 -0.456054E+02  0.797E-05    7.37       0.0  T
   2    -45.6054005 -0.139053E-10  0.618E-05    7.37     337.3  T
   3    -45.6054005 -0.139693E-10  0.341E-05    7.37     612.0  T
speedup  1.15
cpu  time for SCC    0.00 s
wall time for SCC    0.00 s
speedup  1.03
cpu  time for grad    0.01 s
wall time for grad    0.01 s
 E :    -45.32249389  G :  0.196533    pred/act E change:  0.000D+00  0.360D-07
Maxdispl :   0.1986   ||displ|| :   0.3402   Lambda : -0.172D-01
Largest |displ|/coords:  0.1986 (  22)  0.1185 (  19)  0.0992 (  23)
................................................................................
.............................. CYCLE    2 ......................................
................................................................................
   1    -45.6097450 -0.456097E+02  0.375E-01    7.41       0.0  T
   2    -45.6099410 -0.196066E-03  0.287E-01    7.41       1.0  T
   3    -45.6099993 -0.582655E-04  0.116E-01    7.42       1.0  T
   4    -45.6100167 -0.173920E-04  0.245E-02    7.44       1.0  T
   5    -45.6100177 -0.101323E-05  0.506E-03    7.44       4.1  T
   6    -45.6100177 -0.240994E-07  0.289E-03    7.43       7.2  T
speedup  1.00
cpu  time for SCC    0.00 s
wall time for SCC    0.01 s
speedup  1.03
cpu  time for grad    0.01 s
wall time for grad    0.01 s
 E :    -45.33599946  G :  0.129780    pred/act E change:  0.000D+00 -0.135D-01
Maxdispl :   0.1089   ||displ|| :   0.2749   Lambda : -0.111D-01
Largest |displ|/coords:  0.1089 (  29)  0.0992 (  23)  0.0875 (  13)
................................................................................
.............................. CYCLE    3 ......................................
................................................................................
   1    -45.6194963 -0.456195E+02  0.225E-01    7.41       0.0  T
   2    -45.6197282 -0.231846E-03  0.179E-01    7.44       1.0  T
   3    -45.6197897 -0.615268E-04  0.124E-01    7.47       1.0  T
   4    -45.6197946 -0.490563E-05  0.219E-02    7.51       1.0  T
   5    -45.6197950 -0.344917E-06  0.435E-03    7.51       4.8  T
   6    -45.6197950 -0.207230E-07  0.208E-03    7.51      10.0  T
speedup  0.83
cpu  time for SCC    0.00 s
wall time for SCC    0.00 s
speedup  0.96
cpu  time for grad    0.01 s
wall time for grad    0.01 s
 E :    -45.34424963  G :  0.061440    pred/act E change: -0.959D-02 -0.825D-02
Maxdispl :   0.1117   ||displ|| :   0.2845   Lambda : -0.428D-02
Largest |displ|/coords:  0.1117 (   7)  0.1020 (  23)  0.0939 (  13)
................................................................................
.............................. CYCLE    4 ......................................
................................................................................
   1    -45.6216366 -0.456216E+02  0.184E-01    7.41       0.0  T
   2    -45.6217535 -0.116883E-03  0.144E-01    7.43       1.0  T
   3    -45.6217880 -0.344643E-04  0.873E-02    7.47       1.0  T
   4    -45.6217913 -0.329769E-05  0.172E-02    7.49       1.2  T
   5    -45.6217916 -0.285167E-06  0.382E-03    7.49       5.5  T
   6    -45.6217916 -0.165142E-07  0.195E-03    7.49      10.7  T
speedup  1.04
cpu  time for SCC    0.00 s
wall time for SCC    0.00 s
speedup  0.96
cpu  time for grad    0.01 s
wall time for grad    0.01 s
 E :    -45.34725673  G :  0.023557    pred/act E change: -0.595D-02 -0.301D-02
Maxdispl :   0.1951   ||displ|| :   0.3542   Lambda : -0.207D-02
Largest |displ|/coords:  0.1951 (   7)  0.1339 (  13)  0.1003 (  19)
................................................................................
.............................. CYCLE    5 ......................................
................................................................................
   1    -45.6209330 -0.456209E+02  0.195E-01    7.33       0.0  T
   2    -45.6209914 -0.584290E-04  0.148E-01    7.36       1.0  T
   3    -45.6210084 -0.170052E-04  0.587E-02    7.42       1.0  T
   4    -45.6210133 -0.486558E-05  0.148E-02    7.43       1.4  T
   5    -45.6210134 -0.168393E-06  0.295E-03    7.43       7.1  T
   6    -45.6210134 -0.114084E-07  0.166E-03    7.43      12.6  T
speedup  1.06
cpu  time for SCC    0.00 s
wall time for SCC    0.00 s
speedup  0.97
cpu  time for grad    0.01 s
wall time for grad    0.01 s
 E :    -45.34857908  G :  0.017472    pred/act E change: -0.231D-02 -0.132D-02
Maxdispl :   0.1420   ||displ|| :   0.3485   Lambda : -0.109D-02
Largest |displ|/coords:  0.1420 (   7)  0.1237 (  13)  0.1050 (   6)
................................................................................
.............................. CYCLE    6 ......................................
................................................................................
   1    -45.6169521 -0.456170E+02  0.218E-01    7.28       0.0  T
   2    -45.6169700 -0.179195E-04  0.164E-01    7.30       1.0  T
   3    -45.6169826 -0.126345E-04  0.298E-02    7.34       1.0  T
   4    -45.6169851 -0.247362E-05  0.120E-02    7.34       1.7  T
   5    -45.6169852 -0.152544E-06  0.271E-03    7.34       7.7  T
   6    -45.6169853 -0.118785E-07  0.174E-03    7.34      12.0  T
speedup  1.06
cpu  time for SCC    0.00 s
wall time for SCC    0.00 s
speedup  1.03
cpu  time for grad    0.01 s
wall time for grad    0.01 s
 E :    -45.34911955  G :  0.020635    pred/act E change: -0.116D-02 -0.540D-03
Maxdispl :   0.1140   ||displ|| :   0.2958   Lambda : -0.885D-03
Largest |displ|/coords:  0.1140 (   7)  0.1124 (  13)  0.1094 (   3)
................................................................................
.............................. CYCLE    7 ......................................
................................................................................
   1    -45.6164681 -0.456165E+02  0.164E-01    7.29       0.0  T
   2    -45.6164775 -0.940005E-05  0.121E-01    7.31       1.0  T
   3    -45.6164828 -0.536371E-05  0.195E-02    7.36       1.1  T
   4    -45.6164840 -0.114205E-05  0.780E-03    7.35       2.7  T
   5    -45.6164840 -0.532157E-07  0.182E-03    7.35      11.5  T
   6    -45.6164840 -0.342469E-08  0.108E-03    7.35      19.2  T
speedup  1.04
cpu  time for SCC    0.00 s
wall time for SCC    0.00 s
speedup  0.96
cpu  time for grad    0.01 s
wall time for grad    0.01 s
 E :    -45.34966603  G :  0.018403    pred/act E change: -0.610D-03 -0.546D-03
Maxdispl :   0.1199   ||displ|| :   0.2770   Lambda : -0.721D-03
Largest |displ|/coords:  0.1199 (  13)  0.1180 (   5)  0.0851 (   4)
................................................................................
.............................. CYCLE    8 ......................................
................................................................................
   1    -45.6165683 -0.456166E+02  0.141E-01    7.41       0.0  T
   2    -45.6165767 -0.838556E-05  0.105E-01    7.42       1.0  T
   3    -45.6165815 -0.473819E-05  0.204E-02    7.44       1.0  T
   4    -45.6165825 -0.105602E-05  0.824E-03    7.44       2.5  T
   5    -45.6165826 -0.515162E-07  0.160E-03    7.44      13.0  T
   6    -45.6165826 -0.284786E-08  0.101E-03    7.44      20.7  T
speedup  1.06
cpu  time for SCC    0.01 s
wall time for SCC    0.00 s
speedup  1.05
cpu  time for grad    0.01 s
wall time for grad    0.01 s
 E :    -45.35019083  G :  0.012638    pred/act E change: -0.481D-03 -0.525D-03
Maxdispl :   0.1377   ||displ|| :   0.4002   Lambda : -0.767D-03
Largest |displ|/coords:  0.1377 (  13)  0.1343 (   3)  0.1325 (   6)
................................................................................
.............................. CYCLE    9 ......................................
................................................................................
   1    -45.6142046 -0.456142E+02  0.265E-01    7.56       0.0  T
   2    -45.6142286 -0.240266E-04  0.199E-01    7.58       1.0  T
   3    -45.6142455 -0.168572E-04  0.320E-02    7.61       1.0  T
   4    -45.6142486 -0.307995E-05  0.145E-02    7.61       1.4  T
   5    -45.6142487 -0.172922E-06  0.318E-03    7.60       6.6  T
   6    -45.6142487 -0.894566E-08  0.195E-03    7.60      10.7  T
   7    -45.6142487 -0.541252E-08  0.451E-04    7.60      46.3  T
speedup  0.91
cpu  time for SCC    0.00 s
wall time for SCC    0.01 s
speedup  0.98
cpu  time for grad    0.01 s
wall time for grad    0.01 s
 E :    -45.35064990  G :  0.014605    pred/act E change: -0.388D-03 -0.459D-03
Maxdispl :   0.1249   ||displ|| :   0.3613   Lambda : -0.642D-03
Largest |displ|/coords:  0.1249 (   1)  0.1200 (  13)  0.1168 (   6)
................................................................................
.............................. CYCLE   10 ......................................
................................................................................
   1    -45.6134587 -0.456135E+02  0.218E-01    7.71       0.0  T
   2    -45.6134750 -0.163098E-04  0.162E-01    7.73       1.0  T
   3    -45.6134867 -0.117411E-04  0.262E-02    7.76       1.0  T
   4    -45.6134888 -0.207028E-05  0.126E-02    7.76       1.7  T
   5    -45.6134889 -0.170216E-06  0.305E-03    7.76       6.8  T
   6    -45.6134890 -0.121202E-07  0.190E-03    7.76      11.0  T
   7    -45.6134890 -0.610171E-08  0.556E-04    7.76      37.5  T
speedup  0.91
cpu  time for SCC    0.00 s
wall time for SCC    0.01 s
speedup  0.98
cpu  time for grad    0.01 s
wall time for grad    0.01 s
 E :    -45.35098530  G :  0.015350    pred/act E change: -0.445D-03 -0.335D-03
Maxdispl :   0.1158   ||displ|| :   0.2854   Lambda : -0.568D-03
Largest |displ|/coords:  0.1158 (   1)  0.0981 (   7)  0.0863 (  11)
................................................................................
.............................. CYCLE   11 ......................................
................................................................................
   1    -45.6146123 -0.456146E+02  0.204E-01    7.82       0.0  T
   2    -45.6146313 -0.189322E-04  0.150E-01    7.85       1.0  T
   3    -45.6146424 -0.111202E-04  0.277E-02    7.91       1.0  T
   4    -45.6146448 -0.238999E-05  0.994E-03    7.91       2.1  T
   5    -45.6146449 -0.104429E-06  0.292E-03    7.90       7.1  T
   6    -45.6146449 -0.116075E-07  0.164E-03    7.90      12.7  T
speedup  1.02
cpu  time for SCC    0.00 s
wall time for SCC    0.00 s
speedup  1.03
cpu  time for grad    0.01 s
wall time for grad    0.01 s
 E :    -45.35129643  G :  0.011742    pred/act E change: -0.363D-03 -0.311D-03
Maxdispl :   0.2136   ||displ|| :   0.3321   Lambda : -0.616D-03
Largest |displ|/coords:  0.2136 (   1)  0.0901 (  12)  0.0899 (   6)
................................................................................
.............................. CYCLE   12 ......................................
................................................................................
   1    -45.6166662 -0.456167E+02  0.231E-01    7.97       0.0  T
   2    -45.6166932 -0.269912E-04  0.173E-01    7.98       1.0  T
   3    -45.6167053 -0.120350E-04  0.364E-02    8.01       1.0  T
   4    -45.6167096 -0.434429E-05  0.104E-02    8.02       2.0  T
   5    -45.6167098 -0.192423E-06  0.305E-03    8.01       6.8  T
   6    -45.6167098 -0.708157E-08  0.186E-03    8.01      11.2  T
   7    -45.6167098 -0.646018E-08  0.454E-04    8.01      45.9  T
speedup  0.91
cpu  time for SCC    0.00 s
wall time for SCC    0.01 s
speedup  0.98
cpu  time for grad    0.01 s
wall time for grad    0.01 s
 E :    -45.35156158  G :  0.016720    pred/act E change: -0.307D-03 -0.265D-03
Maxdispl :   0.2741   ||displ|| :   0.3875   Lambda : -0.664D-03
Largest |displ|/coords:  0.2741 (   1)  0.1087 (  19)  0.1085 (   8)
................................................................................
.............................. CYCLE   13 ......................................
................................................................................
   1    -45.6078794 -0.456079E+02  0.287E-01    7.95       0.0  T
   2    -45.6079172 -0.378106E-04  0.212E-01    7.98       1.0  T
   3    -45.6079350 -0.177662E-04  0.380E-02    8.06       1.0  T
   4    -45.6079404 -0.539281E-05  0.118E-02    8.04       1.8  T
   5    -45.6079406 -0.181839E-06  0.395E-03    8.04       5.3  T
   6    -45.6079406 -0.167679E-07  0.216E-03    8.04       9.7  T
   7    -45.6079406 -0.878667E-08  0.545E-04    8.04      38.3  T
speedup  1.09
cpu  time for SCC    0.01 s
wall time for SCC    0.01 s
speedup  0.98
cpu  time for grad    0.01 s
wall time for grad    0.01 s
 E :    -45.35165476  G :  0.026461    pred/act E change: -0.342D-03 -0.932D-04
Maxdispl :   0.1340   ||displ|| :   0.2595   Lambda : -0.132D-02
Largest |displ|/coords:  0.1340 (   3)  0.0945 (   2)  0.0891 (   4)
................................................................................
.............................. CYCLE   14 ......................................
................................................................................
   1    -45.6138115 -0.456138E+02  0.238E-01    8.01       0.0  T
   2    -45.6138459 -0.344109E-04  0.177E-01    8.02       1.0  T
   3    -45.6138650 -0.191033E-04  0.376E-02    8.04       1.0  T
   4    -45.6138690 -0.396194E-05  0.976E-03    8.04       2.1  T
   5    -45.6138692 -0.214660E-06  0.330E-03    8.04       6.3  T
   6    -45.6138692 -0.426490E-08  0.177E-03    8.04      11.7  T
speedup  0.85
cpu  time for SCC    0.00 s
wall time for SCC    0.00 s
speedup  0.96
cpu  time for grad    0.01 s
wall time for grad    0.01 s
 E :    -45.35164359  G :  0.026803    pred/act E change: -0.382D-03  0.112D-04
Maxdispl :   0.0807   ||displ|| :   0.2262   Lambda : -0.137D-02
Largest |displ|/coords:  0.0807 (  15)  0.0740 (   4)  0.0680 (   1)
................................................................................
.............................. CYCLE   15 ......................................
................................................................................
   1    -45.6138947 -0.456139E+02  0.214E-01    8.09       0.0  T
   2    -45.6139080 -0.133535E-04  0.162E-01    8.09       1.0  T
   3    -45.6139177 -0.964203E-05  0.234E-02    8.09       1.0  T
   4    -45.6139196 -0.190964E-05  0.841E-03    8.10       2.5  T
   5    -45.6139197 -0.120880E-06  0.264E-03    8.10       7.9  T
   6    -45.6139197 -0.400333E-08  0.147E-03    8.10      14.2  T
speedup  1.06
cpu  time for SCC    0.00 s
wall time for SCC    0.00 s
speedup  0.96
cpu  time for grad    0.01 s
wall time for grad    0.01 s
 E :    -45.35233388  G :  0.009912    pred/act E change: -0.705D-03 -0.690D-03
Maxdispl :   0.2404   ||displ|| :   0.3812   Lambda : -0.555D-03
Largest |displ|/coords:  0.2404 (   1)  0.0930 (   4)  0.0921 (  21)
................................................................................
.............................. CYCLE   16 ......................................
................................................................................
   1    -45.6089777 -0.456090E+02  0.234E-01    8.11       0.0  T
   2    -45.6090093 -0.315731E-04  0.174E-01    8.14       1.0  T
   3    -45.6090238 -0.144642E-04  0.366E-02    8.20       1.0  T
   4    -45.6090282 -0.449240E-05  0.121E-02    8.19       1.7  T
   5    -45.6090285 -0.269095E-06  0.363E-03    8.19       5.7  T
   6    -45.6090285 -0.141242E-07  0.217E-03    8.19       9.6  T
   7    -45.6090285 -0.983577E-08  0.614E-04    8.19      33.9  T
speedup  1.09
cpu  time for SCC    0.01 s
wall time for SCC    0.01 s
speedup  1.07
cpu  time for grad    0.01 s
wall time for grad    0.01 s
 E :    -45.35271822  G :  0.015130    pred/act E change: -0.721D-03 -0.384D-03
Maxdispl :   0.2902   ||displ|| :   0.4839   Lambda : -0.644D-03
Largest |displ|/coords:  0.2902 (   1)  0.1695 (   4)  0.1118 (  24)
................................................................................
.............................. CYCLE   17 ......................................
................................................................................
   1    -45.6060473 -0.456060E+02  0.271E-01    8.21       0.0  T
   2    -45.6060962 -0.488970E-04  0.202E-01    8.26       1.0  T
   3    -45.6061178 -0.215252E-04  0.485E-02    8.34       1.0  T
   4    -45.6061242 -0.641941E-05  0.146E-02    8.34       1.4  T
   5    -45.6061246 -0.368595E-06  0.447E-03    8.34       4.7  T
   6    -45.6061246 -0.222594E-07  0.260E-03    8.33       8.0  T
   7    -45.6061246 -0.128572E-07  0.786E-04    8.33      26.5  T
speedup  0.88
cpu  time for SCC    0.00 s
wall time for SCC    0.01 s
speedup  0.96
cpu  time for grad    0.01 s
wall time for grad    0.01 s
 E :    -45.35319444  G :  0.023519    pred/act E change: -0.318D-03 -0.476D-03
Maxdispl :   0.2577   ||displ|| :   0.5537   Lambda : -0.124D-02
Largest |displ|/coords:  0.2577 (   1)  0.1937 (   4)  0.1683 (   2)
................................................................................
.............................. CYCLE   18 ......................................
................................................................................
   1    -45.6048822 -0.456049E+02  0.317E-01    8.46       0.0  T
   2    -45.6049701 -0.878719E-04  0.234E-01    8.51       1.0  T
   3    -45.6050129 -0.428023E-04  0.681E-02    8.58       1.0  T
   4    -45.6050218 -0.891764E-05  0.203E-02    8.59       1.0  T
   5    -45.6050226 -0.755693E-06  0.596E-03    8.59       3.5  T
   6    -45.6050226 -0.412149E-07  0.359E-03    8.59       5.8  T
speedup  1.06
cpu  time for SCC    0.00 s
wall time for SCC    0.00 s
speedup  1.04
cpu  time for grad    0.01 s
wall time for grad    0.01 s
 E :    -45.35396129  G :  0.026701    pred/act E change: -0.398D-03 -0.767D-03
Maxdispl :   0.2385   ||displ|| :   0.5045   Lambda : -0.214D-02
Largest |displ|/coords:  0.2385 (   1)  0.1647 (   4)  0.1450 (  24)
................................................................................
.............................. CYCLE   19 ......................................
................................................................................
   1    -45.6149489 -0.456149E+02  0.351E-01    8.89       0.0  T
   2    -45.6150806 -0.131706E-03  0.253E-01    8.89       1.0  T
   3    -45.6151529 -0.723734E-04  0.820E-02    8.88       1.0  T
   4    -45.6151631 -0.101681E-04  0.238E-02    8.90       1.0  T
   5    -45.6151642 -0.105200E-05  0.703E-03    8.90       3.0  T
   6    -45.6151642 -0.593152E-07  0.407E-03    8.90       5.1  T
   7    -45.6151642 -0.229150E-07  0.131E-03    8.90      15.9  T
speedup  0.93
cpu  time for SCC    0.01 s
wall time for SCC    0.01 s
speedup  0.99
cpu  time for grad    0.01 s
wall time for grad    0.01 s
 E :    -45.35440664  G :  0.046381    pred/act E change: -0.811D-03 -0.445D-03
Maxdispl :   0.2825   ||displ|| :   0.5332   Lambda : -0.337D-02
Largest |displ|/coords:  0.2825 (   1)  0.1963 (   4)  0.1485 (  15)
................................................................................
.............................. CYCLE   20 ......................................
................................................................................
   1    -45.6001608 -0.456002E+02  0.378E-01    8.87       0.0  T
   2    -45.6002518 -0.910331E-04  0.279E-01    8.89       1.0  T
   3    -45.6002940 -0.421450E-04  0.597E-02    8.93       1.0  T
   4    -45.6003073 -0.133368E-04  0.169E-02    8.94       1.2  T
   5    -45.6003077 -0.381290E-06  0.616E-03    8.93       3.4  T
   6    -45.6003077 -0.546578E-07  0.338E-03    8.93       6.2  T
   7    -45.6003078 -0.176423E-07  0.872E-04    8.93      23.9  T
speedup  0.93
cpu  time for SCC    0.00 s
wall time for SCC    0.01 s
speedup  0.99
cpu  time for grad    0.01 s
wall time for grad    0.01 s
 E :    -45.35567873  G :  0.037522    pred/act E change: -0.134D-02 -0.127D-02
Maxdispl :   0.1631   ||displ|| :   0.3656   Lambda : -0.419D-02
Largest |displ|/coords:  0.1631 (  12)  0.1525 (   6)  0.1132 (   1)
................................................................................
.............................. CYCLE   21 ......................................
................................................................................
   1    -45.6048019 -0.456048E+02  0.356E-01    8.82       0.0  T
   2    -45.6048704 -0.684623E-04  0.260E-01    8.87       1.0  T
   3    -45.6049105 -0.401801E-04  0.554E-02    8.95       1.0  T
   4    -45.6049183 -0.776152E-05  0.147E-02    8.93       1.4  T
   5    -45.6049186 -0.310327E-06  0.541E-03    8.93       3.9  T
   6    -45.6049186 -0.241909E-07  0.266E-03    8.93       7.8  T
speedup  1.04
cpu  time for SCC    0.01 s
wall time for SCC    0.00 s
speedup  0.95
cpu  time for grad    0.01 s
wall time for grad    0.01 s
 E :    -45.35510553  G :  0.059218    pred/act E change: -0.216D-02  0.573D-03
Maxdispl :   0.1620   ||displ|| :   0.4318   Lambda : -0.109D-01
Largest |displ|/coords:  0.1620 (   4)  0.1394 (  11)  0.1219 (  29)
................................................................................
.............................. CYCLE   22 ......................................
................................................................................
   1    -45.6141040 -0.456141E+02  0.457E-01    9.22       0.0  T
   2    -45.6143291 -0.225053E-03  0.335E-01    9.28       1.0  T
   3    -45.6144569 -0.127791E-03  0.880E-02    9.25       1.0  T
   4    -45.6144762 -0.193383E-04  0.266E-02    9.29       1.0  T
   5    -45.6144774 -0.118394E-05  0.888E-03    9.30       2.3  T
   6    -45.6144775 -0.922228E-07  0.449E-03    9.30       4.6  T
   7    -45.6144775 -0.300962E-07  0.134E-03    9.29      15.6  T
speedup  1.07
cpu  time for SCC    0.01 s
wall time for SCC    0.01 s
speedup  1.06
cpu  time for grad    0.01 s
wall time for grad    0.01 s
 E :    -45.35361511  G :  0.079024    pred/act E change: -0.238D-02  0.149D-02
Maxdispl :   0.1689   ||displ|| :   0.4099   Lambda : -0.159D-01
Largest |displ|/coords:  0.1689 (  29)  0.1360 (  12)  0.1327 (  14)
................................................................................
.............................. CYCLE   23 ......................................
................................................................................
   1    -45.6019458 -0.456019E+02  0.432E-01    8.95       0.0  T
   2    -45.6021387 -0.192955E-03  0.318E-01    9.00       1.0  T
   3    -45.6022453 -0.106643E-03  0.780E-02    9.08       1.0  T
   4    -45.6022627 -0.173763E-04  0.233E-02    9.03       1.0  T
   5    -45.6022637 -0.100948E-05  0.786E-03    9.01       2.7  T
   6    -45.6022638 -0.932515E-07  0.441E-03    9.02       4.7  T
   7    -45.6022639 -0.225762E-07  0.113E-03    9.02      18.5  T
speedup  0.94
cpu  time for SCC    0.00 s
wall time for SCC    0.01 s
speedup  1.00
cpu  time for grad    0.01 s
wall time for grad    0.01 s
 E :    -45.35510773  G :  0.060782    pred/act E change: -0.649D-02 -0.149D-02
Maxdispl :   0.1556   ||displ|| :   0.3755   Lambda : -0.108D-01
Largest |displ|/coords:  0.1556 (   9)  0.1198 (   8)  0.1137 (   4)
................................................................................
.............................. CYCLE   24 ......................................
................................................................................
   1    -45.6152817 -0.456153E+02  0.365E-01    9.21       0.0  T
   2    -45.6153922 -0.110491E-03  0.270E-01    9.24       1.0  T
   3    -45.6154610 -0.688227E-04  0.622E-02    9.23       1.0  T
   4    -45.6154714 -0.103880E-04  0.182E-02    9.27       1.1  T
   5    -45.6154721 -0.642173E-06  0.661E-03    9.28       3.2  T
   6    -45.6154721 -0.300400E-07  0.341E-03    9.28       6.1  T
   7    -45.6154721 -0.172591E-07  0.846E-04    9.28      24.6  T
speedup  1.13
cpu  time for SCC    0.01 s
wall time for SCC    0.01 s
speedup  1.00
cpu  time for grad    0.01 s
wall time for grad    0.01 s
 E :    -45.35689884  G :  0.042593    pred/act E change: -0.930D-02 -0.179D-02
Maxdispl :   0.1191   ||displ|| :   0.2929   Lambda : -0.383D-02
Largest |displ|/coords:  0.1191 (   1)  0.1090 (  24)  0.1031 (  21)
................................................................................
.............................. CYCLE   25 ......................................
................................................................................
   1    -45.6098817 -0.456099E+02  0.233E-01    9.27       0.0  T
   2    -45.6099114 -0.297097E-04  0.172E-01    9.29       1.0  T
   3    -45.6099310 -0.195965E-04  0.410E-02    9.31       1.0  T
   4    -45.6099345 -0.351524E-05  0.123E-02    9.30       1.7  T
   5    -45.6099347 -0.210877E-06  0.392E-03    9.29       5.3  T
   6    -45.6099347 -0.135984E-07  0.204E-03    9.29      10.2  T
speedup  1.11
cpu  time for SCC    0.00 s
wall time for SCC    0.00 s
speedup  0.97
cpu  time for grad    0.01 s
wall time for grad    0.01 s
 E :    -45.35886913  G :  0.022551    pred/act E change: -0.618D-02 -0.197D-02
Maxdispl :   0.1002   ||displ|| :   0.2385   Lambda : -0.178D-02
Largest |displ|/coords:  0.1002 (   1)  0.0795 (  23)  0.0706 (  29)

generating ANC from model Hessian ...
 Shifting diagonal of input Hessian by   4.571563016674450E-003
 Lowest  eigenvalues of input Hessian
   -0.000000   -0.000000   -0.000000   -0.000000    0.000000    0.000000
    0.005000    0.005318    0.005564    0.005790    0.006211    0.006745
    0.006894    0.007611    0.008775    0.008934    0.010398    0.012164
 Highest eigenvalues
    1.380713    1.385053    1.433124    2.802299    3.475780    3.696921
 
cpu  time for ANC gen    0.02 s
wall time for ANC gen    0.02 s
................................................................................
.............................. CYCLE   26 ......................................
................................................................................
   1    -45.6094009 -0.456094E+02  0.180E-01    9.32       0.0  T
   2    -45.6094267 -0.258502E-04  0.134E-01    9.33       1.0  T
   3    -45.6094390 -0.123267E-04  0.332E-02    9.33       1.0  T
   4    -45.6094421 -0.303334E-05  0.910E-03    9.33       2.3  T
   5    -45.6094422 -0.167882E-06  0.293E-03    9.33       7.1  T
   6    -45.6094422 -0.107266E-07  0.153E-03    9.33      13.6  T
   7    -45.6094422 -0.496441E-08  0.488E-04    9.33      42.7  T
   8    -45.6094423 -0.487475E-09  0.128E-04    9.33     162.9  T
speedup  0.91
cpu  time for SCC    0.01 s
wall time for SCC    0.01 s
speedup  0.86
cpu  time for grad    0.01 s
wall time for grad    0.01 s
 E :    -45.35904416  G :  0.031239    pred/act E change:  0.000D+00 -0.175D-03
Maxdispl :   0.2799   ||displ|| :   0.3479   Lambda : -0.229D-02
Largest |displ|/coords:  0.2799 (   3)  0.1047 (   5)  0.0900 (  11)
................................................................................
.............................. CYCLE   27 ......................................
................................................................................
   1    -45.6105945 -0.456106E+02  0.320E-01    9.31       0.0  T
   2    -45.6106032 -0.870231E-05  0.241E-01    9.31       1.0  T
   3    -45.6106134 -0.101335E-04  0.170E-02    9.32       1.2  T
   4    -45.6106140 -0.621721E-06  0.741E-03    9.32       2.8  T
   5    -45.6106141 -0.662701E-07  0.276E-03    9.32       7.5  T
   6    -45.6106141 -0.104733E-07  0.127E-03    9.32      16.4  T
speedup  0.83
cpu  time for SCC    0.00 s
wall time for SCC    0.00 s
speedup  1.01
cpu  time for grad    0.01 s
wall time for grad    0.01 s
 E :    -45.36060216  G :  0.021566    pred/act E change:  0.000D+00 -0.156D-02
Maxdispl :   0.2515   ||displ|| :   0.3709   Lambda : -0.213D-02
Largest |displ|/coords:  0.2515 (   3)  0.1203 (  11)  0.1102 (  16)
................................................................................
.............................. CYCLE   28 ......................................
................................................................................
   1    -45.6133008 -0.456133E+02  0.225E-01    9.27       0.0  T
   2    -45.6133129 -0.121612E-04  0.168E-01    9.27       1.0  T
   3    -45.6133215 -0.854456E-05  0.221E-02    9.28       1.0  T
   4    -45.6133231 -0.156610E-05  0.733E-03    9.29       2.8  T
   5    -45.6133231 -0.734986E-07  0.251E-03    9.29       8.3  T
   6    -45.6133231 -0.797844E-08  0.139E-03    9.29      15.0  T
speedup  0.83
cpu  time for SCC    0.00 s
wall time for SCC    0.00 s
speedup  0.95
cpu  time for grad    0.01 s
wall time for grad    0.01 s
 E :    -45.36203466  G :  0.013036    pred/act E change: -0.128D-02 -0.143D-02
Maxdispl :   0.4659   ||displ|| :   0.5987   Lambda : -0.192D-02
Largest |displ|/coords:  0.4659 (   3)  0.2213 (   5)  0.1255 (  16)
................................................................................
.............................. CYCLE   29 ......................................
................................................................................
   1    -45.6058462 -0.456058E+02  0.473E-01    9.12       0.0  T
   2    -45.6058823 -0.361104E-04  0.355E-01    9.16       1.0  T
   3    -45.6059029 -0.205765E-04  0.378E-02    9.23       1.0  T
   4    -45.6059089 -0.596826E-05  0.124E-02    9.22       1.7  T
   5    -45.6059091 -0.203861E-06  0.435E-03    9.21       4.8  T
   6    -45.6059091 -0.121525E-07  0.231E-03    9.21       9.0  T
   7    -45.6059091 -0.967947E-08  0.540E-04    9.21      38.6  T
speedup  1.07
cpu  time for SCC    0.01 s
wall time for SCC    0.01 s
speedup  1.03
cpu  time for grad    0.01 s
wall time for grad    0.01 s
 E :    -45.36271773  G :  0.045139    pred/act E change: -0.121D-02 -0.683D-03
Maxdispl :   0.3226   ||displ|| :   0.4626   Lambda : -0.380D-02
Largest |displ|/coords:  0.3226 (   3)  0.1496 (   9)  0.1276 (  11)
................................................................................
.............................. CYCLE   30 ......................................
................................................................................
   1    -45.6070486 -0.456070E+02  0.353E-01    9.15       0.0  T
   2    -45.6071107 -0.621690E-04  0.266E-01    9.16       1.0  T
   3    -45.6071573 -0.465659E-04  0.486E-02    9.16       1.0  T
   4    -45.6071655 -0.817636E-05  0.163E-02    9.17       1.3  T
   5    -45.6071659 -0.413088E-06  0.541E-03    9.17       3.9  T
   6    -45.6071659 -0.269982E-07  0.259E-03    9.17       8.1  T
speedup  1.02
cpu  time for SCC    0.00 s
wall time for SCC    0.00 s
speedup  1.01
cpu  time for grad    0.01 s
wall time for grad    0.01 s
 E :    -45.36398000  G :  0.034516    pred/act E change: -0.131D-02 -0.126D-02
Maxdispl :   0.1748   ||displ|| :   0.3049   Lambda : -0.276D-02
Largest |displ|/coords:  0.1748 (  10)  0.1347 (  11)  0.1044 (   9)
................................................................................
.............................. CYCLE   31 ......................................
................................................................................
   1    -45.6174396 -0.456174E+02  0.235E-01    9.29       0.0  T
   2    -45.6174622 -0.226230E-04  0.178E-01    9.29       1.0  T
   3    -45.6174803 -0.180765E-04  0.282E-02    9.29       1.0  T
   4    -45.6174835 -0.322568E-05  0.791E-03    9.29       2.6  T
   5    -45.6174836 -0.753676E-07  0.325E-03    9.29       6.4  T
   6    -45.6174836 -0.804716E-08  0.122E-03    9.29      17.0  T
speedup  1.02
cpu  time for SCC    0.00 s
wall time for SCC    0.00 s
speedup  1.02
cpu  time for grad    0.01 s
wall time for grad    0.01 s
 E :    -45.36513538  G :  0.028080    pred/act E change: -0.231D-02 -0.116D-02
Maxdispl :   0.4358   ||displ|| :   0.5421   Lambda : -0.303D-02
Largest |displ|/coords:  0.4358 (   3)  0.1767 (   5)  0.1185 (  16)
................................................................................
.............................. CYCLE   32 ......................................
................................................................................
   1    -45.6116133 -0.456116E+02  0.372E-01    9.35       0.0  T
   2    -45.6116863 -0.730244E-04  0.276E-01    9.35       1.0  T
   3    -45.6117124 -0.261482E-04  0.482E-02    9.35       1.0  T
   4    -45.6117244 -0.120080E-04  0.106E-02    9.35       2.0  T
   5    -45.6117247 -0.267949E-06  0.421E-03    9.35       4.9  T
   6    -45.6117247 -0.116498E-07  0.226E-03    9.35       9.2  T
speedup  1.02
cpu  time for SCC    0.00 s
wall time for SCC    0.00 s
speedup  1.03
cpu  time for grad    0.01 s
wall time for grad    0.01 s
 E :    -45.36636866  G :  0.035897    pred/act E change: -0.151D-02 -0.123D-02
Maxdispl :   0.2417   ||displ|| :   0.3246   Lambda : -0.196D-02
Largest |displ|/coords:  0.2417 (   3)  0.0847 (   4)  0.0842 (  16)
................................................................................
.............................. CYCLE   33 ......................................
................................................................................
   1    -45.6106020 -0.456106E+02  0.164E-01    9.36       0.0  T
   2    -45.6106292 -0.271683E-04  0.121E-01    9.36       1.0  T
   3    -45.6106371 -0.790245E-05  0.304E-02    9.35       1.0  T
   4    -45.6106407 -0.362430E-05  0.632E-03    9.35       3.3  T
   5    -45.6106407 -0.559765E-07  0.217E-03    9.35       9.6  T
   6    -45.6106407 -0.545829E-08  0.104E-03    9.35      20.1  T
speedup  0.82
cpu  time for SCC    0.00 s
wall time for SCC    0.00 s
speedup  0.93
cpu  time for grad    0.01 s
wall time for grad    0.01 s
 E :    -45.36783622  G :  0.023814    pred/act E change: -0.196D-02 -0.147D-02
Maxdispl :   0.1856   ||displ|| :   0.3986   Lambda : -0.294D-02
Largest |displ|/coords:  0.1856 (   3)  0.1391 (  18)  0.1389 (  16)
................................................................................
.............................. CYCLE   34 ......................................
................................................................................
   1    -45.6190661 -0.456191E+02  0.319E-01    9.50       0.0  T
   2    -45.6192416 -0.175463E-03  0.233E-01    9.50       1.0  T
   3    -45.6193108 -0.691821E-04  0.801E-02    9.49       1.0  T
   4    -45.6193256 -0.148128E-04  0.164E-02    9.49       1.3  T
   5    -45.6193262 -0.630923E-06  0.630E-03    9.49       3.3  T
   6    -45.6193263 -0.432246E-07  0.292E-03    9.49       7.1  T
   7    -45.6193263 -0.161424E-07  0.102E-03    9.49      20.5  T
speedup  1.09
cpu  time for SCC    0.01 s
wall time for SCC    0.01 s
speedup  1.05
cpu  time for grad    0.01 s
wall time for grad    0.01 s
 E :    -45.36890257  G :  0.045820    pred/act E change: -0.108D-02 -0.107D-02
Maxdispl :   0.2489   ||displ|| :   0.4642   Lambda : -0.342D-02
Largest |displ|/coords:  0.2489 (   3)  0.1441 (   6)  0.1258 (  16)
................................................................................
.............................. CYCLE   35 ......................................
................................................................................
   1    -45.6162575 -0.456163E+02  0.360E-01    9.51       0.0  T
   2    -45.6164133 -0.155801E-03  0.266E-01    9.50       1.0  T
   3    -45.6164682 -0.548110E-04  0.742E-02    9.49       1.0  T
   4    -45.6164884 -0.202270E-04  0.153E-02    9.49       1.4  T
   5    -45.6164888 -0.455955E-06  0.562E-03    9.49       3.7  T
   6    -45.6164889 -0.297382E-07  0.260E-03    9.49       8.0  T
speedup  1.02
cpu  time for SCC    0.01 s
wall time for SCC    0.00 s
speedup  1.00
cpu  time for grad    0.01 s
wall time for grad    0.01 s
 E :    -45.37096361  G :  0.028409    pred/act E change: -0.170D-02 -0.206D-02
Maxdispl :   0.1462   ||displ|| :   0.3016   Lambda : -0.217D-02
Largest |displ|/coords:  0.1462 (   3)  0.1306 (   9)  0.0769 (  11)
................................................................................
.............................. CYCLE   36 ......................................
................................................................................
   1    -45.6221929 -0.456222E+02  0.193E-01    9.58       0.0  T
   2    -45.6222573 -0.644094E-04  0.142E-01    9.57       1.0  T
   3    -45.6222826 -0.252943E-04  0.447E-02    9.57       1.0  T
   4    -45.6222891 -0.645657E-05  0.103E-02    9.56       2.0  T
   5    -45.6222893 -0.234321E-06  0.361E-03    9.57       5.8  T
   6    -45.6222893 -0.125531E-07  0.181E-03    9.57      11.5  T
speedup  1.04
cpu  time for SCC    0.01 s
wall time for SCC    0.00 s
speedup  1.02
cpu  time for grad    0.01 s
wall time for grad    0.01 s
 E :    -45.37226359  G :  0.023960    pred/act E change: -0.208D-02 -0.130D-02
Maxdispl :   0.2233   ||displ|| :   0.4543   Lambda : -0.208D-02
Largest |displ|/coords:  0.2233 (   3)  0.1472 (   5)  0.1444 (  19)
................................................................................
.............................. CYCLE   37 ......................................
................................................................................
   1    -45.6260337 -0.456260E+02  0.258E-01    9.55       0.0  T
   2    -45.6261213 -0.876092E-04  0.189E-01    9.55       1.0  T
   3    -45.6261568 -0.354420E-04  0.539E-02    9.54       1.0  T
   4    -45.6261657 -0.896747E-05  0.117E-02    9.54       1.8  T
   5    -45.6261660 -0.315810E-06  0.411E-03    9.54       5.1  T
   6    -45.6261661 -0.170927E-07  0.209E-03    9.54      10.0  T
speedup  1.04
cpu  time for SCC    0.00 s
wall time for SCC    0.00 s
speedup  1.03
cpu  time for grad    0.01 s
wall time for grad    0.01 s
 E :    -45.37334087  G :  0.016258    pred/act E change: -0.118D-02 -0.108D-02
Maxdispl :   0.1979   ||displ|| :   0.3761   Lambda : -0.152D-02
Largest |displ|/coords:  0.1979 (   4)  0.1589 (   3)  0.1121 (  11)
................................................................................
.............................. CYCLE   38 ......................................
................................................................................
   1    -45.6316709 -0.456317E+02  0.177E-01    9.45       0.0  T
   2    -45.6316927 -0.218041E-04  0.132E-01    9.45       1.0  T
   3    -45.6317088 -0.160759E-04  0.293E-02    9.46       1.0  T
   4    -45.6317113 -0.253146E-05  0.686E-03    9.46       3.0  T
   5    -45.6317114 -0.594616E-07  0.353E-03    9.46       5.9  T
   6    -45.6317114 -0.111407E-07  0.157E-03    9.46      13.3  T
   7    -45.6317114 -0.330640E-08  0.348E-04    9.46      59.9  T
speedup  1.07
cpu  time for SCC    0.01 s
wall time for SCC    0.01 s
speedup  1.04
cpu  time for grad    0.01 s
wall time for grad    0.01 s
 E :    -45.37334312  G :  0.027583    pred/act E change: -0.126D-02 -0.225D-05
Maxdispl :   0.1770   ||displ|| :   0.2666   Lambda : -0.145D-02
Largest |displ|/coords:  0.1770 (   3)  0.0827 (   5)  0.0764 (   4)
................................................................................
.............................. CYCLE   39 ......................................
................................................................................
   1    -45.6228671 -0.456229E+02  0.168E-01    9.41       0.0  T
   2    -45.6228790 -0.118688E-04  0.125E-01    9.41       1.0  T
   3    -45.6228847 -0.573465E-05  0.208E-02    9.41       1.0  T
   4    -45.6228867 -0.196058E-05  0.582E-03    9.41       3.6  T
   5    -45.6228867 -0.543833E-07  0.237E-03    9.41       8.8  T
speedup  0.98
cpu  time for SCC    0.00 s
wall time for SCC    0.00 s
speedup  1.00
cpu  time for grad    0.01 s
wall time for grad    0.01 s
 E :    -45.37394440  G :  0.013399    pred/act E change: -0.868D-03 -0.601D-03
Maxdispl :   0.0493   ||displ|| :   0.1188   Lambda : -0.479D-03
Largest |displ|/coords:  0.0493 (   2)  0.0464 (   4)  0.0431 (  11)
................................................................................
.............................. CYCLE   40 ......................................
................................................................................
   1    -45.6273827 -0.456274E+02  0.770E-02    9.46       0.0  T
   2    -45.6273863 -0.357999E-05  0.573E-02    9.46       1.0  T
   3    -45.6273887 -0.239958E-05  0.126E-02    9.46       1.7  T
   4    -45.6273891 -0.413035E-06  0.332E-03    9.46       6.3  T
   5    -45.6273892 -0.179708E-07  0.120E-03    9.46      17.4  T
   6    -45.6273892 -0.124520E-08  0.606E-04    9.46      34.4  T
speedup  1.02
cpu  time for SCC    0.00 s
wall time for SCC    0.00 s
speedup  1.02
cpu  time for grad    0.01 s
wall time for grad    0.01 s
 E :    -45.37403503  G :  0.010799    pred/act E change: -0.777D-03 -0.906D-04
Maxdispl :   0.0396   ||displ|| :   0.0756   Lambda : -0.270D-03
Largest |displ|/coords:  0.0396 (   6)  0.0354 (   3)  0.0214 (  16)
................................................................................
.............................. CYCLE   41 ......................................
................................................................................
   1    -45.6267639 -0.456268E+02  0.664E-02    9.45       0.0  T
   2    -45.6267672 -0.332474E-05  0.498E-02    9.45       1.0  T
   3    -45.6267692 -0.202975E-05  0.120E-02    9.45       1.7  T
   4    -45.6267697 -0.463565E-06  0.379E-03    9.45       5.5  T
   5    -45.6267697 -0.204809E-07  0.110E-03    9.45      19.0  T
   6    -45.6267697 -0.129950E-08  0.611E-04    9.45      34.1  T
speedup  1.04
cpu  time for SCC    0.00 s
wall time for SCC    0.00 s
speedup  0.94
cpu  time for grad    0.01 s
wall time for grad    0.01 s
 E :    -45.37416281  G :  0.006774    pred/act E change: -0.243D-03 -0.128D-03
Maxdispl :   0.0619   ||displ|| :   0.0946   Lambda : -0.110D-03
Largest |displ|/coords:  0.0619 (   4)  0.0260 (  11)  0.0259 (   2)
................................................................................
.............................. CYCLE   42 ......................................
................................................................................
   1    -45.6269705 -0.456270E+02  0.484E-02    9.45       0.0  T
   2    -45.6269721 -0.156507E-05  0.360E-02    9.45       1.0  T
   3    -45.6269728 -0.730353E-06  0.783E-03    9.45       2.7  T
   4    -45.6269730 -0.209803E-06  0.217E-03    9.45       9.6  T
   5    -45.6269731 -0.117448E-07  0.683E-04    9.45      30.5  T
speedup  0.95
cpu  time for SCC    0.00 s
wall time for SCC    0.00 s
speedup  0.99
cpu  time for grad    0.01 s
wall time for grad    0.01 s
 E :    -45.37422164  G :  0.005230    pred/act E change: -0.136D-03 -0.588D-04
Maxdispl :   0.0388   ||displ|| :   0.0744   Lambda : -0.788D-04
Largest |displ|/coords:  0.0388 (   4)  0.0301 (   5)  0.0274 (   8)
................................................................................
.............................. CYCLE   43 ......................................
................................................................................
   1    -45.6266407 -0.456266E+02  0.569E-02    9.45       0.0  T
   2    -45.6266412 -0.454666E-06  0.428E-02    9.45       1.0  T
   3    -45.6266417 -0.509781E-06  0.461E-03    9.45       4.5  T
   4    -45.6266417 -0.364303E-07  0.191E-03    9.45      10.9  T
   5    -45.6266417 -0.334072E-08  0.563E-04    9.45      37.0  T
speedup  0.98
cpu  time for SCC    0.00 s
wall time for SCC    0.00 s
speedup  1.00
cpu  time for grad    0.01 s
wall time for grad    0.01 s
 E :    -45.37427986  G :  0.004906    pred/act E change: -0.553D-04 -0.582D-04
Maxdispl :   0.0671   ||displ|| :   0.1507   Lambda : -0.165D-03
Largest |displ|/coords:  0.0671 (  15)  0.0611 (   4)  0.0509 (   1)
................................................................................
.............................. CYCLE   44 ......................................
................................................................................
   1    -45.6273747 -0.456274E+02  0.121E-01    9.48       0.0  T
   2    -45.6273772 -0.252834E-05  0.907E-02    9.48       1.0  T
   3    -45.6273788 -0.155316E-05  0.124E-02    9.48       1.7  T
   4    -45.6273792 -0.400355E-06  0.461E-03    9.48       4.5  T
   5    -45.6273792 -0.178475E-07  0.109E-03    9.48      19.2  T
   6    -45.6273792 -0.101936E-08  0.683E-04    9.48      30.5  T
speedup  1.04
cpu  time for SCC    0.00 s
wall time for SCC    0.00 s
speedup  0.94
cpu  time for grad    0.01 s
wall time for grad    0.01 s
 E :    -45.37435759  G :  0.006765    pred/act E change: -0.396D-04 -0.777D-04
Maxdispl :   0.0352   ||displ|| :   0.0871   Lambda : -0.904D-04
Largest |displ|/coords:  0.0352 (   8)  0.0287 (  15)  0.0258 (   2)
................................................................................
.............................. CYCLE   45 ......................................
................................................................................
   1    -45.6281533 -0.456282E+02  0.712E-02    9.49       0.0  T
   2    -45.6281542 -0.880990E-06  0.539E-02    9.49       1.0  T
   3    -45.6281552 -0.102643E-05  0.539E-03    9.49       3.9  T
   4    -45.6281553 -0.771591E-07  0.230E-03    9.49       9.1  T
   5    -45.6281553 -0.478253E-08  0.709E-04    9.49      29.4  T
speedup  0.98
cpu  time for SCC    0.00 s
wall time for SCC    0.00 s
speedup  1.00
cpu  time for grad    0.01 s
wall time for grad    0.01 s
 E :    -45.37440055  G :  0.007069    pred/act E change: -0.846D-04 -0.430D-04
Maxdispl :   0.0446   ||displ|| :   0.0832   Lambda : -0.873D-04
Largest |displ|/coords:  0.0446 (   4)  0.0321 (  15)  0.0295 (   8)
................................................................................
.............................. CYCLE   46 ......................................
................................................................................
   1    -45.6277085 -0.456277E+02  0.605E-02    9.47       0.0  T
   2    -45.6277091 -0.612510E-06  0.455E-02    9.47       1.0  T
   3    -45.6277097 -0.591415E-06  0.515E-03    9.47       4.1  T
   4    -45.6277097 -0.634910E-07  0.209E-03    9.47      10.0  T
   5    -45.6277097 -0.366595E-08  0.562E-04    9.47      37.1  T
speedup  1.00
cpu  time for SCC    0.00 s
wall time for SCC    0.00 s
speedup  0.95
cpu  time for grad    0.01 s
wall time for grad    0.01 s
 E :    -45.37446233  G :  0.004907    pred/act E change: -0.455D-04 -0.618D-04
Maxdispl :   0.0574   ||displ|| :   0.1239   Lambda : -0.118D-03
Largest |displ|/coords:  0.0574 (   2)  0.0468 (  11)  0.0444 (   1)
................................................................................
.............................. CYCLE   47 ......................................
................................................................................
   1    -45.6277482 -0.456277E+02  0.863E-02    9.45       0.0  T
   2    -45.6277502 -0.201394E-05  0.644E-02    9.45       1.0  T
   3    -45.6277515 -0.131492E-05  0.975E-03    9.45       2.1  T
   4    -45.6277518 -0.276636E-06  0.392E-03    9.45       5.3  T
   5    -45.6277518 -0.155954E-07  0.945E-04    9.45      22.1  T
   6    -45.6277518 -0.115518E-08  0.554E-04    9.45      37.6  T
speedup  0.85
cpu  time for SCC    0.00 s
wall time for SCC    0.00 s
speedup  0.95
cpu  time for grad    0.01 s
wall time for grad    0.01 s
 E :    -45.37451010  G :  0.005612    pred/act E change: -0.440D-04 -0.478D-04
Maxdispl :   0.0995   ||displ|| :   0.1999   Lambda : -0.132D-03
Largest |displ|/coords:  0.0995 (  15)  0.0877 (   4)  0.0625 (   2)
................................................................................
.............................. CYCLE   48 ......................................
................................................................................
   1    -45.6250226 -0.456250E+02  0.176E-01    9.43       0.0  T
   2    -45.6250293 -0.670257E-05  0.133E-01    9.43       1.0  T
   3    -45.6250353 -0.599684E-05  0.146E-02    9.43       1.4  T
   4    -45.6250361 -0.853472E-06  0.491E-03    9.43       4.3  T
   5    -45.6250361 -0.314554E-07  0.184E-03    9.43      11.3  T
   6    -45.6250361 -0.403506E-08  0.866E-04    9.43      24.1  T
speedup  1.04
cpu  time for SCC    0.00 s
wall time for SCC    0.00 s
speedup  1.03
cpu  time for grad    0.01 s
wall time for grad    0.01 s
 E :    -45.37443989  G :  0.013198    pred/act E change: -0.599D-04  0.702D-04
Maxdispl :   0.0635   ||displ|| :   0.1193   Lambda : -0.262D-03
Largest |displ|/coords:  0.0635 (  15)  0.0484 (   4)  0.0346 (  13)
................................................................................
.............................. CYCLE   49 ......................................
................................................................................
   1    -45.6281403 -0.456281E+02  0.110E-01    9.45       0.0  T
   2    -45.6281432 -0.286750E-05  0.826E-02    9.45       1.0  T
   3    -45.6281456 -0.235872E-05  0.995E-03    9.46       2.1  T
   4    -45.6281459 -0.370438E-06  0.367E-03    9.45       5.7  T
   5    -45.6281459 -0.178836E-07  0.123E-03    9.46      16.9  T
   6    -45.6281459 -0.153663E-08  0.654E-04    9.46      31.9  T
speedup  1.04
cpu  time for SCC    0.00 s
wall time for SCC    0.00 s
speedup  1.02
cpu  time for grad    0.01 s
wall time for grad    0.01 s
 E :    -45.37455838  G :  0.003085    pred/act E change: -0.686D-04 -0.118D-03
Maxdispl :   0.0327   ||displ|| :   0.0550   Lambda : -0.325D-04
Largest |displ|/coords:  0.0327 (   1)  0.0231 (   4)  0.0208 (  11)
................................................................................
.............................. CYCLE   50 ......................................
................................................................................
   1    -45.6281136 -0.456281E+02  0.327E-02    9.45       0.0  T
   2    -45.6281138 -0.232530E-06  0.244E-02    9.45       1.0  T
   3    -45.6281140 -0.171648E-06  0.367E-03    9.45       5.7  T
   4    -45.6281140 -0.308655E-07  0.950E-04    9.45      21.9  T
   5    -45.6281140 -0.143700E-08  0.356E-04    9.45      58.6  T
speedup  1.00
cpu  time for SCC    0.00 s
wall time for SCC    0.00 s
speedup  1.05
cpu  time for grad    0.01 s
wall time for grad    0.01 s
 E :    -45.37457641  G :  0.002464    pred/act E change: -0.133D-03 -0.180D-04
Maxdispl :   0.0575   ||displ|| :   0.1105   Lambda : -0.392D-04
Largest |displ|/coords:  0.0575 (   1)  0.0485 (   2)  0.0480 (   4)
................................................................................
.............................. CYCLE   51 ......................................
................................................................................
   1    -45.6280112 -0.456280E+02  0.704E-02    9.45       0.0  T
   2    -45.6280120 -0.823179E-06  0.532E-02    9.45       1.0  T
   3    -45.6280129 -0.887784E-06  0.517E-03    9.45       4.0  T
   4    -45.6280130 -0.733766E-07  0.223E-03    9.45       9.3  T
   5    -45.6280130 -0.411487E-08  0.572E-04    9.45      36.4  T
   6    -45.6280130 -0.445368E-09  0.341E-04    9.45      61.1  T
speedup  1.04
cpu  time for SCC    0.01 s
wall time for SCC    0.00 s
speedup  0.99
cpu  time for grad    0.01 s
wall time for grad    0.01 s
 E :    -45.37460822  G :  0.003060    pred/act E change: -0.163D-04 -0.318D-04
Maxdispl :   0.1346   ||displ|| :   0.2634   Lambda : -0.891D-04
Largest |displ|/coords:  0.1346 (   1)  0.1193 (   2)  0.1129 (   4)
................................................................................
.............................. CYCLE   52 ......................................
................................................................................
   1    -45.6284823 -0.456285E+02  0.164E-01    9.44       0.0  T
   2    -45.6284867 -0.443900E-05  0.124E-01    9.44       1.0  T
   3    -45.6284911 -0.439264E-05  0.123E-02    9.44       1.7  T
   4    -45.6284916 -0.444006E-06  0.542E-03    9.44       3.8  T
   5    -45.6284916 -0.236748E-07  0.121E-03    9.44      17.2  T
   6    -45.6284916 -0.175591E-08  0.744E-04    9.44      28.0  T
   7    -45.6284916 -0.681027E-09  0.166E-04    9.44     125.3  T
speedup  0.91
cpu  time for SCC    0.00 s
wall time for SCC    0.01 s
speedup  0.94
cpu  time for grad    0.01 s
wall time for grad    0.01 s
 E :    -45.37465179  G :  0.004750    pred/act E change: -0.198D-04 -0.436D-04
Maxdispl :   0.0509   ||displ|| :   0.1073   Lambda : -0.496D-04
Largest |displ|/coords:  0.0509 (   1)  0.0452 (   2)  0.0402 (   3)

generating ANC from model Hessian ...
 Shifting diagonal of input Hessian by   4.441891147266911E-003
 Lowest  eigenvalues of input Hessian
   -0.000000   -0.000000    0.000000    0.000000    0.000000    0.000000
    0.005000    0.005400    0.005717    0.006876    0.007463    0.007944
    0.008459    0.009754    0.010742    0.010931    0.011909    0.012677
 Highest eigenvalues
    1.379409    1.399466    1.464359    2.744539    3.328877    3.592830
 
cpu  time for ANC gen    0.02 s
wall time for ANC gen    0.02 s
................................................................................
.............................. CYCLE   53 ......................................
................................................................................
   1    -45.6284684 -0.456285E+02  0.682E-02    9.43       0.0  T
   2    -45.6284693 -0.894803E-06  0.514E-02    9.43       1.0  T
   3    -45.6284700 -0.712133E-06  0.522E-03    9.43       4.0  T
   4    -45.6284701 -0.117690E-06  0.211E-03    9.43       9.9  T
   5    -45.6284701 -0.497429E-08  0.515E-04    9.43      40.5  T
   6    -45.6284701 -0.251610E-09  0.276E-04    9.43      75.7  T
speedup  1.06
cpu  time for SCC    0.00 s
wall time for SCC    0.00 s
speedup  1.00
cpu  time for grad    0.01 s
wall time for grad    0.01 s
 E :    -45.37467400  G :  0.005833    pred/act E change:  0.000D+00 -0.222D-04
Maxdispl :   0.0485   ||displ|| :   0.1053   Lambda : -0.154D-03
Largest |displ|/coords:  0.0485 (   2)  0.0444 (   8)  0.0373 (   4)
................................................................................
.............................. CYCLE   54 ......................................
................................................................................
   1    -45.6292153 -0.456292E+02  0.937E-02    9.45       0.0  T
   2    -45.6292165 -0.118356E-05  0.708E-02    9.45       1.0  T
   3    -45.6292176 -0.117467E-05  0.620E-03    9.45       3.4  T
   4    -45.6292178 -0.128658E-06  0.241E-03    9.45       8.7  T
   5    -45.6292178 -0.424362E-08  0.764E-04    9.45      27.3  T
speedup  0.95
cpu  time for SCC    0.00 s
wall time for SCC    0.00 s
speedup  0.98
cpu  time for grad    0.01 s
wall time for grad    0.01 s
 E :    -45.37473202  G :  0.003687    pred/act E change:  0.000D+00 -0.580D-04
Maxdispl :   0.0694   ||displ|| :   0.1234   Lambda : -0.135D-03
Largest |displ|/coords:  0.0694 (   2)  0.0641 (   5)  0.0506 (   8)
................................................................................
.............................. CYCLE   55 ......................................
................................................................................
   1    -45.6300588 -0.456301E+02  0.783E-02    9.46       0.0  T
   2    -45.6300601 -0.130266E-05  0.586E-02    9.46       1.0  T
   3    -45.6300608 -0.730344E-06  0.750E-03    9.47       2.8  T
   4    -45.6300610 -0.231110E-06  0.225E-03    9.46       9.3  T
   5    -45.6300610 -0.456787E-08  0.765E-04    9.46      27.2  T
   6    -45.6300610 -0.785064E-09  0.375E-04    9.46      55.7  T
speedup  0.83
cpu  time for SCC    0.00 s
wall time for SCC    0.00 s
speedup  0.99
cpu  time for grad    0.01 s
wall time for grad    0.01 s
 E :    -45.37481258  G :  0.003550    pred/act E change: -0.777D-04 -0.806D-04
Maxdispl :   0.1099   ||displ|| :   0.1662   Lambda : -0.103D-03
Largest |displ|/coords:  0.1099 (   2)  0.0581 (   9)  0.0578 (   8)
................................................................................
.............................. CYCLE   56 ......................................
................................................................................
   1    -45.6297482 -0.456297E+02  0.946E-02    9.46       0.0  T
   2    -45.6297496 -0.131120E-05  0.702E-02    9.46       1.0  T
   3    -45.6297503 -0.702511E-06  0.697E-03    9.47       3.0  T
   4    -45.6297505 -0.211898E-06  0.197E-03    9.47      10.6  T
   5    -45.6297505 -0.492616E-08  0.721E-04    9.47      28.9  T
   6    -45.6297505 -0.722942E-09  0.296E-04    9.47      70.5  T
speedup  1.04
cpu  time for SCC    0.01 s
wall time for SCC    0.00 s
speedup  0.99
cpu  time for grad    0.01 s
wall time for grad    0.01 s
 E :    -45.37489343  G :  0.004127    pred/act E change: -0.683D-04 -0.809D-04
Maxdispl :   0.3053   ||displ|| :   0.4406   Lambda : -0.226D-03
Largest |displ|/coords:  0.3053 (   2)  0.1473 (   1)  0.1347 (   5)
................................................................................
.............................. CYCLE   57 ......................................
................................................................................
   1    -45.6258864 -0.456259E+02  0.241E-01    9.42       0.0  T
   2    -45.6258960 -0.956470E-05  0.179E-01    9.42       1.0  T
   3    -45.6259025 -0.653378E-05  0.175E-02    9.43       1.2  T
   4    -45.6259038 -0.130451E-05  0.612E-03    9.43       3.4  T
   5    -45.6259039 -0.482113E-07  0.214E-03    9.43       9.8  T
   6    -45.6259039 -0.674073E-08  0.954E-04    9.43      21.9  T
speedup  1.04
cpu  time for SCC    0.00 s
wall time for SCC    0.00 s
speedup  1.03
cpu  time for grad    0.01 s
wall time for grad    0.01 s
 E :    -45.37492687  G :  0.015396    pred/act E change: -0.530D-04 -0.334D-04
Maxdispl :   0.0672   ||displ|| :   0.1112   Lambda : -0.335D-03
Largest |displ|/coords:  0.0672 (   8)  0.0553 (   2)  0.0324 (   1)
................................................................................
.............................. CYCLE   58 ......................................
................................................................................
   1    -45.6291635 -0.456292E+02  0.754E-02    9.46       0.0  T
   2    -45.6291657 -0.213316E-05  0.567E-02    9.46       1.0  T
   3    -45.6291667 -0.103142E-05  0.848E-03    9.45       2.5  T
   4    -45.6291671 -0.397084E-06  0.284E-03    9.45       7.3  T
   5    -45.6291671 -0.831280E-08  0.819E-04    9.45      25.4  T
speedup  0.98
cpu  time for SCC    0.00 s
wall time for SCC    0.00 s
speedup  0.98
cpu  time for grad    0.01 s
wall time for grad    0.01 s
 E :    -45.37510683  G :  0.006497    pred/act E change: -0.135D-03 -0.180D-03
Maxdispl :   0.1675   ||displ|| :   0.2278   Lambda : -0.218D-03
Largest |displ|/coords:  0.1675 (   2)  0.0678 (   5)  0.0621 (   9)
................................................................................
.............................. CYCLE   59 ......................................
................................................................................
   1    -45.6295471 -0.456295E+02  0.119E-01    9.44       0.0  T
   2    -45.6295494 -0.230497E-05  0.893E-02    9.44       1.0  T
   3    -45.6295512 -0.179717E-05  0.895E-03    9.44       2.3  T
   4    -45.6295515 -0.250285E-06  0.331E-03    9.44       6.3  T
   5    -45.6295515 -0.154537E-07  0.920E-04    9.44      22.7  T
   6    -45.6295515 -0.739249E-09  0.504E-04    9.44      41.4  T
speedup  0.93
cpu  time for SCC    0.00 s
wall time for SCC    0.01 s
speedup  0.97
cpu  time for grad    0.01 s
wall time for grad    0.01 s
 E :    -45.37532478  G :  0.007371    pred/act E change: -0.169D-03 -0.218D-03
Maxdispl :   0.1661   ||displ|| :   0.2321   Lambda : -0.247D-03
Largest |displ|/coords:  0.1661 (   2)  0.0793 (   5)  0.0620 (   6)
................................................................................
.............................. CYCLE   60 ......................................
................................................................................
   1    -45.6291308 -0.456291E+02  0.117E-01    9.43       0.0  T
   2    -45.6291342 -0.343042E-05  0.872E-02    9.43       1.0  T
   3    -45.6291363 -0.209837E-05  0.108E-02    9.43       1.9  T
   4    -45.6291368 -0.514318E-06  0.399E-03    9.43       5.2  T
   5    -45.6291368 -0.213420E-07  0.110E-03    9.43      19.0  T
   6    -45.6291368 -0.150381E-08  0.600E-04    9.43      34.7  T
speedup  1.02
cpu  time for SCC    0.00 s
wall time for SCC    0.00 s
speedup  1.02
cpu  time for grad    0.01 s
wall time for grad    0.01 s
 E :    -45.37557740  G :  0.009030    pred/act E change: -0.114D-03 -0.253D-03
Maxdispl :   0.1529   ||displ|| :   0.2243   Lambda : -0.278D-03
Largest |displ|/coords:  0.1529 (   2)  0.0793 (   5)  0.0719 (   9)
................................................................................
.............................. CYCLE   61 ......................................
................................................................................
   1    -45.6286576 -0.456287E+02  0.110E-01    9.42       0.0  T
   2    -45.6286613 -0.370987E-05  0.826E-02    9.42       1.0  T
   3    -45.6286632 -0.185633E-05  0.117E-02    9.42       1.8  T
   4    -45.6286638 -0.602743E-06  0.415E-03    9.42       5.0  T
   5    -45.6286638 -0.249548E-07  0.106E-03    9.42      19.7  T
   6    -45.6286638 -0.136610E-08  0.586E-04    9.42      35.6  T
speedup  1.04
cpu  time for SCC    0.00 s
wall time for SCC    0.00 s
speedup  1.02
cpu  time for grad    0.01 s
wall time for grad    0.01 s
 E :    -45.37585235  G :  0.011117    pred/act E change: -0.130D-03 -0.275D-03
Maxdispl :   0.5472   ||displ|| :   0.8816   Lambda : -0.142D-02
Largest |displ|/coords:  0.5472 (   2)  0.3256 (   5)  0.2769 (   9)
................................................................................
.............................. CYCLE   62 ......................................
................................................................................
   1    -45.6233034 -0.456233E+02  0.418E-01    9.33       0.0  T
   2    -45.6233936 -0.901336E-04  0.314E-01    9.34       1.0  T
   3    -45.6234304 -0.368005E-04  0.625E-02    9.34       1.0  T
   4    -45.6234446 -0.142509E-04  0.200E-02    9.35       1.0  T
   5    -45.6234453 -0.676375E-06  0.489E-03    9.35       4.3  T
   6    -45.6234453 -0.266011E-07  0.271E-03    9.35       7.7  T
   7    -45.6234453 -0.133570E-07  0.783E-04    9.35      26.6  T
speedup  1.07
cpu  time for SCC    0.01 s
wall time for SCC    0.01 s
speedup  1.03
cpu  time for grad    0.01 s
wall time for grad    0.01 s
 E :    -45.37633098  G :  0.026112    pred/act E change: -0.146D-03 -0.479D-03
Maxdispl :   0.2303   ||displ|| :   0.3401   Lambda : -0.195D-02
Largest |displ|/coords:  0.2303 (   2)  0.1320 (   1)  0.0684 (  11)
................................................................................
.............................. CYCLE   63 ......................................
................................................................................
   1    -45.6369770 -0.456370E+02  0.263E-01    9.47       0.0  T
   2    -45.6370971 -0.120065E-03  0.192E-01    9.46       1.0  T
   3    -45.6371329 -0.357973E-04  0.637E-02    9.44       1.0  T
   4    -45.6371436 -0.106449E-04  0.155E-02    9.44       1.3  T
   5    -45.6371437 -0.184512E-06  0.396E-03    9.44       5.3  T
   6    -45.6371438 -0.292396E-07  0.210E-03    9.44       9.9  T
speedup  1.00
cpu  time for SCC    0.00 s
wall time for SCC    0.00 s
speedup  0.98
cpu  time for grad    0.01 s
wall time for grad    0.01 s
 E :    -45.37580027  G :  0.024711    pred/act E change: -0.126D-02  0.531D-03
Maxdispl :   0.1888   ||displ|| :   0.4182   Lambda : -0.305D-02
Largest |displ|/coords:  0.1888 (   1)  0.1706 (   2)  0.1373 (   3)
................................................................................
.............................. CYCLE   64 ......................................
................................................................................
   1    -45.6339472 -0.456339E+02  0.257E-01    9.41       0.0  T
   2    -45.6340163 -0.690928E-04  0.188E-01    9.41       1.0  T
   3    -45.6340364 -0.201487E-04  0.503E-02    9.42       1.0  T
   4    -45.6340454 -0.896844E-05  0.102E-02    9.42       2.1  T
   5    -45.6340455 -0.137179E-06  0.362E-03    9.42       5.8  T
   6    -45.6340455 -0.128634E-07  0.158E-03    9.42      13.2  T
speedup  1.04
cpu  time for SCC    0.00 s
wall time for SCC    0.00 s
speedup  1.02
cpu  time for grad    0.01 s
wall time for grad    0.01 s
 E :    -45.37679138  G :  0.015910    pred/act E change: -0.109D-02 -0.991D-03
Maxdispl :   0.1272   ||displ|| :   0.2969   Lambda : -0.129D-02
Largest |displ|/coords:  0.1272 (   5)  0.1112 (   9)  0.1109 (   8)
................................................................................
.............................. CYCLE   65 ......................................
................................................................................
   1    -45.6318485 -0.456318E+02  0.156E-01    9.45       0.0  T
   2    -45.6318572 -0.862547E-05  0.116E-01    9.44       1.0  T
   3    -45.6318615 -0.437942E-05  0.200E-02    9.44       1.0  T
   4    -45.6318629 -0.135347E-05  0.707E-03    9.45       2.9  T
   5    -45.6318630 -0.599151E-07  0.166E-03    9.45      12.5  T
   6    -45.6318630 -0.247351E-08  0.105E-03    9.45      19.8  T
speedup  1.00
cpu  time for SCC    0.00 s
wall time for SCC    0.01 s
speedup  1.01
cpu  time for grad    0.01 s
wall time for grad    0.01 s
 E :    -45.37726980  G :  0.012392    pred/act E change: -0.179D-02 -0.478D-03
Maxdispl :   0.1342   ||displ|| :   0.2599   Lambda : -0.553D-03
Largest |displ|/coords:  0.1342 (   2)  0.0828 (   5)  0.0768 (   7)
................................................................................
.............................. CYCLE   66 ......................................
[...]
Maxdispl :   0.0067   ||displ|| :   0.0095   Lambda : -0.452D-06
Largest |displ|/coords:  0.0067 (   1)  0.0033 (  12)  0.0025 (  18)
................................................................................
.............................. CYCLE  100 ......................................
................................................................................
   1    -45.6405339 -0.456405E+02  0.796E-03    9.52       0.0  T
   2    -45.6405339 -0.640041E-08  0.598E-03    9.52       3.5  T
   3    -45.6405339 -0.789511E-08  0.550E-04    9.52      37.9  T
   4    -45.6405339 -0.446491E-09  0.168E-04    9.52     124.4  T
speedup  0.97
cpu  time for SCC    0.00 s
wall time for SCC    0.00 s
speedup  1.07
cpu  time for grad    0.01 s
wall time for grad    0.01 s
 E :    -45.38305408  G :  0.000329    pred/act E change: -0.301D-06 -0.252D-06
Maxdispl :   0.0024   ||displ|| :   0.0056   Lambda : -0.294D-06
Largest |displ|/coords:  0.0024 (   7)  0.0021 (   1)  0.0020 (  18)
................................................................................
.............................. CYCLE  101 ......................................
................................................................................
   1    -45.6405254 -0.456405E+02  0.481E-03    9.52       0.0  T
   2    -45.6405254 -0.373457E-08  0.359E-03    9.52       5.8  T
   3    -45.6405254 -0.269714E-08  0.424E-04    9.52      49.1  T
   4    -45.6405254 -0.580393E-09  0.161E-04    9.52     129.8  T
speedup  0.94
cpu  time for SCC    0.00 s
wall time for SCC    0.00 s
speedup  0.96
cpu  time for grad    0.01 s
wall time for grad    0.01 s
 E :    -45.38305429  G :  0.000304    pred/act E change: -0.226D-06 -0.208D-06
Maxdispl :   0.0038   ||displ|| :   0.0071   Lambda : -0.257D-06
Largest |displ|/coords:  0.0038 (   2)  0.0029 (   7)  0.0023 (   1)
................................................................................
.............................. CYCLE  102 ......................................
................................................................................
   1    -45.6405160 -0.456405E+02  0.522E-03    9.52       0.0  T
   2    -45.6405160 -0.340534E-08  0.391E-03    9.52       5.3  T
   3    -45.6405160 -0.290663E-08  0.423E-04    9.52      49.3  T
   4    -45.6405160 -0.430965E-09  0.143E-04    9.52     145.4  T
speedup  1.25
cpu  time for SCC    0.00 s
wall time for SCC    0.00 s
speedup  1.05
cpu  time for grad    0.01 s
wall time for grad    0.01 s
 E :    -45.38305447  G :  0.000296    pred/act E change: -0.147D-06 -0.188D-06
Maxdispl :   0.0054   ||displ|| :   0.0098   Lambda : -0.247D-06
Largest |displ|/coords:  0.0054 (   2)  0.0033 (   7)  0.0031 (   1)
................................................................................
.............................. CYCLE  103 ......................................
................................................................................
   1    -45.6405054 -0.456405E+02  0.723E-03    9.52       0.0  T
   2    -45.6405054 -0.408009E-08  0.544E-03    9.52       3.8  T
   3    -45.6405054 -0.489966E-08  0.382E-04    9.52      54.5  T
   4    -45.6405054 -0.303203E-09  0.141E-04    9.52     147.5  T
speedup  0.91
cpu  time for SCC    0.00 s
wall time for SCC    0.00 s
speedup  1.05
cpu  time for grad    0.01 s
wall time for grad    0.01 s
 E :    -45.38305465  G :  0.000308    pred/act E change: -0.128D-06 -0.176D-06
Maxdispl :   0.0057   ||displ|| :   0.0095   Lambda : -0.215D-06
Largest |displ|/coords:  0.0057 (   2)  0.0031 (   7)  0.0028 (   5)
................................................................................
.............................. CYCLE  104 ......................................
................................................................................
   1    -45.6405145 -0.456405E+02  0.662E-03    9.52       0.0  T
   2    -45.6405145 -0.446239E-08  0.499E-03    9.52       4.2  T
   3    -45.6405145 -0.499425E-08  0.381E-04    9.52      54.8  T
   4    -45.6405145 -0.424798E-09  0.176E-04    9.52     118.2  T
speedup  0.91
cpu  time for SCC    0.00 s
wall time for SCC    0.00 s
speedup  0.95
cpu  time for grad    0.01 s
wall time for grad    0.01 s
 E :    -45.38305481  G :  0.000293    pred/act E change: -0.124D-06 -0.157D-06
Maxdispl :   0.0054   ||displ|| :   0.0098   Lambda : -0.216D-06
Largest |displ|/coords:  0.0054 (   2)  0.0031 (   7)  0.0029 (  18)
................................................................................
.............................. CYCLE  105 ......................................
................................................................................
   1    -45.6405221 -0.456405E+02  0.758E-03    9.52       0.0  T
   2    -45.6405221 -0.522212E-08  0.571E-03    9.52       3.7  T
   3    -45.6405221 -0.601499E-08  0.440E-04    9.52      47.4  T
   4    -45.6405221 -0.479993E-09  0.232E-04    9.52      89.7  T
speedup  1.21
cpu  time for SCC    0.00 s
wall time for SCC    0.00 s
speedup  1.05
cpu  time for grad    0.01 s
wall time for grad    0.01 s
 E :    -45.38305497  G :  0.000233    pred/act E change: -0.108D-06 -0.161D-06
Maxdispl :   0.0040   ||displ|| :   0.0082   Lambda : -0.208D-06
Largest |displ|/coords:  0.0040 (   2)  0.0031 (   7)  0.0023 (  18)
................................................................................
.............................. CYCLE  106 ......................................
................................................................................
   1    -45.6405483 -0.456405E+02  0.681E-03    9.52       0.0  T
   2    -45.6405483 -0.584717E-08  0.513E-03    9.52       4.1  T
   3    -45.6405483 -0.575388E-08  0.513E-04    9.52      40.7  T
   4    -45.6405483 -0.690569E-09  0.271E-04    9.52      77.0  T
speedup  0.97
cpu  time for SCC    0.00 s
wall time for SCC    0.00 s
speedup  1.04
cpu  time for grad    0.01 s
wall time for grad    0.01 s
 E :    -45.38305512  G :  0.000156    pred/act E change: -0.108D-06 -0.155D-06
Maxdispl :   0.0027   ||displ|| :   0.0078   Lambda : -0.180D-06
Largest |displ|/coords:  0.0027 (   7)  0.0026 (   4)  0.0025 (  18)
................................................................................
.............................. CYCLE  107 ......................................
................................................................................
   1    -45.6405487 -0.456405E+02  0.719E-03    9.52       0.0  T
   2    -45.6405487 -0.576679E-08  0.540E-03    9.52       3.9  T
   3    -45.6405487 -0.691512E-08  0.541E-04    9.52      38.5  T
   4    -45.6405487 -0.453525E-09  0.234E-04    9.52      89.1  T
speedup  0.91
cpu  time for SCC    0.00 s
wall time for SCC    0.00 s
speedup  0.94
cpu  time for grad    0.01 s
wall time for grad    0.01 s
 E :    -45.38305526  G :  0.000172    pred/act E change: -0.104D-06 -0.134D-06
Maxdispl :   0.0033   ||displ|| :   0.0070   Lambda : -0.176D-06
Largest |displ|/coords:  0.0033 (   4)  0.0026 (   7)  0.0019 (  15)
................................................................................
.............................. CYCLE  108 ......................................
................................................................................
   1    -45.6405615 -0.456406E+02  0.664E-03    9.52       0.0  T
   2    -45.6405615 -0.492824E-08  0.500E-03    9.52       4.2  T
   3    -45.6405616 -0.573544E-08  0.473E-04    9.52      44.1  T
   4    -45.6405616 -0.385405E-09  0.181E-04    9.52     115.0  T
speedup  1.25
cpu  time for SCC    0.00 s
wall time for SCC    0.00 s
speedup  1.06
cpu  time for grad    0.01 s
wall time for grad    0.01 s
 E :    -45.38305539  G :  0.000234    pred/act E change: -0.900D-07 -0.129D-06
Maxdispl :   0.0033   ||displ|| :   0.0075   Lambda : -0.145D-06
Largest |displ|/coords:  0.0033 (   4)  0.0021 (   7)  0.0020 (  17)
................................................................................
.............................. CYCLE  109 ......................................
................................................................................
   1    -45.6405402 -0.456405E+02  0.671E-03    9.52       0.0  T
   2    -45.6405402 -0.520404E-08  0.505E-03    9.52       4.1  T
   3    -45.6405402 -0.669021E-08  0.477E-04    9.52      43.8  T
   4    -45.6405402 -0.344812E-09  0.179E-04    9.52     116.6  T
speedup  0.88
cpu  time for SCC    0.00 s
wall time for SCC    0.00 s
speedup  1.04
cpu  time for grad    0.01 s
wall time for grad    0.01 s
 E :    -45.38305549  G :  0.000231    pred/act E change: -0.878D-07 -0.103D-06
Maxdispl :   0.0026   ||displ|| :   0.0054   Lambda : -0.103D-06
Largest |displ|/coords:  0.0026 (   2)  0.0022 (   9)  0.0021 (   1)
................................................................................
.............................. CYCLE  110 ......................................
................................................................................
   1    -45.6405448 -0.456405E+02  0.390E-03    9.52       0.0  T
   2    -45.6405448 -0.168464E-08  0.294E-03    9.52       7.1  T
   3    -45.6405448 -0.144866E-08  0.270E-04    9.52      77.2  T
   4    -45.6405448 -0.213419E-09  0.120E-04    9.52     174.1  T
speedup  0.94
cpu  time for SCC    0.00 s
wall time for SCC    0.00 s
speedup  0.96
cpu  time for grad    0.01 s
wall time for grad    0.01 s
 E :    -45.38305556  G :  0.000141    pred/act E change: -0.725D-07 -0.704D-07
Maxdispl :   0.0012   ||displ|| :   0.0027   Lambda : -0.501D-07
Largest |displ|/coords:  0.0012 (   9)  0.0011 (  10)  0.0009 (   2)

   *** GEOMETRY OPTIMIZATION CONVERGED AFTER 110 ITERATIONS ***

------------------------------------------------------------------------
 total energy gain (kcal):     -0.3482
------------------------------------------------------------------------
================
 final structure:
================
$coord
        2.34995699594172       -0.45519942363684       -1.11235395148116      S 
        0.16078392343646       -1.15982586042724       -2.61500365491549      O 
        2.51055280684717       -1.97037494086431        1.20408992580985      O 
        2.36866331905557        2.23119039950914       -0.51402701808416      O 
        4.73244204957747       -1.05949149390997       -2.74352379080057      O 
        6.11689693120549       -0.52873790649764       -1.64073889422427      H 
       -0.26012499474327        3.21739580744406        1.08074134748536      H 
       -1.99364096583655        3.26481938264542        1.74141838393958      O 
       -3.03359554681116        3.20914447515420        0.21873242465296      H 
       -2.20810672656206        0.51043504763250        2.81568300504624      H 
        6.90888120901994        0.78817560030108        1.35076467089910      O 
        5.96908715513405       -0.50035524696157        2.23713360913797      H 
        5.69438681136096        2.12400408021062        1.04926418137751      H 
       -4.26117031037278       -3.20274740713053       -1.13074097830281      O 
       -5.28020812779463       -1.86091886677178       -1.82103092246237      H 
       -2.61649581331939       -2.99149475541786       -1.94009423542393      H 
       -3.69366272429082        2.03993109124140       -2.94542740147158      O 
       -3.46862764370770        3.25215429618135       -4.27146026243866      H 
       -2.18981043977498        0.94961945040614       -2.99048742962869      H 
       -2.03684455249955       -1.49717986108349        3.03630424057234      N 
       -2.43982580974779       -2.09071605063803        4.81276006387317      H 
       -0.14045406978895       -1.90595567184451        2.51798535667657      H 
       -3.18908343853632       -2.36387212664449        1.66001132976514      H 
$end
 
 Bond Distances (Angstroems)
 ---------------------------
S1-O2=1.4537         S1-O3=1.4672         S1-O4=1.4564         S1-O5=1.5610         O2-S1=1.4537         O3-S1=1.4672         
O4-S1=1.4564         O5-S1=1.5610         O5-H6=0.9778         H6-O5=0.9778         H7-O8=0.9820         O8-H7=0.9820         
O8-H9=0.9762         H9-O8=0.9762         H10-N20=1.0726       O11-H12=0.9655       O11-H13=0.9686       H12-O11=0.9655       
H13-O11=0.9686       O14-H15=0.9635       O14-H16=0.9764       H15-O14=0.9635       H16-O14=0.9764       O17-H18=0.9582       
O17-H19=0.9832       H18-O17=0.9582       H19-O17=0.9832       N20-H10=1.0726       N20-H21=1.0138       N20-H22=1.0626       
N20-H23=1.0548       H21-N20=1.0138       H22-N20=1.0626       H23-N20=1.0548       
 N  H  Rav=1.0510 sigma=0.0223  Rmin=1.0138  Rmax=1.0726     4
 O  H  Rav=0.9724 sigma=0.0083  Rmin=0.9582  Rmax=0.9832     9
 S  O  Rav=1.4846 sigma=0.0444  Rmin=1.4537  Rmax=1.5610     4
 
 selected bond angles (degree)
 --------------------
O3-S1-O2=111.28                O4-S1-O2=112.00                O4-S1-O3=110.57                O5-S1-O2=106.77                
O5-S1-O3=107.65                O5-S1-O4=108.34                H6-O5-S1=102.49                H9-O8-H7=103.41                
 
 selected dihedral angles (degree)
 ---------------------------------
H6-O5-S1-O2=179.38            H6-O5-S1-O3=298.97            H6-O5-S1-O4= 58.57            
 
 CMA Distance (Angstroems)
 ---------------------------
R(CMA):  2.0140

========================================================================
 FINAL SINGLEPOINT CALCULATION ON OPTIMIZED GEOMETRY
========================================================================

 Ncao       : 59
 Nao        : 58
 Nshell     : 34
 Nel        : 72
 T(el)      :   300.0
 intcut     :    25.0
 scfconv/Eh :  0.100E-05
   qconv/e  :  0.100E-03
 intneglect :  0.100E-07
 broydamp   :      0.250
 iter      E             dE          RMSdq      gap      omega  full diag
   1    -45.6405448 -0.456405E+02  0.416E-05    9.52       0.0  T
   2    -45.6405448 -0.866862E-12  0.262E-05    9.52     795.6  T
   3    -45.6405448 -0.525802E-12  0.409E-06    9.52    5095.0  T
speedup  1.25
cpu  time for SCC    0.00 s
wall time for SCC    0.00 s

   *** convergence criteria satisfied after 3 iterations ***

          eigenvalues
 #    :          24         25         26         27         28         29         30         31
 occ. :        2.000      2.000      2.000      2.000      2.000      2.000      2.000      2.000
 eps  :       -14.134    -13.717    -13.311    -12.661    -12.545    -12.362    -12.349    -12.295
 #    :          32         33         34         35         36         37         38         39
 occ. :        2.000      2.000      2.000      2.000      2.000      0.000      0.000      0.000
 eps  :       -12.257    -12.197    -12.056    -11.988    -11.867     -2.344     -0.806     -0.121
 #    :          40         41         42         43         44         45         46         47
 occ. :        0.000      0.000      0.000      0.000      0.000      0.000      0.000      0.000
 eps  :         0.706      1.127      1.785      2.304      2.536      4.210      5.143      5.410


   #   Z            q   n(s)   n(p)   n(d)      C6AA      α(0)
   1  16 S      1.699  1.588  1.769  0.943    88.787    15.859
   2   8 O     -0.744  1.759  4.985  0.000    29.944     7.337
   3   8 O     -0.766  1.775  4.991  0.000    30.560     7.412
   4   8 O     -0.767  1.777  4.991  0.000    30.609     7.418
   5   8 O     -0.604  1.758  4.847  0.000    25.262     6.785
   6   1 H      0.371  0.629  0.000  0.000     0.535     1.144
   7   1 H      0.323  0.677  0.000  0.000     0.655     1.272
   8   8 O     -0.616  1.754  4.862  0.000    25.564     6.824
   9   1 H      0.323  0.677  0.000  0.000     0.655     1.272
  10   1 H      0.291  0.709  0.000  0.000     0.741     1.349
  11   8 O     -0.598  1.739  4.859  0.000    25.140     6.767
  12   1 H      0.304  0.696  0.000  0.000     0.709     1.322
  13   1 H      0.309  0.691  0.000  0.000     0.695     1.309
  14   8 O     -0.594  1.744  4.850  0.000    25.038     6.753
  15   1 H      0.312  0.688  0.000  0.000     0.686     1.301
  16   1 H      0.329  0.671  0.000  0.000     0.640     1.256
  17   8 O     -0.622  1.744  4.878  0.000    25.723     6.845
  18   1 H      0.286  0.714  0.000  0.000     0.764     1.373
  19   1 H      0.326  0.674  0.000  0.000     0.647     1.264
  20   7 N     -0.361  1.281  4.080  0.000    29.275     8.036
  21   1 H      0.229  0.771  0.000  0.000     0.969     1.542
  22   1 H      0.284  0.716  0.000  0.000     0.764     1.369
  23   1 H      0.285  0.715  0.000  0.000     0.759     1.365

 Mol. C6AA /au·bohr⁶  :       4508.465950
 Mol. C8AA /au·bohr⁸  :      99255.415494
 Mol. α(0) /au        :         97.174963

 
 Wiberg/Mayer (AO) data. WBOs > 0.1 written file <wbo>
 largest (>0.05) Wiberg bond orders for each atom
           total WBO             WBO to atom ...
     1  S   4.820    O    2 1.310    O    4 1.285    O    3 1.242    O    5 0.941
     2  O   1.727    S    1 1.310    O    4 0.107    O    3 0.105    O    5 0.063    H   19 0.059
     3  O   1.713    S    1 1.242    H   22 0.109    O    4 0.108    O    2 0.105    O    5 0.075
     4  O   1.694    S    1 1.285    O    3 0.108    O    2 0.107    O    5 0.079    H    7 0.055
     5  O   1.976    S    1 0.941    H    6 0.782    O    4 0.079    O    3 0.075    O    2 0.063
     6  H   0.862    O    5 0.782    O   11 0.063
     7  H   0.896    O    8 0.836    O    4 0.055
     8  O   1.941    H    9 0.849    H    7 0.836    H   10 0.135    N   20 0.066
     9  H   0.896    O    8 0.849
    10  H   0.915    N   20 0.776    O    8 0.135
    11  O   1.884    H   12 0.891    H   13 0.879    H    6 0.063
    12  H   0.908    O   11 0.891
    13  H   0.905    O   11 0.879
    14  O   1.924    H   15 0.894    H   16 0.850    H   23 0.100    N   20 0.052
    15  H   0.903    O   14 0.894
    16  H   0.892    O   14 0.850
    17  O   1.850    H   18 0.914    H   19 0.828
    18  H   0.918    O   17 0.914
    19  H   0.893    O   17 0.828    O    2 0.059
    20  N   3.515    H   21 0.944    H   23 0.814    H   22 0.802    H   10 0.776    O    8 0.066    O   14 0.052
    21  H   0.947    N   20 0.944
    22  H   0.920    N   20 0.802    O    3 0.109
    23  H   0.919    N   20 0.814    O   14 0.100
 MOs/occ written to file <molden.input>
 
molecular dipole:
                 x           y           z       tot (Debye)
 q only:       -1.657      -0.268       1.238
   full:       -1.212      -0.126       0.709       3.583
molecular quadrupole (traceless):
                xx          xy          yy          xz          yz          zz
 q only:       -4.362       0.505      -3.684      -2.532      -8.472       8.046
  q+dip:       -7.895      -0.968      -3.523      -1.686     -10.610      11.418
   full:       -7.174      -1.190      -3.945      -1.834     -10.948      11.119

SCC energy    :     -45.6405448
rep           :       0.2573170
ES            :       0.2333786
AES           :      -0.0712995
AXC           :      -0.0089467
disp          :      -0.0175901
XB            :       0.0000000
fix           :       0.0000000
total E       :     -45.3830556
atomizationE  :       4.4661181     2802.53
(atE without considering molecular charge,
 total energy contains solvation terms)
H-L gap (eV)  :          9.5228
optimized geometry written to: xtbopt.xyz


------------------------------------------------------------------------
 * finished run on 2019/09/16 at 12:16:45.420     
------------------------------------------------------------------------
 total:
 * wall-time:     0 d,  0 h,  0 min,  2.173 sec
 *  cpu-time:     0 d,  0 h,  0 min,  2.154 sec
 * ratio c/w:     0.991 speedup
 SCF:
 * wall-time:     0 d,  0 h,  0 min,  0.124 sec
 *  cpu-time:     0 d,  0 h,  0 min,  0.121 sec
 * ratio c/w:     0.980 speedup
 ANC optimizer:
 * wall-time:     0 d,  0 h,  0 min,  2.025 sec
 *  cpu-time:     0 d,  0 h,  0 min,  2.011 sec
 * ratio c/w:     0.993 speedup

