      -----------------------------------------------------------      
     |                   =====================                   |     
     |                           x T B                           |     
     |                   =====================                   |     
     |                         S. Grimme                         |     
     |          Mulliken Center for Theoretical Chemistry        |     
     |                    University of Bonn                     |     
     |                 Version 6.0.1 (SAW181210)                 |     
      -----------------------------------------------------------      

   This program is distributed in the hope that it will be useful,
   but WITHOUT ANY WARRANTY; without even the implied warranty of
   MERCHANTABILITY or FITNESS FOR A PARTICULAR PURPOSE.
   
   FOR NON-COMMERCIAL, ACADEMIA USE ONLY.
   
   Cite this work as:
   S. Grimme, C. Bannwarth, P. Shushkov, J. Comput. Theory Chem., 2017,
   13, 1989-2009.
   C. Bannwarth, S. Ehlert and S. Grimme., ChemRxiv, 2018, preprint.
   http://doi.org/10.26434/chemrxiv.7246238.v1
   
   for sTDA-xTB:
   S. Grimme and C. Bannwarth, J. Chem. Phys., 2016, 145, 054103.
   
   in the mass-spec context:
   V. Asgeirsson, C. Bauer and S. Grimme, Chem. Sci., 2017, 8, 4879.
   
   if GBSA is used:
   P. Shushkov, F. März and S. Grimme, unpublished.
   
   for ANC optimizer:
   S. Grimme, unpublished.
   Rational Function algorithm used in ANCopt:
   F. Eckert, P. Pulay, H.-J. Werner, J. Comput. Chem., 1997, 18, 1473.
   
   with help from (in alphabetical order)
   C. Bannwarth, F. Bohle, G. Brandenburg, E. Caldeweyher, M. Checinski,
   S. Dohm, S. Ehlert, S. Ehrlich, F. März, H. Neugebauer, J. Pisarek,
   P. Pracht, P. Shushkov, and S. Spicher.
   
 * started run on 2019/09/16 at 12:57:33.117     
========================================================================
 # omp threads = 1
========================================================================
number of atoms            : 26
number of electrons        : 80
charge                     : 0
spin                       : .0
first test random number   : .7555

########################################################################
# WARNING! Please study the warnings concerning your input carefully
#  - XTBPATH is not set, using XTBHOME instead
#  - the use of '-opt' is discouraged, please use '--opt' next time
#  - the use of '-chrg' is discouraged, please use '--chrg' next time
#  - the use of '-uhf' is discouraged, please use '--uhf' next time
########################################################################

           ------------------------------------------------- 
          |                 G F N 2 - x T B                 |
          | Geometry, Frequencies, Noncovalent interactions |
          |            JCTC 2018 parametrisation            |
           ------------------------------------------------- 
      method parameters     
 k(s)        :  1.8500
 k(p)        :  2.2300
 k(d)        :  2.2300
 k(f)        :  2.0000
 kEN (H0ij)  : -2.0000
 D4 a1       :  0.5200
 D4 a2       :  5.0000
 D4 s6       :  1.0000
 D4 s8       :  2.7000
 D4 s9       :  5.0000
 alphaj      :  2.0000


            Z     q(EN)     CN     RAES       Cart. coordinates
     1  S   6.0    0.64    4.27    4.17     1.34984    -1.91280    -4.88326
     2  O   6.0   -0.31    1.20    1.80     0.86477     0.57777    -6.10386
     3  O   6.0   -0.31    1.19    1.80     3.48102    -1.66518    -3.05984
     4  O   6.0   -0.31    1.22    1.80    -0.96298    -2.75386    -3.51519
     5  O   6.0   -0.25    2.08    1.84     2.00742    -3.78398    -6.82718
     6  H   1.0    0.15    1.21    1.47     3.49752    -3.24284    -7.70914
     7  O   6.0   -0.39    1.66    1.81    -1.76034     1.66499     2.30896
     8  H   1.0    0.17    0.95    1.42    -1.54504     3.47063     2.72977
     9  O   6.0   -0.30    2.04    1.83    -1.30282     0.16413     6.71143
    10  H   1.0    0.18    1.14    1.45    -1.52103     0.76673     5.00736
    11  H   1.0    0.15    0.97    1.43    -2.93614     0.33847     7.49660
    12  O   6.0   -0.29    2.01    1.83     3.58731    -0.98468     6.66989
    13  H   1.0    0.16    1.04    1.43     1.83745    -0.55317     6.92756
    14  H   1.0    0.15    0.97    1.43     4.40797    -0.63589     8.25718
    15  O   6.0   -0.29    2.05    1.83    -2.66094     3.98696    -5.04475
    16  H   1.0    0.15    0.97    1.43    -2.50285     5.54248    -5.97747
    17  H   1.0    0.18    1.05    1.44    -1.29223     2.93619    -5.62541
    18  O   6.0   -0.22    2.92    2.59    -3.86997     0.71586    -1.57810
    19  H   1.0    0.14    1.05    1.44    -3.71925     2.14449    -2.77231
    20  H   1.0    0.15    1.06    1.44    -3.11669    -0.85100    -2.26186
    21  H   1.0    0.17    1.22    1.47    -3.18870     1.14016     0.10931
    22  N   5.0   -0.14    3.96    2.77     1.86914    -1.41310     1.82806
    23  H   1.0    0.12    1.06    1.44     2.86962    -1.18996     0.17468
    24  H   1.0    0.09    0.99    1.43     1.05337    -3.17888     1.85910
    25  H   1.0    0.10    1.04    1.43     3.07339    -1.22839     3.34467
    26  H   1.0    0.12    1.16    1.45     0.48016    -0.05515     1.93381

  Z AO/shell   Hii/eV     exponent
  1     Wed Apr 25 08:07:45 CEST 2018   EN: 2.200 GM2: 0.406  GM3: 0.0800  RAES: 1.40
     1s    -10.707211    1.230000
  7     Wed Apr 25 08:07:45 CEST 2018   EN: 3.040 GM2: 0.461  GM3:-0.0640  RAES: 1.90
     2s    -16.686243    2.339881
     2p    -12.523956    2.014332
  8     Wed Apr 25 08:07:45 CEST 2018   EN: 3.440 GM2: 0.452  GM3:-0.0517  RAES: 1.80
     2s    -20.229985    2.439742
     2p    -15.503117    2.137023
 16     Tue Apr 24 11:44:34 CEST 2018   EN: 2.580 GM2: 0.340  GM3:-0.0502  RAES: 3.10
     3s    -20.029654    1.981333
     3p    -11.377694    2.025643
     3d     -0.420282    1.702555
 no old-style atom pair restraining (fixing) potential

molecular fragmentation (1/2 indicates fragments):
11111122222222222222222222
# atoms in fragment 1/2:     6    20
 fragment masses (1/2) :       97.07      108.11
CMA distance (Bohr)    :   7.481
constraining FC (au)   :  0.0500
           ------------------------------------------------- 
          |        Self-Consistent Charge Iterations        |
           ------------------------------------------------- 

 Ncao       : 65
 Nao        : 64
 Nshell     : 38
 Nel        : 80
 T(el)      :   300.0
 intcut     :    25.0
 scfconv/Eh :  0.100E-05
   qconv/e  :  0.100E-03
 intneglect :  0.100E-07
 broydamp   :      0.250
 iter      E             dE          RMSdq      gap      omega  full diag
   1    -50.5939520 -0.505940E+02  0.703E+00   10.46       0.0  T
   2    -50.6444714 -0.505194E-01  0.506E+00    9.81       1.0  T
   3    -50.6834386 -0.389672E-01  0.132E+00    7.88       1.0  T
   4    -50.6883528 -0.491423E-02  0.568E-01    8.30       1.0  T
   5    -50.6890377 -0.684849E-03  0.293E-01    8.33       1.0  T
   6    -50.6894189 -0.381229E-03  0.132E-01    8.39       1.0  T
   7    -50.6895135 -0.945585E-04  0.455E-02    8.38       1.0  T
   8    -50.6895222 -0.873554E-05  0.300E-02    8.37       1.0  T
   9    -50.6895276 -0.544329E-05  0.104E-02    8.38       1.9  T
  10    -50.6895283 -0.648782E-06  0.225E-03    8.39       8.7  T
  11    -50.6895283 -0.164450E-07  0.113E-03    8.39      17.3  T
  12    -50.6895283 -0.580908E-08  0.357E-04    8.39      55.0  T
  13    -50.6895283 -0.567141E-09  0.127E-04    8.39     154.9  T
speedup  0.99
cpu  time for SCC    0.01 s
wall time for SCC    0.02 s

   *** convergence criteria satisfied after 13 iterations ***

          eigenvalues
 #    :          28         29         30         31         32         33         34         35
 occ. :        2.000      2.000      2.000      2.000      2.000      2.000      2.000      2.000
 eps  :       -12.781    -12.754    -11.973    -11.916    -11.839    -11.521    -11.440    -11.373
 #    :          36         37         38         39         40         41         42         43
 occ. :        2.000      2.000      2.000      2.000      2.000      0.000      0.000      0.000
 eps  :       -11.005    -10.941    -10.711    -10.353    -10.099     -1.710     -0.439     -0.016
 #    :          44         45         46         47         48         49         50         51
 occ. :        0.000      0.000      0.000      0.000      0.000      0.000      0.000      0.000
 eps  :         0.446      1.064      1.564      2.279      2.746      3.891      4.008      4.724


   #   Z            q   n(s)   n(p)   n(d)      C6AA      α(0)
   1  16 S      1.574  1.586  1.855  0.985    91.692    16.116
   2   8 O     -0.758  1.776  4.981  0.000    30.331     7.384
   3   8 O     -0.753  1.774  4.979  0.000    30.205     7.369
   4   8 O     -0.734  1.762  4.972  0.000    29.656     7.301
   5   8 O     -0.541  1.717  4.823  0.000    23.779     6.583
   6   1 H      0.359  0.641  0.000  0.000     0.558     1.169
   7   8 O     -0.852  1.832  5.020  0.000    33.152     7.722
   8   1 H      0.213  0.787  0.000  0.000     1.053     1.612
   9   8 O     -0.662  1.752  4.910  0.000    26.708     6.975
  10   1 H      0.334  0.666  0.000  0.000     0.625     1.241
  11   1 H      0.266  0.734  0.000  0.000     0.831     1.432
  12   8 O     -0.617  1.737  4.880  0.000    25.601     6.829
  13   1 H      0.336  0.664  0.000  0.000     0.621     1.238
  14   1 H      0.277  0.723  0.000  0.000     0.795     1.400
  15   8 O     -0.619  1.727  4.891  0.000    25.642     6.834
  16   1 H      0.288  0.712  0.000  0.000     0.757     1.367
  17   1 H      0.338  0.662  0.000  0.000     0.618     1.235
  18   8 O     -0.457  1.658  4.799  0.000    21.933     6.325
  19   1 H      0.399  0.601  0.000  0.000     0.487     1.096
  20   1 H      0.397  0.603  0.000  0.000     0.491     1.101
  21   1 H      0.403  0.597  0.000  0.000     0.473     1.076
  22   7 N     -0.317  1.260  4.057  0.000    28.139     7.879
  23   1 H      0.282  0.718  0.000  0.000     0.770     1.375
  24   1 H      0.244  0.756  0.000  0.000     0.907     1.492
  25   1 H      0.286  0.714  0.000  0.000     0.758     1.364
  26   1 H      0.314  0.686  0.000  0.000     0.671     1.282

 Mol. C6AA /au·bohr⁶  :       5477.772804
 Mol. C8AA /au·bohr⁸  :     118845.371909
 Mol. α(0) /au        :        106.796436

 
 Wiberg/Mayer (AO) data. WBOs > 0.1 written file <wbo>
 largest (>0.05) Wiberg bond orders for each atom
           total WBO             WBO to atom ...
     1  S   4.940    O    4 1.312    O    2 1.300    O    3 1.296    O    5 0.997
     2  O   1.675    S    1 1.300    O    4 0.114    O    3 0.113    O    5 0.074    H   17 0.053
     3  O   1.685    S    1 1.296    O    2 0.113    O    4 0.113    O    5 0.074    H   23 0.059
     4  O   1.713    S    1 1.312    O    2 0.114    O    3 0.113    H   20 0.080    O    5 0.052
     5  O   2.049    S    1 0.997    H    6 0.847    O    3 0.074    O    2 0.074    O    4 0.052
     6  H   0.870    O    5 0.847
     7  O   1.612    H    8 0.946    H   21 0.203    H   26 0.151    H   10 0.121    N   22 0.066    O   18 0.062    O    9 0.051
     8  H   0.955    O    7 0.946
     9  O   1.797    H   11 0.917    H   10 0.762    O    7 0.051
    10  H   0.889    O    9 0.762    O    7 0.121
    11  H   0.929    O    9 0.917
    12  O   1.834    H   14 0.912    H   13 0.838
    13  H   0.887    O   12 0.838
    14  H   0.923    O   12 0.912
    15  O   1.850    H   16 0.902    H   17 0.829    H   19 0.067
    16  H   0.917    O   15 0.902
    17  H   0.886    O   15 0.829    O    2 0.053
    18  O   2.283    H   19 0.765    H   20 0.754    H   21 0.628    O    7 0.062
    19  H   0.841    O   18 0.765    O   15 0.067
    20  H   0.843    O   18 0.754    O    4 0.080
    21  H   0.838    O   18 0.628    O    7 0.203
    22  N   3.543    H   24 0.937    H   25 0.873    H   23 0.855    H   26 0.745    O    7 0.066
    23  H   0.921    N   22 0.855    O    3 0.059
    24  H   0.940    N   22 0.937
    25  H   0.918    N   22 0.873
    26  H   0.901    N   22 0.745    O    7 0.151
 MOs/occ written to file <molden.input>
 
molecular dipole:
                 x           y           z       tot (Debye)
 q only:       -0.153       0.254       0.838
   full:        0.173       0.349       0.366       1.357
molecular quadrupole (traceless):
                xx          xy          yy          xz          yz          zz
 q only:        1.074      -4.738      -0.478       2.436      -4.331      -0.596
  q+dip:       -5.920      -5.878      -1.596      -3.042      -0.596       7.516
   full:       -6.034      -6.190      -1.758      -3.356      -0.423       7.792

SCC energy    :     -50.6895283
rep           :       0.2953224
ES            :       0.3113110
AES           :      -0.0715201
AXC           :      -0.0088136
disp          :      -0.0164327
XB            :       0.0000000
fix           :       0.0000000
total E       :     -50.3940808
atomizationE  :       4.9243849     3090.10
(atE without considering molecular charge,
 total energy contains solvation terms)
H-L gap (eV)  :          8.3884
           ------------------------------------------------- 
          |                 ===============                 |
          |                   A N C O P T                   |
          |                 ===============                 |
          |          Approximate Normal Coordinate          |
          |           Rational Function Optimizer           |
           ------------------------------------------------- 
dumping coords to <xtbopt.coord> and <xtbopt.log>
 optlevel               2
 Maxcycle             520
 Maxmicro              25
 Econv         1.000000000000000E-007
 Gconv         2.000000000000000E-004
 Maxdispl       1.00000000000000     
 Hlow          5.000000000000000E-003
 S6             20.0000000000000     
 Nvar               72

generating ANC from model Hessian ...
 Shifting diagonal of input Hessian by   5.234499192158148E-003
 Lowest  eigenvalues of input Hessian
    0.005000    0.005132   -0.000000   -0.000000   -0.000000    0.000000
    0.000000    0.000000    0.005405    0.005493    0.005673    0.006077
    0.006354    0.006546    0.006915    0.007227    0.007930    0.008769
 Highest eigenvalues
    1.453693    1.563193    1.590349    3.140072    3.215234    3.314603
 
cpu  time for ANC gen    0.01 s
wall time for ANC gen    0.01 s
................................................................................
.............................. CYCLE    1 ......................................
................................................................................
   1    -50.6895283 -0.506895E+02  0.736E-05    8.39       0.0  T
   2    -50.6895283 -0.108926E-10  0.565E-05    8.39     347.3  T
   3    -50.6895283 -0.120366E-10  0.240E-05    8.39     818.3  T
speedup  1.07
cpu  time for SCC    0.00 s
wall time for SCC    0.00 s
speedup  1.01
cpu  time for grad    0.01 s
wall time for grad    0.01 s
 E :    -50.39408072  G :  0.199898    pred/act E change:  0.000D+00  0.382D-07
Maxdispl :   0.1230   ||displ|| :   0.3106   Lambda : -0.277D-01
Largest |displ|/coords:  0.1230 (  29)  0.1103 (  24)  0.0943 (  21)
................................................................................
.............................. CYCLE    2 ......................................
................................................................................
   1    -50.6970403 -0.506970E+02  0.267E-01    8.47       0.0  T
   2    -50.6972313 -0.190962E-03  0.201E-01    8.53       1.0  T
   3    -50.6973115 -0.802147E-04  0.829E-02    8.62       1.0  T
   4    -50.6973218 -0.103576E-04  0.186E-02    8.62       1.1  T
   5    -50.6973228 -0.935300E-06  0.561E-03    8.61       3.5  T
   6    -50.6973228 -0.468965E-07  0.276E-03    8.61       7.1  T
speedup  0.93
cpu  time for SCC    0.00 s
wall time for SCC    0.01 s
speedup  1.03
cpu  time for grad    0.01 s
wall time for grad    0.01 s
 E :    -50.41556854  G :  0.122049    pred/act E change:  0.000D+00 -0.215D-01
Maxdispl :   0.1561   ||displ|| :   0.3132   Lambda : -0.130D-01
Largest |displ|/coords:  0.1561 (  29)  0.1060 (  24)  0.0974 (  21)
................................................................................
.............................. CYCLE    3 ......................................
................................................................................
   1    -50.7016228 -0.507016E+02  0.241E-01    8.64       0.0  T
   2    -50.7018332 -0.210361E-03  0.178E-01    8.71       1.0  T
   3    -50.7019171 -0.838996E-04  0.796E-02    8.80       1.0  T
   4    -50.7019243 -0.720581E-05  0.172E-02    8.80       1.1  T
   5    -50.7019251 -0.796039E-06  0.479E-03    8.79       4.1  T
   6    -50.7019251 -0.363308E-07  0.252E-03    8.79       7.8  T
speedup  0.93
cpu  time for SCC    0.01 s
wall time for SCC    0.01 s
speedup  1.01
cpu  time for grad    0.01 s
wall time for grad    0.01 s
 E :    -50.42607636  G :  0.078632    pred/act E change: -0.152D-01 -0.105D-01
Maxdispl :   0.1294   ||displ|| :   0.3072   Lambda : -0.692D-02
Largest |displ|/coords:  0.1294 (  15)  0.0906 (  13)  0.0888 (  29)
................................................................................
.............................. CYCLE    4 ......................................
................................................................................
   1    -50.7038505 -0.507039E+02  0.236E-01    8.78       0.0  T
   2    -50.7040248 -0.174261E-03  0.174E-01    8.85       1.0  T
   3    -50.7040928 -0.679797E-04  0.724E-02    8.94       1.0  T
   4    -50.7041007 -0.796092E-05  0.163E-02    8.93       1.2  T
   5    -50.7041016 -0.811131E-06  0.472E-03    8.93       4.2  T
   6    -50.7041016 -0.310581E-07  0.231E-03    8.93       8.5  T
speedup  0.91
cpu  time for SCC    0.00 s
wall time for SCC    0.01 s
speedup  1.02
cpu  time for grad    0.01 s
wall time for grad    0.01 s
 E :    -50.43166725  G :  0.052914    pred/act E change: -0.716D-02 -0.559D-02
Maxdispl :   0.1369   ||displ|| :   0.2945   Lambda : -0.412D-02
Largest |displ|/coords:  0.1369 (  10)  0.1178 (  13)  0.0762 (   5)
................................................................................
.............................. CYCLE    5 ......................................
................................................................................
   1    -50.7073965 -0.507074E+02  0.248E-01    8.92       0.0  T
   2    -50.7075083 -0.111816E-03  0.185E-01    8.98       1.0  T
   3    -50.7075500 -0.416761E-04  0.590E-02    9.10       1.0  T
   4    -50.7075609 -0.109090E-04  0.140E-02    9.09       1.4  T
   5    -50.7075615 -0.684304E-06  0.423E-03    9.08       4.6  T
   6    -50.7075616 -0.189302E-07  0.208E-03    9.08       9.4  T
speedup  0.91
cpu  time for SCC    0.00 s
wall time for SCC    0.01 s
speedup  1.02
cpu  time for grad    0.01 s
wall time for grad    0.01 s
 E :    -50.43499905  G :  0.038875    pred/act E change: -0.379D-02 -0.333D-02
Maxdispl :   0.2930   ||displ|| :   0.6407   Lambda : -0.941D-02
Largest |displ|/coords:  0.2930 (  11)  0.2022 (   8)  0.1995 (  15)
................................................................................
.............................. CYCLE    6 ......................................
................................................................................
   1    -50.7095397 -0.507095E+02  0.660E-01    8.98       0.0  T
   2    -50.7104947 -0.955072E-03  0.488E-01    9.11       1.0  T
   3    -50.7108795 -0.384771E-03  0.167E-01    9.19       1.0  T
   4    -50.7109526 -0.730739E-04  0.405E-02    9.18       1.0  T
   5    -50.7109581 -0.552357E-05  0.129E-02    9.18       1.5  T
   6    -50.7109582 -0.143015E-06  0.650E-03    9.18       3.0  T
   7    -50.7109583 -0.611555E-07  0.206E-03    9.18       9.5  T
   8    -50.7109583 -0.703054E-08  0.621E-04    9.18      31.6  T
speedup  1.10
cpu  time for SCC    0.01 s
wall time for SCC    0.01 s
speedup  1.03
cpu  time for grad    0.01 s
wall time for grad    0.01 s
 E :    -50.43859954  G :  0.063871    pred/act E change: -0.224D-02 -0.360D-02
Maxdispl :   0.2324   ||displ|| :   0.5119   Lambda : -0.116D-01
Largest |displ|/coords:  0.2324 (   8)  0.1832 (   6)  0.1623 (  13)
................................................................................
.............................. CYCLE    7 ......................................
................................................................................
   1    -50.7195859 -0.507196E+02  0.710E-01    9.15       0.0  T
   2    -50.7198270 -0.241110E-03  0.539E-01    9.14       1.0  T
   3    -50.7199895 -0.162468E-03  0.851E-02    9.13       1.0  T
   4    -50.7200277 -0.381985E-04  0.190E-02    9.14       1.0  T
   5    -50.7200284 -0.706906E-06  0.919E-03    9.14       2.1  T
   6    -50.7200284 -0.286924E-07  0.407E-03    9.14       4.8  T
   7    -50.7200285 -0.284102E-07  0.931E-04    9.14      21.1  T
speedup  0.95
cpu  time for SCC    0.01 s
wall time for SCC    0.01 s
speedup  0.95
cpu  time for grad    0.01 s
wall time for grad    0.01 s
 E :    -50.44110193  G :  0.060783    pred/act E change: -0.664D-02 -0.250D-02
Maxdispl :   0.1836   ||displ|| :   0.3397   Lambda : -0.654D-02
Largest |displ|/coords:  0.1836 (  11)  0.0898 (  19)  0.0890 (  10)
................................................................................
.............................. CYCLE    8 ......................................
................................................................................
   1    -50.7333660 -0.507334E+02  0.336E-01    9.05       0.0  T
   2    -50.7334841 -0.118169E-03  0.251E-01    9.06       1.0  T
   3    -50.7335555 -0.713277E-04  0.614E-02    9.08       1.0  T
   4    -50.7335688 -0.132813E-04  0.182E-02    9.07       1.1  T
   5    -50.7335694 -0.599173E-06  0.645E-03    9.07       3.0  T
   6    -50.7335694 -0.256167E-07  0.294E-03    9.07       6.7  T
   7    -50.7335694 -0.178625E-07  0.785E-04    9.07      25.0  T
speedup  0.92
cpu  time for SCC    0.01 s
wall time for SCC    0.01 s
speedup  1.01
cpu  time for grad    0.01 s
wall time for grad    0.01 s
 E :    -50.44246759  G :  0.070113    pred/act E change: -0.735D-02 -0.137D-02
Maxdispl :   0.1467   ||displ|| :   0.3725   Lambda : -0.782D-02
Largest |displ|/coords:  0.1467 (   2)  0.1219 (  13)  0.1198 (  18)
................................................................................
.............................. CYCLE    9 ......................................
................................................................................
   1    -50.7250006 -0.507250E+02  0.346E-01    9.10       0.0  T
   2    -50.7251486 -0.148002E-03  0.255E-01    9.09       1.0  T
   3    -50.7252399 -0.913333E-04  0.662E-02    9.09       1.0  T
   4    -50.7252568 -0.169169E-04  0.141E-02    9.09       1.4  T
   5    -50.7252570 -0.166720E-06  0.663E-03    9.09       3.0  T
   6    -50.7252571 -0.103169E-06  0.217E-03    9.09       9.1  T
   7    -50.7252571 -0.108032E-07  0.612E-04    9.09      32.1  T
speedup  1.09
cpu  time for SCC    0.01 s
wall time for SCC    0.01 s
speedup  1.02
cpu  time for grad    0.01 s
wall time for grad    0.01 s
 E :    -50.44489284  G :  0.059068    pred/act E change: -0.364D-02 -0.243D-02
Maxdispl :   0.1250   ||displ|| :   0.2794   Lambda : -0.535D-02
Largest |displ|/coords:  0.1250 (  11)  0.0847 (  10)  0.0829 (  20)
................................................................................
.............................. CYCLE   10 ......................................
................................................................................
   1    -50.7327302 -0.507327E+02  0.316E-01    9.12       0.0  T
   2    -50.7328086 -0.783691E-04  0.237E-01    9.12       1.0  T
   3    -50.7328617 -0.531248E-04  0.499E-02    9.11       1.0  T
   4    -50.7328716 -0.990056E-05  0.109E-02    9.12       1.8  T
   5    -50.7328718 -0.231263E-06  0.525E-03    9.12       3.7  T
   6    -50.7328719 -0.153947E-07  0.214E-03    9.12       9.2  T
speedup  1.09
cpu  time for SCC    0.01 s
wall time for SCC    0.01 s
speedup  1.01
cpu  time for grad    0.01 s
wall time for grad    0.01 s
 E :    -50.44667519  G :  0.045382    pred/act E change: -0.445D-02 -0.178D-02
Maxdispl :   0.2318   ||displ|| :   0.3445   Lambda : -0.370D-02
Largest |displ|/coords:  0.2318 (   9)  0.1125 (   3)  0.1032 (  13)
................................................................................
.............................. CYCLE   11 ......................................
................................................................................
   1    -50.7472523 -0.507473E+02  0.482E-01    9.12       0.0  T
   2    -50.7473655 -0.113224E-03  0.365E-01    9.12       1.0  T
   3    -50.7474423 -0.768047E-04  0.593E-02    9.11       1.0  T
   4    -50.7474591 -0.167721E-04  0.113E-02    9.12       1.7  T
   5    -50.7474593 -0.187469E-06  0.611E-03    9.12       3.2  T
   6    -50.7474593 -0.254599E-07  0.246E-03    9.12       8.0  T
   7    -50.7474593 -0.101529E-07  0.589E-04    9.12      33.3  T
speedup  0.91
cpu  time for SCC    0.01 s
wall time for SCC    0.01 s
speedup  1.01
cpu  time for grad    0.01 s
wall time for grad    0.01 s
 E :    -50.44645575  G :  0.063846    pred/act E change: -0.288D-02  0.219D-03
Maxdispl :   0.1690   ||displ|| :   0.3449   Lambda : -0.740D-02
Largest |displ|/coords:  0.1690 (   9)  0.1422 (  10)  0.1208 (   6)
................................................................................
.............................. CYCLE   12 ......................................
................................................................................
   1    -50.7285655 -0.507286E+02  0.528E-01    9.21       0.0  T
   2    -50.7286722 -0.106630E-03  0.399E-01    9.20       1.0  T
   3    -50.7287493 -0.771278E-04  0.564E-02    9.19       1.0  T
   4    -50.7287637 -0.144150E-04  0.131E-02    9.20       1.5  T
   5    -50.7287640 -0.244372E-06  0.577E-03    9.20       3.4  T
   6    -50.7287640 -0.448704E-07  0.290E-03    9.20       6.8  T
speedup  1.02
cpu  time for SCC    0.01 s
wall time for SCC    0.01 s
speedup  0.97
cpu  time for grad    0.01 s
wall time for grad    0.01 s
 E :    -50.44854640  G :  0.043075    pred/act E change: -0.207D-02 -0.209D-02
Maxdispl :   0.1126   ||displ|| :   0.2444   Lambda : -0.334D-02
Largest |displ|/coords:  0.1126 (  13)  0.0949 (   5)  0.0860 (   2)
................................................................................
.............................. CYCLE   13 ......................................
................................................................................
   1    -50.7417076 -0.507417E+02  0.254E-01    9.18       0.0  T
   2    -50.7417579 -0.503190E-04  0.190E-01    9.18       1.0  T
   3    -50.7417873 -0.293470E-04  0.406E-02    9.18       1.0  T
   4    -50.7417941 -0.681024E-05  0.902E-03    9.18       2.2  T
   5    -50.7417943 -0.162945E-06  0.376E-03    9.18       5.2  T
   6    -50.7417943 -0.704714E-08  0.187E-03    9.18      10.5  T
speedup  0.91
cpu  time for SCC    0.00 s
wall time for SCC    0.01 s
speedup  0.94
cpu  time for grad    0.01 s
wall time for grad    0.01 s
 E :    -50.45031273  G :  0.024211    pred/act E change: -0.414D-02 -0.177D-02
Maxdispl :   0.1006   ||displ|| :   0.2732   Lambda : -0.170D-02
Largest |displ|/coords:  0.1006 (   5)  0.0898 (   4)  0.0866 (   3)
................................................................................
.............................. CYCLE   14 ......................................
................................................................................
   1    -50.7422959 -0.507423E+02  0.231E-01    9.30       0.0  T
   2    -50.7423594 -0.635279E-04  0.174E-01    9.29       1.0  T
   3    -50.7423842 -0.248511E-04  0.472E-02    9.26       1.0  T
   4    -50.7423923 -0.810119E-05  0.148E-02    9.27       1.3  T
   5    -50.7423928 -0.463449E-06  0.397E-03    9.27       4.9  T
   6    -50.7423928 -0.212242E-07  0.192E-03    9.27      10.2  T
speedup  0.91
cpu  time for SCC    0.01 s
wall time for SCC    0.01 s
speedup  0.99
cpu  time for grad    0.01 s
wall time for grad    0.01 s
 E :    -50.45045097  G :  0.029676    pred/act E change: -0.177D-02 -0.138D-03
Maxdispl :   0.1433   ||displ|| :   0.3183   Lambda : -0.235D-02
Largest |displ|/coords:  0.1433 (  11)  0.1276 (  10)  0.0946 (  13)
................................................................................
.............................. CYCLE   15 ......................................
................................................................................
   1    -50.7460836 -0.507461E+02  0.260E-01    9.25       0.0  T
   2    -50.7461404 -0.568245E-04  0.195E-01    9.26       1.0  T
   3    -50.7461762 -0.358017E-04  0.442E-02    9.27       1.0  T
   4    -50.7461835 -0.726651E-05  0.113E-02    9.26       1.7  T
   5    -50.7461837 -0.216111E-06  0.454E-03    9.26       4.3  T
   6    -50.7461837 -0.158235E-07  0.225E-03    9.26       8.7  T
speedup  0.89
cpu  time for SCC    0.00 s
wall time for SCC    0.01 s
speedup  1.00
cpu  time for grad    0.01 s
wall time for grad    0.01 s
 E :    -50.45168913  G :  0.018622    pred/act E change: -0.912D-03 -0.124D-02
Maxdispl :   0.1286   ||displ|| :   0.2726   Lambda : -0.120D-02
Largest |displ|/coords:  0.1286 (   7)  0.1256 (   2)  0.0764 (  14)
................................................................................
.............................. CYCLE   16 ......................................
................................................................................
   1    -50.7427687 -0.507428E+02  0.253E-01    9.32       0.0  T
   2    -50.7427885 -0.197669E-04  0.191E-01    9.33       1.0  T
   3    -50.7428023 -0.138896E-04  0.253E-02    9.33       1.0  T
   4    -50.7428052 -0.288643E-05  0.828E-03    9.33       2.4  T
   5    -50.7428054 -0.125917E-06  0.318E-03    9.33       6.2  T
   6    -50.7428054 -0.859447E-08  0.168E-03    9.33      11.7  T
   7    -50.7428054 -0.619465E-08  0.350E-04    9.33      56.1  T
speedup  1.08
cpu  time for SCC    0.01 s
wall time for SCC    0.01 s
speedup  1.00
cpu  time for grad    0.01 s
wall time for grad    0.01 s
 E :    -50.45170505  G :  0.031604    pred/act E change: -0.129D-02 -0.159D-04
Maxdispl :   0.0966   ||displ|| :   0.1891   Lambda : -0.123D-02
Largest |displ|/coords:  0.0966 (   4)  0.0927 (   3)  0.0822 (   7)
................................................................................
.............................. CYCLE   17 ......................................
................................................................................
   1    -50.7467590 -0.507468E+02  0.193E-01    9.31       0.0  T
   2    -50.7467734 -0.143339E-04  0.145E-01    9.31       1.0  T
   3    -50.7467835 -0.101812E-04  0.211E-02    9.31       1.0  T
   4    -50.7467856 -0.201983E-05  0.584E-03    9.31       3.4  T
   5    -50.7467856 -0.429800E-07  0.260E-03    9.31       7.5  T
speedup  0.83
cpu  time for SCC    0.00 s
wall time for SCC    0.00 s
speedup  0.98
cpu  time for grad    0.01 s
wall time for grad    0.01 s
 E :    -50.45223019  G :  0.014016    pred/act E change: -0.644D-03 -0.525D-03
Maxdispl :   0.1166   ||displ|| :   0.2576   Lambda : -0.106D-02
Largest |displ|/coords:  0.1166 (   4)  0.0936 (  15)  0.0904 (  14)
................................................................................
.............................. CYCLE   18 ......................................
................................................................................
   1    -50.7419208 -0.507419E+02  0.306E-01    9.32       0.0  T
   2    -50.7419556 -0.348120E-04  0.232E-01    9.31       1.0  T
   3    -50.7419802 -0.245771E-04  0.324E-02    9.30       1.0  T
   4    -50.7419853 -0.513356E-05  0.100E-02    9.31       2.0  T
   5    -50.7419855 -0.206967E-06  0.344E-03    9.31       5.7  T
   6    -50.7419855 -0.604668E-08  0.187E-03    9.31      10.5  T
   7    -50.7419856 -0.569471E-08  0.468E-04    9.31      41.9  T
speedup  0.95
cpu  time for SCC    0.01 s
wall time for SCC    0.01 s
speedup  0.94
cpu  time for grad    0.01 s
wall time for grad    0.01 s
 E :    -50.45189304  G :  0.034977    pred/act E change: -0.638D-03  0.337D-03
Maxdispl :   0.1044   ||displ|| :   0.1914   Lambda : -0.179D-02
Largest |displ|/coords:  0.1044 (   7)  0.0956 (   5)  0.0731 (   1)
................................................................................
.............................. CYCLE   19 ......................................
................................................................................
   1    -50.7478376 -0.507478E+02  0.233E-01    9.33       0.0  T
   2    -50.7478635 -0.259809E-04  0.175E-01    9.33       1.0  T
   3    -50.7478817 -0.181464E-04  0.286E-02    9.33       1.0  T
   4    -50.7478853 -0.357891E-05  0.596E-03    9.33       3.3  T
   5    -50.7478853 -0.309082E-07  0.327E-03    9.33       6.0  T
speedup  1.06
cpu  time for SCC    0.00 s
wall time for SCC    0.00 s
speedup  0.98
cpu  time for grad    0.01 s
wall time for grad    0.01 s
 E :    -50.45259550  G :  0.011722    pred/act E change: -0.565D-03 -0.702D-03
Maxdispl :   0.1128   ||displ|| :   0.2790   Lambda : -0.110D-02
Largest |displ|/coords:  0.1128 (   2)  0.1014 (   1)  0.1009 (   6)
................................................................................
.............................. CYCLE   20 ......................................
................................................................................
   1    -50.7433110 -0.507433E+02  0.191E-01    9.28       0.0  T
   2    -50.7433276 -0.166100E-04  0.144E-01    9.29       1.0  T
   3    -50.7433354 -0.784131E-05  0.251E-02    9.30       1.0  T
   4    -50.7433383 -0.288095E-05  0.862E-03    9.30       2.3  T
   5    -50.7433384 -0.130058E-06  0.254E-03    9.30       7.7  T
   6    -50.7433385 -0.630661E-08  0.129E-03    9.30      15.2  T
speedup  0.89
cpu  time for SCC    0.01 s
wall time for SCC    0.01 s
speedup  0.99
cpu  time for grad    0.01 s
wall time for grad    0.01 s
 E :    -50.45253370  G :  0.021890    pred/act E change: -0.926D-03  0.618D-04
Maxdispl :   0.0679   ||displ|| :   0.1514   Lambda : -0.112D-02
Largest |displ|/coords:  0.0679 (   5)  0.0638 (   4)  0.0544 (  14)
................................................................................
.............................. CYCLE   21 ......................................
................................................................................
   1    -50.7461597 -0.507462E+02  0.146E-01    9.32       0.0  T
   2    -50.7461688 -0.907595E-05  0.111E-01    9.31       1.0  T
   3    -50.7461748 -0.596661E-05  0.176E-02    9.31       1.1  T
   4    -50.7461761 -0.133251E-05  0.538E-03    9.31       3.6  T
   5    -50.7461762 -0.581222E-07  0.181E-03    9.31      10.8  T
speedup  1.04
cpu  time for SCC    0.00 s
wall time for SCC    0.00 s
speedup  1.03
cpu  time for grad    0.01 s
wall time for grad    0.01 s
 E :    -50.45313505  G :  0.012021    pred/act E change: -0.592D-03 -0.601D-03
Maxdispl :   0.1178   ||displ|| :   0.3045   Lambda : -0.975D-03
Largest |displ|/coords:  0.1178 (   7)  0.1117 (   4)  0.1110 (  15)
................................................................................
.............................. CYCLE   22 ......................................
................................................................................
   1    -50.7450121 -0.507450E+02  0.219E-01    9.38       0.0  T
   2    -50.7450276 -0.155546E-04  0.165E-01    9.37       1.0  T
   3    -50.7450377 -0.100304E-04  0.248E-02    9.36       1.0  T
   4    -50.7450400 -0.233845E-05  0.908E-03    9.37       2.2  T
   5    -50.7450401 -0.129518E-06  0.281E-03    9.37       7.0  T
   6    -50.7450402 -0.794394E-08  0.157E-03    9.37      12.5  T
speedup  1.11
cpu  time for SCC    0.01 s
wall time for SCC    0.01 s
speedup  1.01
cpu  time for grad    0.01 s
wall time for grad    0.01 s
 E :    -50.45297638  G :  0.023968    pred/act E change: -0.573D-03  0.159D-03
Maxdispl :   0.0693   ||displ|| :   0.1880   Lambda : -0.121D-02
Largest |displ|/coords:  0.0693 (   3)  0.0690 (   2)  0.0576 (   5)
................................................................................
.............................. CYCLE   23 ......................................
................................................................................
   1    -50.7454060 -0.507454E+02  0.149E-01    9.31       0.0  T
   2    -50.7454133 -0.728749E-05  0.112E-01    9.31       1.0  T
   3    -50.7454185 -0.511776E-05  0.156E-02    9.32       1.3  T
   4    -50.7454195 -0.107797E-05  0.574E-03    9.32       3.4  T
   5    -50.7454196 -0.530090E-07  0.184E-03    9.32      10.7  T
speedup  1.04
cpu  time for SCC    0.00 s
wall time for SCC    0.00 s
speedup  1.07
cpu  time for grad    0.01 s
wall time for grad    0.01 s
 E :    -50.45373478  G :  0.009643    pred/act E change: -0.533D-03 -0.758D-03
Maxdispl :   0.1464   ||displ|| :   0.3028   Lambda : -0.493D-03
Largest |displ|/coords:  0.1464 (   4)  0.1347 (   2)  0.1123 (   6)
................................................................................
.............................. CYCLE   24 ......................................
................................................................................
   1    -50.7448467 -0.507448E+02  0.164E-01    9.31       0.0  T
   2    -50.7448526 -0.597876E-05  0.124E-01    9.31       1.0  T
   3    -50.7448582 -0.553956E-05  0.121E-02    9.31       1.6  T
   4    -50.7448589 -0.762772E-06  0.478E-03    9.31       4.1  T
   5    -50.7448590 -0.234391E-07  0.159E-03    9.31      12.4  T
   6    -50.7448590 -0.325268E-08  0.827E-04    9.31      23.7  T
speedup  1.05
cpu  time for SCC    0.01 s
wall time for SCC    0.01 s
speedup  0.98
cpu  time for grad    0.01 s
wall time for grad    0.01 s
 E :    -50.45411878  G :  0.010951    pred/act E change: -0.626D-03 -0.384D-03
Maxdispl :   0.2123   ||displ|| :   0.4979   Lambda : -0.717D-03
Largest |displ|/coords:  0.2123 (   6)  0.2118 (   2)  0.1604 (   4)
................................................................................
.............................. CYCLE   25 ......................................
................................................................................
   1    -50.7442792 -0.507443E+02  0.243E-01    9.27       0.0  T
   2    -50.7442888 -0.954019E-05  0.184E-01    9.28       1.0  T
   3    -50.7442980 -0.922028E-05  0.170E-02    9.28       1.2  T
   4    -50.7442990 -0.101233E-05  0.637E-03    9.28       3.1  T
   5    -50.7442990 -0.364397E-07  0.200E-03    9.28       9.8  T
   6    -50.7442990 -0.567309E-08  0.108E-03    9.28      18.1  T
speedup  0.93
cpu  time for SCC    0.00 s
wall time for SCC    0.01 s
speedup  1.01
cpu  time for grad    0.01 s
wall time for grad    0.01 s
 E :    -50.45456742  G :  0.013771    pred/act E change: -0.269D-03 -0.449D-03
Maxdispl :   0.2813   ||displ|| :   0.5029   Lambda : -0.825D-03
Largest |displ|/coords:  0.2813 (   4)  0.2298 (   2)  0.1227 (   6)

generating ANC from model Hessian ...
 Shifting diagonal of input Hessian by   5.206386975307343E-003
 Lowest  eigenvalues of input Hessian
    0.005000   -0.000000   -0.000000   -0.000000    0.000000    0.000000
    0.000000    0.005216    0.005531    0.005649    0.005839    0.006410
    0.006671    0.007288    0.008091    0.009241    0.009982    0.010914
 Highest eigenvalues
    1.397916    1.410013    1.444004    2.490346    3.466994    3.628383
 
cpu  time for ANC gen    0.02 s
wall time for ANC gen    0.02 s
................................................................................
.............................. CYCLE   26 ......................................
................................................................................
   1    -50.7437060 -0.507437E+02  0.281E-01    9.28       0.0  T
   2    -50.7437251 -0.190417E-04  0.213E-01    9.29       1.0  T
   3    -50.7437474 -0.223408E-04  0.236E-02    9.29       1.0  T
   4    -50.7437490 -0.163019E-05  0.944E-03    9.29       2.1  T
   5    -50.7437491 -0.102681E-06  0.336E-03    9.29       5.8  T
   6    -50.7437492 -0.181253E-07  0.169E-03    9.29      11.6  T
   7    -50.7437492 -0.466713E-08  0.387E-04    9.29      50.7  T
   8    -50.7437492 -0.523436E-09  0.115E-04    9.29     171.3  T
speedup  1.11
cpu  time for SCC    0.01 s
wall time for SCC    0.01 s
speedup  1.04
cpu  time for grad    0.02 s
wall time for grad    0.02 s
 E :    -50.45483334  G :  0.020779    pred/act E change:  0.000D+00 -0.266D-03
Maxdispl :   0.0696   ||displ|| :   0.1772   Lambda : -0.736D-03
Largest |displ|/coords:  0.0696 (   6)  0.0623 (   9)  0.0613 (   3)
................................................................................
.............................. CYCLE   27 ......................................
................................................................................
   1    -50.7466426 -0.507466E+02  0.120E-01    9.32       0.0  T
   2    -50.7466460 -0.341487E-05  0.900E-02    9.31       1.0  T
   3    -50.7466486 -0.257170E-05  0.111E-02    9.31       1.8  T
   4    -50.7466491 -0.459844E-06  0.304E-03    9.31       6.5  T
   5    -50.7466491 -0.109348E-07  0.116E-03    9.31      17.0  T
speedup  0.83
cpu  time for SCC    0.00 s
wall time for SCC    0.00 s
speedup  0.98
cpu  time for grad    0.01 s
wall time for grad    0.01 s
 E :    -50.45536280  G :  0.009257    pred/act E change:  0.000D+00 -0.529D-03
Maxdispl :   0.1135   ||displ|| :   0.2802   Lambda : -0.560D-03
Largest |displ|/coords:  0.1135 (   2)  0.1094 (   3)  0.1094 (   4)
................................................................................
.............................. CYCLE   28 ......................................
................................................................................
   1    -50.7487340 -0.507487E+02  0.178E-01    9.34       0.0  T
   2    -50.7487399 -0.598265E-05  0.134E-01    9.34       1.0  T
   3    -50.7487458 -0.581673E-05  0.150E-02    9.34       1.3  T
   4    -50.7487464 -0.662910E-06  0.546E-03    9.34       3.6  T
   5    -50.7487465 -0.374224E-07  0.192E-03    9.34      10.2  T
   6    -50.7487465 -0.495820E-08  0.103E-03    9.34      19.0  T
speedup  1.09
cpu  time for SCC    0.01 s
wall time for SCC    0.01 s
speedup  1.00
cpu  time for grad    0.01 s
wall time for grad    0.01 s
 E :    -50.45570342  G :  0.008136    pred/act E change: -0.380D-03 -0.341D-03
Maxdispl :   0.1113   ||displ|| :   0.2554   Lambda : -0.270D-03
Largest |displ|/coords:  0.1113 (   3)  0.1080 (   2)  0.1044 (   5)
................................................................................
.............................. CYCLE   29 ......................................
................................................................................
   1    -50.7482987 -0.507483E+02  0.155E-01    9.35       0.0  T
   2    -50.7483028 -0.404866E-05  0.117E-01    9.35       1.0  T
   3    -50.7483068 -0.402754E-05  0.125E-02    9.34       1.6  T
   4    -50.7483073 -0.440879E-06  0.474E-03    9.34       4.1  T
   5    -50.7483073 -0.272655E-07  0.155E-03    9.34      12.6  T
   6    -50.7483073 -0.334610E-08  0.889E-04    9.34      22.1  T
speedup  1.07
cpu  time for SCC    0.01 s
wall time for SCC    0.01 s
speedup  0.99
cpu  time for grad    0.01 s
wall time for grad    0.01 s
 E :    -50.45590179  G :  0.010602    pred/act E change: -0.302D-03 -0.198D-03
Maxdispl :   0.1865   ||displ|| :   0.3810   Lambda : -0.356D-03
Largest |displ|/coords:  0.1865 (   5)  0.1757 (   2)  0.1236 (   3)
................................................................................
.............................. CYCLE   30 ......................................
................................................................................
   1    -50.7478731 -0.507479E+02  0.180E-01    9.34       0.0  T
   2    -50.7478798 -0.668019E-05  0.135E-01    9.34       1.0  T
   3    -50.7478866 -0.681377E-05  0.163E-02    9.33       1.2  T
   4    -50.7478873 -0.719907E-06  0.611E-03    9.34       3.2  T
   5    -50.7478874 -0.519455E-07  0.204E-03    9.34       9.6  T
   6    -50.7478874 -0.688129E-08  0.115E-03    9.34      17.0  T
speedup  0.93
cpu  time for SCC    0.00 s
wall time for SCC    0.01 s
speedup  1.01
cpu  time for grad    0.01 s
wall time for grad    0.01 s
 E :    -50.45615500  G :  0.008425    pred/act E change: -0.144D-03 -0.253D-03
Maxdispl :   0.2099   ||displ|| :   0.3453   Lambda : -0.267D-03
Largest |displ|/coords:  0.2099 (   5)  0.1586 (   2)  0.1051 (   4)
................................................................................
.............................. CYCLE   31 ......................................
................................................................................
   1    -50.7483552 -0.507484E+02  0.142E-01    9.33       0.0  T
   2    -50.7483598 -0.463198E-05  0.107E-01    9.33       1.0  T
   3    -50.7483645 -0.462971E-05  0.132E-02    9.33       1.5  T
   4    -50.7483650 -0.507406E-06  0.480E-03    9.33       4.1  T
   5    -50.7483650 -0.334455E-07  0.158E-03    9.33      12.4  T
   6    -50.7483650 -0.440375E-08  0.900E-04    9.33      21.8  T
speedup  1.11
cpu  time for SCC    0.01 s
wall time for SCC    0.01 s
speedup  1.00
cpu  time for grad    0.01 s
wall time for grad    0.01 s
 E :    -50.45634257  G :  0.006687    pred/act E change: -0.204D-03 -0.188D-03
Maxdispl :   0.2614   ||displ|| :   0.4249   Lambda : -0.284D-03
Largest |displ|/coords:  0.2614 (   5)  0.1905 (   2)  0.1543 (   4)
................................................................................
.............................. CYCLE   32 ......................................
................................................................................
   1    -50.7473250 -0.507473E+02  0.194E-01    9.33       0.0  T
   2    -50.7473325 -0.747825E-05  0.147E-01    9.33       1.0  T
   3    -50.7473414 -0.891769E-05  0.158E-02    9.33       1.2  T
   4    -50.7473420 -0.627124E-06  0.603E-03    9.33       3.3  T
   5    -50.7473421 -0.460348E-07  0.212E-03    9.33       9.2  T
   6    -50.7473421 -0.726968E-08  0.109E-03    9.33      18.0  T
speedup  0.91
cpu  time for SCC    0.00 s
wall time for SCC    0.01 s
speedup  0.99
cpu  time for grad    0.01 s
wall time for grad    0.01 s
 E :    -50.45649938  G :  0.011298    pred/act E change: -0.149D-03 -0.157D-03
Maxdispl :   0.2046   ||displ|| :   0.3290   Lambda : -0.429D-03
Largest |displ|/coords:  0.2046 (   5)  0.1374 (   4)  0.1038 (   6)
................................................................................
.............................. CYCLE   33 ......................................
................................................................................
   1    -50.7519793 -0.507520E+02  0.140E-01    9.39       0.0  T
   2    -50.7519822 -0.290724E-05  0.105E-01    9.39       1.0  T
   3    -50.7519848 -0.265819E-05  0.114E-02    9.39       1.7  T
   4    -50.7519851 -0.302012E-06  0.309E-03    9.39       6.3  T
   5    -50.7519851 -0.159406E-07  0.138E-03    9.39      14.2  T
   6    -50.7519851 -0.228768E-08  0.722E-04    9.39      27.1  T
speedup  0.91
cpu  time for SCC    0.00 s
wall time for SCC    0.01 s
speedup  0.99
cpu  time for grad    0.01 s
wall time for grad    0.01 s
 E :    -50.45670806  G :  0.010961    pred/act E change: -0.168D-03 -0.209D-03
Maxdispl :   0.0946   ||displ|| :   0.1820   Lambda : -0.239D-03
Largest |displ|/coords:  0.0946 (   5)  0.0608 (   2)  0.0509 (   4)
................................................................................
.............................. CYCLE   34 ......................................
................................................................................
   1    -50.7518286 -0.507518E+02  0.999E-02    9.40       0.0  T
   2    -50.7518308 -0.212250E-05  0.749E-02    9.40       1.0  T
   3    -50.7518327 -0.189348E-05  0.911E-03    9.40       2.2  T
   4    -50.7518329 -0.246521E-06  0.216E-03    9.40       9.1  T
   5    -50.7518329 -0.524066E-08  0.112E-03    9.40      17.6  T
speedup  0.85
cpu  time for SCC    0.00 s
wall time for SCC    0.00 s
speedup  0.98
cpu  time for grad    0.01 s
wall time for grad    0.01 s
 E :    -50.45688495  G :  0.006538    pred/act E change: -0.238D-03 -0.177D-03
Maxdispl :   0.2548   ||displ|| :   0.4019   Lambda : -0.436D-03
Largest |displ|/coords:  0.2548 (   5)  0.1573 (   3)  0.0927 (  11)
................................................................................
.............................. CYCLE   35 ......................................
................................................................................
   1    -50.7509531 -0.507510E+02  0.215E-01    9.40       0.0  T
   2    -50.7509590 -0.585777E-05  0.161E-01    9.40       1.0  T
   3    -50.7509655 -0.655395E-05  0.156E-02    9.40       1.3  T
   4    -50.7509661 -0.537863E-06  0.500E-03    9.40       3.9  T
   5    -50.7509661 -0.366106E-07  0.232E-03    9.40       8.5  T
   6    -50.7509661 -0.780829E-08  0.108E-03    9.40      18.1  T
speedup  1.07
cpu  time for SCC    0.01 s
wall time for SCC    0.01 s
speedup  0.98
cpu  time for grad    0.01 s
wall time for grad    0.01 s
 E :    -50.45712983  G :  0.009570    pred/act E change: -0.123D-03 -0.245D-03
Maxdispl :   0.1852   ||displ|| :   0.3312   Lambda : -0.304D-03
Largest |displ|/coords:  0.1852 (   5)  0.1585 (   3)  0.0882 (   4)
................................................................................
.............................. CYCLE   36 ......................................
................................................................................
   1    -50.7504860 -0.507505E+02  0.163E-01    9.37       0.0  T
   2    -50.7504886 -0.258404E-05  0.122E-01    9.37       1.0  T
   3    -50.7504914 -0.280718E-05  0.111E-02    9.37       1.8  T
   4    -50.7504916 -0.217592E-06  0.333E-03    9.37       5.9  T
   5    -50.7504916 -0.160030E-07  0.147E-03    9.37      13.3  T
   6    -50.7504916 -0.261757E-08  0.780E-04    9.37      25.1  T
speedup  0.93
cpu  time for SCC    0.00 s
wall time for SCC    0.01 s
speedup  1.00
cpu  time for grad    0.01 s
wall time for grad    0.01 s
 E :    -50.45736004  G :  0.007545    pred/act E change: -0.254D-03 -0.230D-03
Maxdispl :   0.2379   ||displ|| :   0.4506   Lambda : -0.420D-03
Largest |displ|/coords:  0.2379 (   3)  0.2022 (   5)  0.1404 (  11)
................................................................................
.............................. CYCLE   37 ......................................
................................................................................
   1    -50.7534370 -0.507534E+02  0.208E-01    9.32       0.0  T
   2    -50.7534434 -0.642899E-05  0.156E-01    9.32       1.0  T
   3    -50.7534499 -0.647124E-05  0.164E-02    9.33       1.2  T
   4    -50.7534505 -0.638867E-06  0.538E-03    9.33       3.6  T
   5    -50.7534505 -0.407685E-07  0.222E-03    9.33       8.8  T
   6    -50.7534505 -0.513629E-08  0.124E-03    9.33      15.9  T
speedup  1.07
cpu  time for SCC    0.01 s
wall time for SCC    0.01 s
speedup  1.06
cpu  time for grad    0.01 s
wall time for grad    0.01 s
 E :    -50.45752891  G :  0.011917    pred/act E change: -0.169D-03 -0.169D-03
Maxdispl :   0.3806   ||displ|| :   0.5704   Lambda : -0.509D-03
Largest |displ|/coords:  0.3806 (   5)  0.1869 (   3)  0.1773 (   4)
................................................................................
.............................. CYCLE   38 ......................................
................................................................................
   1    -50.7469416 -0.507469E+02  0.266E-01    9.26       0.0  T
   2    -50.7469601 -0.184993E-04  0.199E-01    9.26       1.0  T
   3    -50.7469732 -0.131129E-04  0.256E-02    9.26       1.0  T
   4    -50.7469759 -0.266217E-05  0.717E-03    9.26       2.7  T
   5    -50.7469760 -0.103091E-06  0.321E-03    9.26       6.1  T
   6    -50.7469760 -0.116185E-07  0.174E-03    9.26      11.3  T
   7    -50.7469760 -0.674309E-08  0.347E-04    9.26      56.5  T
speedup  0.95
cpu  time for SCC    0.01 s
wall time for SCC    0.01 s
speedup  1.01
cpu  time for grad    0.01 s
wall time for grad    0.01 s
 E :    -50.45749232  G :  0.020925    pred/act E change: -0.252D-03  0.366D-04
Maxdispl :   0.1331   ||displ|| :   0.2437   Lambda : -0.746D-03
Largest |displ|/coords:  0.1331 (   5)  0.0960 (  10)  0.0902 (   2)
................................................................................
.............................. CYCLE   39 ......................................
................................................................................
   1    -50.7516163 -0.507516E+02  0.148E-01    9.34       0.0  T
   2    -50.7516259 -0.962085E-05  0.111E-01    9.34       1.0  T
   3    -50.7516342 -0.834378E-05  0.189E-02    9.33       1.0  T
   4    -50.7516354 -0.117195E-05  0.503E-03    9.33       3.9  T
   5    -50.7516355 -0.430658E-07  0.237E-03    9.33       8.3  T
speedup  1.06
cpu  time for SCC    0.00 s
wall time for SCC    0.00 s
speedup  1.06
cpu  time for grad    0.01 s
wall time for grad    0.01 s
 E :    -50.45777909  G :  0.011365    pred/act E change: -0.337D-03 -0.287D-03
Maxdispl :   0.0671   ||displ|| :   0.1359   Lambda : -0.377D-03
Largest |displ|/coords:  0.0671 (   9)  0.0502 (  11)  0.0440 (   5)
................................................................................
.............................. CYCLE   40 ......................................
................................................................................
   1    -50.7541727 -0.507542E+02  0.110E-01    9.35       0.0  T
   2    -50.7541789 -0.617417E-05  0.834E-02    9.35       1.0  T
   3    -50.7541839 -0.506231E-05  0.134E-02    9.35       1.5  T
   4    -50.7541847 -0.812142E-06  0.340E-03    9.35       5.8  T
   5    -50.7541848 -0.161674E-07  0.171E-03    9.35      11.5  T
   6    -50.7541848 -0.241138E-08  0.728E-04    9.35      26.9  T
speedup  1.09
cpu  time for SCC    0.01 s
wall time for SCC    0.01 s
speedup  1.05
cpu  time for grad    0.01 s
wall time for grad    0.01 s
 E :    -50.45784321  G :  0.008878    pred/act E change: -0.395D-03 -0.641D-04
Maxdispl :   0.1864   ||displ|| :   0.2914   Lambda : -0.300D-03
Largest |displ|/coords:  0.1864 (   5)  0.0986 (   4)  0.0873 (   2)
................................................................................
.............................. CYCLE   41 ......................................
................................................................................
   1    -50.7531837 -0.507532E+02  0.122E-01    9.30       0.0  T
   2    -50.7531869 -0.319570E-05  0.909E-02    9.30       1.0  T
   3    -50.7531898 -0.296933E-05  0.123E-02    9.30       1.6  T
   4    -50.7531902 -0.320793E-06  0.428E-03    9.30       4.6  T
   5    -50.7531902 -0.274726E-07  0.136E-03    9.30      14.4  T
   6    -50.7531902 -0.219494E-08  0.772E-04    9.30      25.4  T
speedup  1.09
cpu  time for SCC    0.01 s
wall time for SCC    0.01 s
speedup  0.99
cpu  time for grad    0.01 s
wall time for grad    0.01 s
 E :    -50.45799882  G :  0.010671    pred/act E change: -0.192D-03 -0.156D-03
Maxdispl :   0.2291   ||displ|| :   0.4004   Lambda : -0.509D-03
Largest |displ|/coords:  0.2291 (   3)  0.1977 (   5)  0.1291 (   1)
................................................................................
.............................. CYCLE   42 ......................................
................................................................................
   1    -50.7493536 -0.507494E+02  0.197E-01    9.30       0.0  T
   2    -50.7493589 -0.529746E-05  0.147E-01    9.30       1.0  T
   3    -50.7493628 -0.388449E-05  0.130E-02    9.30       1.5  T
   4    -50.7493636 -0.760008E-06  0.410E-03    9.30       4.8  T
   5    -50.7493636 -0.250254E-07  0.191E-03    9.30      10.3  T
   6    -50.7493636 -0.307472E-08  0.932E-04    9.30      21.0  T
speedup  0.93
cpu  time for SCC    0.01 s
wall time for SCC    0.01 s
speedup  1.00
cpu  time for grad    0.01 s
wall time for grad    0.01 s
 E :    -50.45800826  G :  0.019783    pred/act E change: -0.163D-03 -0.944D-05
Maxdispl :   0.0471   ||displ|| :   0.1090   Lambda : -0.598D-03
Largest |displ|/coords:  0.0471 (   3)  0.0369 (   2)  0.0366 (   7)
................................................................................
.............................. CYCLE   43 ......................................
................................................................................
   1    -50.7524828 -0.507525E+02  0.720E-02    9.34       0.0  T
   2    -50.7524848 -0.191192E-05  0.536E-02    9.34       1.0  T
   3    -50.7524862 -0.148947E-05  0.905E-03    9.33       2.2  T
   4    -50.7524865 -0.217957E-06  0.246E-03    9.33       8.0  T
   5    -50.7524865 -0.854324E-08  0.993E-04    9.33      19.7  T
speedup  0.83
cpu  time for SCC    0.00 s
wall time for SCC    0.00 s
speedup  0.96
cpu  time for grad    0.01 s
wall time for grad    0.01 s
 E :    -50.45834158  G :  0.008929    pred/act E change: -0.295D-03 -0.333D-03
Maxdispl :   0.1932   ||displ|| :   0.3967   Lambda : -0.405D-03
Largest |displ|/coords:  0.1932 (   3)  0.1591 (  11)  0.1539 (   5)
................................................................................
.............................. CYCLE   44 ......................................
................................................................................
   1    -50.7528401 -0.507528E+02  0.173E-01    9.30       0.0  T
   2    -50.7528458 -0.562558E-05  0.129E-01    9.30       1.0  T
   3    -50.7528500 -0.428324E-05  0.161E-02    9.30       1.2  T
   4    -50.7528507 -0.708872E-06  0.470E-03    9.30       4.2  T
   5    -50.7528508 -0.426347E-07  0.177E-03    9.30      11.1  T
   6    -50.7528508 -0.314541E-08  0.103E-03    9.30      19.0  T
speedup  0.93
cpu  time for SCC    0.01 s
wall time for SCC    0.01 s
speedup  0.98
cpu  time for grad    0.01 s
wall time for grad    0.01 s
 E :    -50.45855754  G :  0.010257    pred/act E change: -0.302D-03 -0.216D-03
Maxdispl :   0.1906   ||displ|| :   0.4048   Lambda : -0.445D-03
Largest |displ|/coords:  0.1906 (   5)  0.1411 (  11)  0.1387 (   3)
................................................................................
.............................. CYCLE   45 ......................................
................................................................................
   1    -50.7530922 -0.507531E+02  0.182E-01    9.32       0.0  T
   2    -50.7530953 -0.307092E-05  0.136E-01    9.32       1.0  T
   3    -50.7530988 -0.350916E-05  0.131E-02    9.31       1.5  T
   4    -50.7530990 -0.217146E-06  0.429E-03    9.32       4.6  T
   5    -50.7530990 -0.268822E-07  0.152E-03    9.31      12.9  T
   6    -50.7530990 -0.255574E-08  0.921E-04    9.31      21.3  T
speedup  0.93
cpu  time for SCC    0.00 s
wall time for SCC    0.01 s
speedup  0.99
cpu  time for grad    0.01 s
wall time for grad    0.01 s
 E :    -50.45893380  G :  0.008489    pred/act E change: -0.234D-03 -0.376D-03
Maxdispl :   0.2864   ||displ|| :   0.6034   Lambda : -0.651D-03
Largest |displ|/coords:  0.2864 (   5)  0.2361 (   3)  0.2048 (   1)
................................................................................
.............................. CYCLE   46 ......................................
................................................................................
   1    -50.7516723 -0.507517E+02  0.270E-01    9.37       0.0  T
   2    -50.7516787 -0.631485E-05  0.202E-01    9.36       1.0  T
   3    -50.7516861 -0.745800E-05  0.176E-02    9.36       1.1  T
   4    -50.7516865 -0.426122E-06  0.584E-03    9.36       3.4  T
   5    -50.7516866 -0.499514E-07  0.236E-03    9.36       8.3  T
   6    -50.7516866 -0.738235E-08  0.129E-03    9.36      15.2  T
speedup  0.93
cpu  time for SCC    0.00 s
wall time for SCC    0.01 s
speedup  1.00
cpu  time for grad    0.01 s
wall time for grad    0.01 s
 E :    -50.45932481  G :  0.010180    pred/act E change: -0.259D-03 -0.391D-03
Maxdispl :   0.1889   ||displ|| :   0.3172   Lambda : -0.276D-03
Largest |displ|/coords:  0.1889 (   5)  0.1154 (   4)  0.0988 (  11)
................................................................................
.............................. CYCLE   47 ......................................
................................................................................
   1    -50.7515942 -0.507516E+02  0.134E-01    9.33       0.0  T
   2    -50.7515971 -0.285972E-05  0.997E-02    9.33       1.0  T
   3    -50.7515993 -0.227359E-05  0.134E-02    9.33       1.5  T
   4    -50.7515997 -0.362768E-06  0.373E-03    9.33       5.3  T
   5    -50.7515997 -0.225788E-07  0.124E-03    9.33      15.8  T
   6    -50.7515997 -0.162674E-08  0.738E-04    9.33      26.6  T
speedup  1.09
cpu  time for SCC    0.01 s
wall time for SCC    0.01 s
speedup  1.04
cpu  time for grad    0.01 s
wall time for grad    0.01 s
 E :    -50.45950113  G :  0.011662    pred/act E change: -0.444D-03 -0.176D-03
Maxdispl :   0.1784   ||displ|| :   0.4159   Lambda : -0.797D-03
Largest |displ|/coords:  0.1784 (   5)  0.1733 (   4)  0.1249 (   9)
................................................................................
.............................. CYCLE   48 ......................................
................................................................................
   1    -50.7644941 -0.507645E+02  0.175E-01    9.46       0.0  T
   2    -50.7645128 -0.187456E-04  0.130E-01    9.46       1.0  T
   3    -50.7645256 -0.127977E-04  0.251E-02    9.47       1.0  T
   4    -50.7645278 -0.212302E-05  0.716E-03    9.46       2.7  T
   5    -50.7645279 -0.102377E-06  0.264E-03    9.46       7.4  T
   6    -50.7645279 -0.593507E-08  0.147E-03    9.46      13.4  T
speedup  0.91
cpu  time for SCC    0.01 s
wall time for SCC    0.01 s
speedup  0.98
cpu  time for grad    0.01 s
wall time for grad    0.01 s
 E :    -50.45890992  G :  0.032477    pred/act E change: -0.152D-03  0.591D-03
Maxdispl :   0.1207   ||displ|| :   0.2083   Lambda : -0.169D-02
Largest |displ|/coords:  0.1207 (   3)  0.0706 (  11)  0.0588 (  33)
................................................................................
.............................. CYCLE   49 ......................................
................................................................................
   1    -50.7550079 -0.507550E+02  0.124E-01    9.37       0.0  T
   2    -50.7550162 -0.829092E-05  0.927E-02    9.37       1.0  T
   3    -50.7550220 -0.585483E-05  0.159E-02    9.37       1.2  T
   4    -50.7550230 -0.978058E-06  0.511E-03    9.37       3.8  T
   5    -50.7550230 -0.442119E-07  0.198E-03    9.37       9.9  T
speedup  1.09
cpu  time for SCC    0.00 s
wall time for SCC    0.00 s
speedup  0.96
cpu  time for grad    0.01 s
wall time for grad    0.01 s
 E :    -50.45982204  G :  0.006834    pred/act E change: -0.468D-03 -0.912D-03
Maxdispl :   0.0869   ||displ|| :   0.2056   Lambda : -0.130D-03
Largest |displ|/coords:  0.0869 (   5)  0.0866 (  11)  0.0739 (   4)
................................................................................
.............................. CYCLE   50 ......................................
................................................................................
   1    -50.7535241 -0.507535E+02  0.886E-02    9.33       0.0  T
   2    -50.7535251 -0.100434E-05  0.661E-02    9.33       1.0  T
   3    -50.7535260 -0.966057E-06  0.755E-03    9.34       2.6  T
   4    -50.7535261 -0.978560E-07  0.178E-03    9.33      11.0  T
   5    -50.7535261 -0.563409E-08  0.748E-04    9.33      26.2  T
speedup  0.87
cpu  time for SCC    0.00 s
wall time for SCC    0.00 s
speedup  0.98
cpu  time for grad    0.01 s
wall time for grad    0.01 s
 E :    -50.45991054  G :  0.007997    pred/act E change: -0.881D-03 -0.885D-04
Maxdispl :   0.0903   ||displ|| :   0.2089   Lambda : -0.291D-03
Largest |displ|/coords:  0.0903 (   4)  0.0646 (  11)  0.0621 (   1)
................................................................................
.............................. CYCLE   51 ......................................
................................................................................
   1    -50.7537888 -0.507538E+02  0.120E-01    9.41       0.0  T
   2    -50.7537935 -0.466156E-05  0.908E-02    9.41       1.0  T
   3    -50.7537961 -0.258630E-05  0.144E-02    9.41       1.4  T
   4    -50.7537968 -0.718555E-06  0.432E-03    9.41       4.5  T
   5    -50.7537968 -0.397860E-07  0.116E-03    9.41      16.9  T
   6    -50.7537968 -0.604729E-09  0.666E-04    9.41      29.4  T
speedup  0.91
cpu  time for SCC    0.00 s
wall time for SCC    0.01 s
speedup  0.98
cpu  time for grad    0.01 s
wall time for grad    0.01 s
 E :    -50.45997289  G :  0.012456    pred/act E change: -0.678D-04 -0.623D-04
Maxdispl :   0.0899   ||displ|| :   0.1868   Lambda : -0.256D-03
Largest |displ|/coords:  0.0899 (   4)  0.0824 (   5)  0.0674 (  11)
................................................................................
.............................. CYCLE   52 ......................................
................................................................................
   1    -50.7530927 -0.507531E+02  0.949E-02    9.34       0.0  T
   2    -50.7530959 -0.323232E-05  0.705E-02    9.34       1.0  T
   3    -50.7530984 -0.252785E-05  0.115E-02    9.34       1.7  T
   4    -50.7530988 -0.363945E-06  0.313E-03    9.34       6.3  T
   5    -50.7530988 -0.175525E-07  0.121E-03    9.34      16.2  T
   6    -50.7530988 -0.195110E-08  0.682E-04    9.34      28.7  T
speedup  0.88
cpu  time for SCC    0.01 s
wall time for SCC    0.01 s
speedup  0.97
cpu  time for grad    0.01 s
wall time for grad    0.01 s
 E :    -50.46008058  G :  0.007089    pred/act E change: -0.152D-03 -0.108D-03
Maxdispl :   0.0378   ||displ|| :   0.0909   Lambda : -0.145D-03
Largest |displ|/coords:  0.0378 (   7)  0.0308 (   4)  0.0290 (  15)

generating ANC from model Hessian ...
 Shifting diagonal of input Hessian by   5.243591291496180E-003
 Lowest  eigenvalues of input Hessian
    0.005000   -0.000000   -0.000000   -0.000000    0.000000    0.000000
    0.000000    0.005333    0.005503    0.005702    0.005960    0.006422
    0.006556    0.007165    0.007340    0.008092    0.008819    0.010480
 Highest eigenvalues
    1.414745    1.420612    1.458263    2.537112    3.477570    3.579235
 
cpu  time for ANC gen    0.02 s
wall time for ANC gen    0.02 s
................................................................................
.............................. CYCLE   53 ......................................
................................................................................
   1    -50.7556834 -0.507557E+02  0.655E-02    9.37       0.0  T
   2    -50.7556852 -0.180565E-05  0.494E-02    9.37       1.0  T
   3    -50.7556867 -0.154085E-05  0.853E-03    9.37       2.3  T
   4    -50.7556869 -0.216726E-06  0.300E-03    9.37       6.5  T
   5    -50.7556869 -0.132896E-07  0.815E-04    9.37      24.1  T
   6    -50.7556869 -0.608580E-09  0.472E-04    9.37      41.5  T
speedup  1.09
cpu  time for SCC    0.01 s
wall time for SCC    0.01 s
speedup  1.01
cpu  time for grad    0.01 s
wall time for grad    0.01 s
 E :    -50.46011312  G :  0.010448    pred/act E change:  0.000D+00 -0.325D-04
Maxdispl :   0.0461   ||displ|| :   0.1043   Lambda : -0.200D-03
Largest |displ|/coords:  0.0461 (  13)  0.0449 (  10)  0.0412 (   3)
................................................................................
.............................. CYCLE   54 ......................................
................................................................................
   1    -50.7549312 -0.507549E+02  0.914E-02    9.38       0.0  T
   2    -50.7549324 -0.121564E-05  0.689E-02    9.38       1.0  T
   3    -50.7549335 -0.104652E-05  0.605E-03    9.38       3.2  T
   4    -50.7549336 -0.146096E-06  0.238E-03    9.38       8.2  T
   5    -50.7549336 -0.833799E-08  0.759E-04    9.38      25.8  T
speedup  1.09
cpu  time for SCC    0.00 s
wall time for SCC    0.00 s
speedup  1.06
cpu  time for grad    0.01 s
wall time for grad    0.01 s
 E :    -50.46023867  G :  0.003511    pred/act E change:  0.000D+00 -0.126D-03
Maxdispl :   0.0677   ||displ|| :   0.1574   Lambda : -0.157D-03
Largest |displ|/coords:  0.0677 (  10)  0.0576 (   3)  0.0529 (   7)
................................................................................
.............................. CYCLE   55 ......................................
................................................................................
   1    -50.7538047 -0.507538E+02  0.155E-01    9.41       0.0  T
   2    -50.7538086 -0.390427E-05  0.118E-01    9.41       1.0  T
   3    -50.7538131 -0.448084E-05  0.969E-03    9.41       2.0  T
   4    -50.7538134 -0.277174E-06  0.378E-03    9.41       5.2  T
   5    -50.7538134 -0.165593E-07  0.132E-03    9.41      14.8  T
   6    -50.7538134 -0.138146E-08  0.631E-04    9.41      31.1  T
   7    -50.7538134 -0.138509E-08  0.138E-04    9.41     142.0  T
speedup  0.94
cpu  time for SCC    0.01 s
wall time for SCC    0.01 s
speedup  0.95
cpu  time for grad    0.01 s
wall time for grad    0.01 s
 E :    -50.46027871  G :  0.009130    pred/act E change: -0.101D-03 -0.400D-04
Maxdispl :   0.0196   ||displ|| :   0.0448   Lambda : -0.875D-04
Largest |displ|/coords:  0.0196 (   3)  0.0190 (   5)  0.0161 (  14)
................................................................................
.............................. CYCLE   56 ......................................
................................................................................
   1    -50.7546808 -0.507547E+02  0.410E-02    9.41       0.0  T
   2    -50.7546813 -0.445972E-06  0.311E-02    9.41       1.0  T
   3    -50.7546817 -0.439403E-06  0.367E-03    9.41       5.3  T
   4    -50.7546817 -0.450311E-07  0.111E-03    9.41      17.7  T
   5    -50.7546817 -0.175935E-08  0.438E-04    9.41      44.8  T
speedup  1.11
cpu  time for SCC    0.00 s
wall time for SCC    0.00 s
speedup  0.99
cpu  time for grad    0.01 s
wall time for grad    0.01 s
 E :    -50.46033511  G :  0.004163    pred/act E change: -0.802D-04 -0.564D-04
Maxdispl :   0.0776   ||displ|| :   0.1171   Lambda : -0.660D-04
Largest |displ|/coords:  0.0776 (   3)  0.0537 (  10)  0.0405 (   1)
................................................................................
.............................. CYCLE   57 ......................................
................................................................................
   1    -50.7549316 -0.507549E+02  0.840E-02    9.42       0.0  T
   2    -50.7549321 -0.496797E-06  0.633E-02    9.42       1.0  T
   3    -50.7549326 -0.559324E-06  0.336E-03    9.42       5.8  T
   4    -50.7549327 -0.346349E-07  0.159E-03    9.42      12.3  T
   5    -50.7549327 -0.224357E-08  0.550E-04    9.42      35.6  T
speedup  0.87
cpu  time for SCC    0.00 s
wall time for SCC    0.00 s
speedup  0.98
cpu  time for grad    0.01 s
wall time for grad    0.01 s
 E :    -50.46038694  G :  0.003261    pred/act E change: -0.438D-04 -0.518D-04
Maxdispl :   0.1586   ||displ|| :   0.2400   Lambda : -0.985D-04
Largest |displ|/coords:  0.1586 (   3)  0.1057 (  10)  0.0937 (   1)
................................................................................
.............................. CYCLE   58 ......................................
................................................................................
   1    -50.7545671 -0.507546E+02  0.169E-01    9.43       0.0  T
   2    -50.7545695 -0.235605E-05  0.128E-01    9.43       1.0  T
   3    -50.7545723 -0.279610E-05  0.736E-03    9.42       2.7  T
   4    -50.7545724 -0.152025E-06  0.351E-03    9.42       5.6  T
   5    -50.7545724 -0.931550E-08  0.115E-03    9.42      17.1  T
   6    -50.7545724 -0.152399E-08  0.464E-04    9.42      42.3  T
   7    -50.7545724 -0.581188E-09  0.165E-04    9.42     118.8  T
speedup  0.97
cpu  time for SCC    0.01 s
wall time for SCC    0.01 s
speedup  0.97
cpu  time for grad    0.01 s
wall time for grad    0.01 s
 E :    -50.46045056  G :  0.006341    pred/act E change: -0.335D-04 -0.636D-04
Maxdispl :   0.1250   ||displ|| :   0.2118   Lambda : -0.102D-03
Largest |displ|/coords:  0.1250 (   3)  0.0980 (   1)  0.0955 (  10)
................................................................................
.............................. CYCLE   59 ......................................
................................................................................
   1    -50.7554036 -0.507554E+02  0.106E-01    9.43       0.0  T
   2    -50.7554059 -0.230652E-05  0.798E-02    9.43       1.0  T
   3    -50.7554081 -0.211046E-05  0.875E-03    9.42       2.2  T
   4    -50.7554083 -0.272499E-06  0.326E-03    9.42       6.0  T
   5    -50.7554083 -0.165658E-07  0.115E-03    9.42      17.0  T
   6    -50.7554083 -0.153942E-08  0.583E-04    9.42      33.6  T
speedup  1.11
cpu  time for SCC    0.01 s
wall time for SCC    0.01 s
speedup  1.05
cpu  time for grad    0.01 s
wall time for grad    0.01 s
 E :    -50.46047422  G :  0.005472    pred/act E change: -0.521D-04 -0.237D-04
Maxdispl :   0.1116   ||displ|| :   0.1410   Lambda : -0.895D-04
Largest |displ|/coords:  0.1116 (   3)  0.0557 (   1)  0.0415 (   7)
................................................................................
.............................. CYCLE   60 ......................................
................................................................................
   1    -50.7548144 -0.507548E+02  0.121E-01    9.42       0.0  T
   2    -50.7548163 -0.187583E-05  0.915E-02    9.42       1.0  T
   3    -50.7548182 -0.194948E-05  0.656E-03    9.42       3.0  T
   4    -50.7548184 -0.158625E-06  0.272E-03    9.42       7.2  T
   5    -50.7548184 -0.809886E-08  0.856E-04    9.42      22.9  T
speedup  0.83
cpu  time for SCC    0.00 s
wall time for SCC    0.00 s
speedup  0.96
cpu  time for grad    0.01 s
wall time for grad    0.01 s
 E :    -50.46051784  G :  0.005544    pred/act E change: -0.531D-04 -0.436D-04
Maxdispl :   0.0222   ||displ|| :   0.0418   Lambda : -0.339D-04
Largest |displ|/coords:  0.0222 (  10)  0.0154 (   8)  0.0148 (   9)
................................................................................
.............................. CYCLE   61 ......................................
................................................................................
   1    -50.7555343 -0.507555E+02  0.273E-02    9.42       0.0  T
   2    -50.7555346 -0.261126E-06  0.206E-02    9.42       1.0  T
   3    -50.7555348 -0.209936E-06  0.287E-03    9.42       6.8  T
   4    -50.7555348 -0.352803E-07  0.953E-04    9.42      20.6  T
speedup  0.93
cpu  time for SCC    0.00 s
wall time for SCC    0.00 s
speedup  0.92
cpu  time for grad    0.01 s
wall time for grad    0.01 s
 E :    -50.46054033  G :  0.003368    pred/act E change: -0.456D-04 -0.225D-04
Maxdispl :   0.1587   ||displ|| :   0.1981   Lambda : -0.557D-04
Largest |displ|/coords:  0.1587 (   3)  0.0868 (   1)  0.0346 (  10)
................................................................................
.............................. CYCLE   62 ......................................
................................................................................
   1    -50.7546903 -0.507547E+02  0.117E-01    9.42       0.0  T
   2    -50.7546910 -0.730002E-06  0.877E-02    9.42       1.0  T
   3    -50.7546919 -0.884025E-06  0.502E-03    9.42       3.9  T
   4    -50.7546919 -0.469721E-07  0.180E-03    9.42      10.9  T
   5    -50.7546919 -0.349029E-08  0.825E-04    9.42      23.8  T
   6    -50.7546919 -0.121039E-08  0.404E-04    9.42      48.6  T
speedup  1.05
cpu  time for SCC    0.01 s
wall time for SCC    0.01 s
speedup  1.01
cpu  time for grad    0.01 s
wall time for grad    0.01 s
 E :    -50.46056989  G :  0.004820    pred/act E change: -0.170D-04 -0.296D-04
Maxdispl :   0.1567   ||displ|| :   0.1939   Lambda : -0.655D-04
Largest |displ|/coords:  0.1567 (   3)  0.0857 (   1)  0.0307 (   9)
................................................................................
.............................. CYCLE   63 ......................................
................................................................................
   1    -50.7551463 -0.507551E+02  0.103E-01    9.40       0.0  T
   2    -50.7551472 -0.870562E-06  0.771E-02    9.40       1.0  T
   3    -50.7551479 -0.761573E-06  0.654E-03    9.41       3.0  T
   4    -50.7551480 -0.101259E-06  0.255E-03    9.41       7.7  T
   5    -50.7551480 -0.488190E-08  0.660E-04    9.41      29.7  T
speedup  1.04
cpu  time for SCC    0.00 s
wall time for SCC    0.00 s
speedup  0.96
cpu  time for grad    0.01 s
wall time for grad    0.01 s
 E :    -50.46061113  G :  0.005242    pred/act E change: -0.289D-04 -0.412D-04
Maxdispl :   0.1335   ||displ|| :   0.1814   Lambda : -0.630D-04
Largest |displ|/coords:  0.1335 (   3)  0.0946 (   1)  0.0302 (  13)
................................................................................
.............................. CYCLE   64 ......................................
................................................................................
   1    -50.7555140 -0.507555E+02  0.868E-02    9.40       0.0  T
   2    -50.7555146 -0.644667E-06  0.653E-02    9.40       1.0  T
   3    -50.7555153 -0.682171E-06  0.602E-03    9.40       3.3  T
   4    -50.7555153 -0.476015E-07  0.177E-03    9.40      11.1  T
   5    -50.7555153 -0.409753E-08  0.607E-04    9.40      32.3  T
speedup  0.85
cpu  time for SCC    0.00 s
wall time for SCC    0.00 s
speedup  0.95
cpu  time for grad    0.01 s
wall time for grad    0.01 s
 E :    -50.46065452  G :  0.002814    pred/act E change: -0.340D-04 -0.434D-04
Maxdispl :   0.3208   ||displ|| :   0.4209   Lambda : -0.872D-04
Largest |displ|/coords:  0.3208 (   3)  0.2091 (   1)  0.0674 (   4)
................................................................................
.............................. CYCLE   65 ......................................
................................................................................
   1    -50.7529220 -0.507529E+02  0.246E-01    9.39       0.0  T
   2    -50.7529266 -0.454739E-05  0.185E-01    9.39       1.0  T
   3    -50.7529312 -0.469732E-05  0.132E-02    9.39       1.5  T
   4    -50.7529316 -0.390773E-06  0.491E-03    9.39       4.0  T
   5    -50.7529317 -0.226270E-07  0.179E-03    9.39      10.9  T
   6    -50.7529317 -0.283725E-08  0.987E-04    9.39      19.9  T
   7    -50.7529317 -0.153075E-08  0.175E-04    9.39     112.4  T
speedup  0.79
cpu  time for SCC    0.00 s
wall time for SCC    0.01 s
speedup  0.96
cpu  time for grad    0.01 s
wall time for grad    0.01 s
 E :    -50.46062302  G :  0.013880    pred/act E change: -0.325D-04  0.315D-04
Maxdispl :   0.1292   ||displ|| :   0.1622   Lambda : -0.236D-03
Largest |displ|/coords:  0.1292 (   3)  0.0664 (   1)  0.0434 (  10)
................................................................................
.............................. CYCLE   66 ......................................
................................................................................
[...]
wall time for grad    0.01 s
 E :    -50.46302530  G :  0.000946    pred/act E change: -0.141D-05 -0.181D-05
Maxdispl :   0.0335   ||displ|| :   0.0473   Lambda : -0.344D-05
Largest |displ|/coords:  0.0335 (   1)  0.0140 (   2)  0.0121 (  37)
................................................................................
.............................. CYCLE  108 ......................................
................................................................................
   1    -50.7556350 -0.507556E+02  0.285E-02    9.48       0.0  T
   2    -50.7556351 -0.635630E-07  0.214E-02    9.48       1.0  T
   3    -50.7556352 -0.700885E-07  0.178E-03    9.48      11.0  T
   4    -50.7556352 -0.503874E-08  0.566E-04    9.48      34.6  T
   5    -50.7556352 -0.436302E-09  0.195E-04    9.48     100.7  T
speedup  1.06
cpu  time for SCC    0.00 s
wall time for SCC    0.00 s
speedup  1.00
cpu  time for grad    0.01 s
wall time for grad    0.01 s
 E :    -50.46302780  G :  0.001149    pred/act E change: -0.122D-05 -0.250D-05
Maxdispl :   0.0494   ||displ|| :   0.0608   Lambda : -0.374D-05
Largest |displ|/coords:  0.0494 (   1)  0.0126 (   3)  0.0124 (   2)
................................................................................
.............................. CYCLE  109 ......................................
................................................................................
   1    -50.7554752 -0.507555E+02  0.323E-02    9.47       0.0  T
   2    -50.7554753 -0.109163E-06  0.243E-02    9.47       1.0  T
   3    -50.7554754 -0.109351E-06  0.252E-03    9.47       7.8  T
   4    -50.7554754 -0.101224E-07  0.812E-04    9.47      24.1  T
   5    -50.7554754 -0.793200E-09  0.229E-04    9.47      85.7  T
speedup  1.06
cpu  time for SCC    0.00 s
wall time for SCC    0.00 s
speedup  1.00
cpu  time for grad    0.01 s
wall time for grad    0.01 s
 E :    -50.46303054  G :  0.001265    pred/act E change: -0.172D-05 -0.274D-05
Maxdispl :   0.0667   ||displ|| :   0.0770   Lambda : -0.368D-05
Largest |displ|/coords:  0.0667 (   1)  0.0201 (   3)  0.0138 (   2)
................................................................................
.............................. CYCLE  110 ......................................
................................................................................
   1    -50.7554023 -0.507554E+02  0.348E-02    9.46       0.0  T
   2    -50.7554025 -0.141188E-06  0.261E-02    9.46       1.0  T
   3    -50.7554026 -0.162515E-06  0.262E-03    9.46       7.5  T
   4    -50.7554027 -0.892849E-08  0.803E-04    9.46      24.4  T
   5    -50.7554027 -0.920330E-09  0.271E-04    9.46      72.5  T
speedup  1.06
cpu  time for SCC    0.00 s
wall time for SCC    0.00 s
speedup  1.01
cpu  time for grad    0.01 s
wall time for grad    0.01 s
 E :    -50.46303296  G :  0.001061    pred/act E change: -0.188D-05 -0.242D-05
Maxdispl :   0.0301   ||displ|| :   0.0400   Lambda : -0.258D-05
Largest |displ|/coords:  0.0301 (   1)  0.0154 (  37)  0.0085 (   6)
................................................................................
.............................. CYCLE  111 ......................................
................................................................................
   1    -50.7553135 -0.507553E+02  0.288E-02    9.46       0.0  T
   2    -50.7553137 -0.198113E-06  0.213E-02    9.46       1.0  T
   3    -50.7553138 -0.941731E-07  0.422E-03    9.46       4.6  T
   4    -50.7553138 -0.284953E-07  0.149E-03    9.46      13.1  T
   5    -50.7553138 -0.138484E-08  0.181E-04    9.46     108.4  T
   6    -50.7553138 -0.216360E-10  0.128E-04    9.46     152.8  T
speedup  1.03
cpu  time for SCC    0.01 s
wall time for SCC    0.01 s
speedup  0.99
cpu  time for grad    0.01 s
wall time for grad    0.01 s
 E :    -50.46303453  G :  0.001231    pred/act E change: -0.185D-05 -0.157D-05
Maxdispl :   0.0238   ||displ|| :   0.0321   Lambda : -0.276D-05
Largest |displ|/coords:  0.0238 (   1)  0.0131 (   8)  0.0081 (   9)
................................................................................
.............................. CYCLE  112 ......................................
................................................................................
   1    -50.7555123 -0.507555E+02  0.179E-02    9.46       0.0  T
   2    -50.7555124 -0.755970E-07  0.130E-02    9.46       1.5  T
   3    -50.7555124 -0.518677E-07  0.267E-03    9.46       7.3  T
   4    -50.7555124 -0.710204E-08  0.873E-04    9.46      22.5  T
   5    -50.7555124 -0.896407E-09  0.142E-04    9.46     138.3  T
speedup  1.09
cpu  time for SCC    0.00 s
wall time for SCC    0.00 s
speedup  1.00
cpu  time for grad    0.01 s
wall time for grad    0.01 s
 E :    -50.46303609  G :  0.000558    pred/act E change: -0.129D-05 -0.156D-05
Maxdispl :   0.0115   ||displ|| :   0.0182   Lambda : -0.121D-05
Largest |displ|/coords:  0.0115 (  37)  0.0047 (   5)  0.0040 (  29)

generating ANC from model Hessian ...
 Shifting diagonal of input Hessian by   5.249995966482414E-003
 Lowest  eigenvalues of input Hessian
    0.005000   -0.000000   -0.000000   -0.000000    0.000000    0.000000
    0.000000    0.005297    0.005579    0.005752    0.005823    0.006118
    0.006272    0.006663    0.006765    0.007466    0.007995    0.010157
 Highest eigenvalues
    1.409134    1.416610    1.440226    2.568373    3.433217    3.618762
 
cpu  time for ANC gen    0.02 s
wall time for ANC gen    0.02 s
................................................................................
.............................. CYCLE  113 ......................................
................................................................................
   1    -50.7555816 -0.507556E+02  0.170E-02    9.46       0.0  T
   2    -50.7555817 -0.748921E-07  0.125E-02    9.46       1.6  T
   3    -50.7555817 -0.322146E-07  0.258E-03    9.46       7.6  T
   4    -50.7555817 -0.108365E-07  0.891E-04    9.46      22.0  T
   5    -50.7555817 -0.454897E-09  0.890E-05    9.46     220.5  T
speedup  1.02
cpu  time for SCC    0.00 s
wall time for SCC    0.00 s
speedup  0.98
cpu  time for grad    0.01 s
wall time for grad    0.01 s
 E :    -50.46303690  G :  0.000623    pred/act E change:  0.000D+00 -0.814D-06
Maxdispl :   0.0017   ||displ|| :   0.0037   Lambda : -0.460D-06
Largest |displ|/coords:  0.0017 (   6)  0.0016 (   2)  0.0012 (   7)
................................................................................
.............................. CYCLE  114 ......................................
................................................................................
   1    -50.7556639 -0.507557E+02  0.233E-03    9.46       0.0  T
   2    -50.7556639 -0.222519E-08  0.172E-03    9.46      11.4  T
   3    -50.7556639 -0.162705E-08  0.318E-04    9.46      61.8  T
   4    -50.7556639 -0.224460E-09  0.116E-04    9.46     168.5  T
speedup  1.05
cpu  time for SCC    0.00 s
wall time for SCC    0.00 s
speedup  1.06
cpu  time for grad    0.01 s
wall time for grad    0.01 s
 E :    -50.46303724  G :  0.000294    pred/act E change:  0.000D+00 -0.341D-06
Maxdispl :   0.0025   ||displ|| :   0.0050   Lambda : -0.322D-06
Largest |displ|/coords:  0.0025 (   2)  0.0021 (   7)  0.0015 (  10)
................................................................................
.............................. CYCLE  115 ......................................
................................................................................
   1    -50.7557336 -0.507557E+02  0.340E-03    9.47       0.0  T
   2    -50.7557336 -0.296961E-08  0.248E-03    9.47       7.9  T
   3    -50.7557336 -0.268034E-08  0.451E-04    9.47      43.5  T
   4    -50.7557336 -0.232419E-09  0.138E-04    9.47     142.0  T
speedup  0.79
cpu  time for SCC    0.00 s
wall time for SCC    0.00 s
speedup  0.98
cpu  time for grad    0.01 s
wall time for grad    0.01 s
 E :    -50.46303744  G :  0.000181    pred/act E change: -0.230D-06 -0.201D-06
Maxdispl :   0.0024   ||displ|| :   0.0039   Lambda : -0.104D-06
Largest |displ|/coords:  0.0024 (   2)  0.0015 (   7)  0.0012 (   8)
................................................................................
.............................. CYCLE  116 ......................................
................................................................................
   1    -50.7557393 -0.507557E+02  0.246E-03    9.47       0.0  T
   2    -50.7557393 -0.995065E-09  0.183E-03    9.47      10.7  T
   3    -50.7557393 -0.104231E-08  0.274E-04    9.47      71.7  T
   4    -50.7557393 -0.867217E-10  0.791E-05    9.47     247.8  T
speedup  1.05
cpu  time for SCC    0.00 s
wall time for SCC    0.00 s
speedup  0.98
cpu  time for grad    0.01 s
wall time for grad    0.01 s
 E :    -50.46303752  G :  0.000165    pred/act E change: -0.161D-06 -0.769D-07
Maxdispl :   0.0040   ||displ|| :   0.0065   Lambda : -0.132D-06
Largest |displ|/coords:  0.0040 (   2)  0.0029 (   7)  0.0018 (   8)

   *** GEOMETRY OPTIMIZATION CONVERGED AFTER 116 ITERATIONS ***

------------------------------------------------------------------------
 total energy gain (kcal):     -0.0004
------------------------------------------------------------------------
================
 final structure:
================
$coord
        0.91727631033413       -1.43509086046155       -4.44858652635136      S 
       -0.82570815094867        0.41469147062124       -5.47759738624701      O 
        2.95892409220690       -0.24123190746206       -3.00781408970928      O 
       -0.28287654345952       -3.42732234203432       -3.01198068320066      O 
        2.21471890395268       -2.76444894642681       -6.80669972087883      O 
        2.61615564596579       -1.41388175695474       -7.92837734098625      H 
       -2.41012324544387        1.50562002666401        1.42729812643021      O 
       -1.63488022598153        2.76429276361848        0.28576240955732      H 
       -1.04836139733534        1.96291531594846        6.40987857208207      O 
       -1.69330752874359        2.04669759512109        4.68736207325102      H 
       -2.45751078426876        1.52949618849212        7.46120102692085      H 
        3.24754684387026       -0.75779391281742        6.08197401544634      O 
        1.72327562079871        0.23244619263253        6.45503912847165      H 
        4.65474280239814        0.32885967320796        6.42483878104612      H 
        0.00933982045296        4.04518110979457       -2.13529178801241      O 
        1.78572312766894        3.69842848443818       -1.96553797200027      H 
       -0.50857708880685        2.96225154362173       -3.54519998452151      H 
       -4.67810549564182       -1.14282746920648       -2.13864685274659      O 
       -4.65172068685036       -0.06663229425286       -3.60510997115307      H 
       -3.27607933472820       -2.30981674016190       -2.43482722894074      H 
       -3.60578841882736        0.57553290306494        0.33221514416494      H 
        1.42695554384053       -1.73080044179266        1.42914601958624      N 
        2.41261253417660       -1.11576601706143       -0.19772047434873      H 
        0.82014401487431       -3.51265355032296        1.02454311595271      H 
        2.45948848862469       -1.62568080634592        3.10508809891224      H 
       -0.17386484816963       -0.52246616519367        1.57904352618519      H 
$end
 
 Bond Distances (Angstroems)
 ---------------------------
S1-O2=1.4510         S1-O3=1.4655         S1-O4=1.4466         S1-O5=1.5885         O2-S1=1.4510         O3-S1=1.4655         
O4-S1=1.4466         O5-S1=1.5885         O5-H6=0.9530         H6-O5=0.9530         O7-H8=0.9884         O7-H21=0.9891        
H8-O7=0.9884         O9-H10=0.9743        O9-H11=0.9582        H10-O9=0.9743        H11-O9=0.9582        O12-H13=0.9819       
O12-H14=0.9582       H13-O12=0.9819       H14-O12=0.9582       O15-H16=0.9620       O15-H17=0.9799       H16-O15=0.9620       
H17-O15=0.9799       O18-H19=0.9627       O18-H20=0.9779       H19-O18=0.9627       H20-O18=0.9779       H21-O7=0.9891        
N22-H23=1.0579       N22-H24=1.0188       N22-H25=1.0432       N22-H26=1.0643       H23-N22=1.0579       H24-N22=1.0188       
H25-N22=1.0432       H26-N22=1.0643       
 N  H  Rav=1.0461 sigma=0.0175  Rmin=1.0188  Rmax=1.0643     4
 O  H  Rav=0.9714 sigma=0.0124  Rmin=0.9530  Rmax=0.9891    11
 S  O  Rav=1.4879 sigma=0.0585  Rmin=1.4466  Rmax=1.5885     4
 
 selected bond angles (degree)
 --------------------
O3-S1-O2=111.90                O4-S1-O2=114.19                O4-S1-O3=111.37                O5-S1-O2=106.18                
O5-S1-O3=106.32                O5-S1-O4=106.25                H6-O5-S1=104.69                H21-O7-H8=104.05               
H11-O9-H10=106.35              
 
 selected dihedral angles (degree)
 ---------------------------------
H6-O5-S1-O2= 43.97            H6-O5-S1-O3=284.65            H6-O5-S1-O4=165.91            
 
 CMA Distance (Angstroems)
 ---------------------------
R(CMA):  3.6485

========================================================================
 FINAL SINGLEPOINT CALCULATION ON OPTIMIZED GEOMETRY
========================================================================

 Ncao       : 65
 Nao        : 64
 Nshell     : 38
 Nel        : 80
 T(el)      :   300.0
 intcut     :    25.0
 scfconv/Eh :  0.100E-05
   qconv/e  :  0.100E-03
 intneglect :  0.100E-07
 broydamp   :      0.250
 iter      E             dE          RMSdq      gap      omega  full diag
   1    -50.7557393 -0.507557E+02  0.330E-05    9.47       0.0  T
   2    -50.7557393 -0.660805E-12  0.211E-05    9.47     929.0  T
   3    -50.7557393 -0.355271E-12  0.431E-06    9.47    4547.5  T
speedup  1.03
cpu  time for SCC    0.00 s
wall time for SCC    0.00 s

   *** convergence criteria satisfied after 3 iterations ***

          eigenvalues
 #    :          28         29         30         31         32         33         34         35
 occ. :        2.000      2.000      2.000      2.000      2.000      2.000      2.000      2.000
 eps  :       -13.625    -13.244    -12.660    -12.450    -12.328    -12.292    -12.238    -12.188
 #    :          36         37         38         39         40         41         42         43
 occ. :        2.000      2.000      2.000      2.000      2.000      0.000      0.000      0.000
 eps  :       -12.007    -11.938    -11.901    -11.810    -11.741     -2.275     -0.931     -0.479
 #    :          44         45         46         47         48         49         50         51
 occ. :        0.000      0.000      0.000      0.000      0.000      0.000      0.000      0.000
 eps  :         0.950      1.264      1.338      1.686      3.224      3.393      4.095      4.542


   #   Z            q   n(s)   n(p)   n(d)      C6AA      α(0)
   1  16 S      1.659  1.588  1.799  0.954    89.702    15.941
   2   8 O     -0.748  1.773  4.974  0.000    30.040     7.348
   3   8 O     -0.750  1.770  4.980  0.000    30.113     7.357
   4   8 O     -0.729  1.763  4.966  0.000    29.511     7.283
   5   8 O     -0.587  1.751  4.836  0.000    24.851     6.730
   6   1 H      0.342  0.658  0.000  0.000     0.600     1.213
   7   8 O     -0.650  1.761  4.889  0.000    26.429     6.938
   8   1 H      0.332  0.668  0.000  0.000     0.634     1.251
   9   8 O     -0.605  1.743  4.862  0.000    25.303     6.789
  10   1 H      0.331  0.669  0.000  0.000     0.634     1.251
  11   1 H      0.287  0.713  0.000  0.000     0.763     1.372
  12   8 O     -0.603  1.743  4.860  0.000    25.260     6.783
  13   1 H      0.334  0.666  0.000  0.000     0.627     1.244
  14   1 H      0.287  0.713  0.000  0.000     0.763     1.372
  15   8 O     -0.614  1.745  4.868  0.000    25.515     6.817
  16   1 H      0.297  0.703  0.000  0.000     0.730     1.342
  17   1 H      0.319  0.681  0.000  0.000     0.667     1.283
  18   8 O     -0.610  1.743  4.867  0.000    25.434     6.807
  19   1 H      0.301  0.699  0.000  0.000     0.717     1.330
  20   1 H      0.317  0.683  0.000  0.000     0.672     1.288
  21   1 H      0.334  0.666  0.000  0.000     0.629     1.246
  22   7 N     -0.355  1.275  4.079  0.000    29.125     8.015
  23   1 H      0.284  0.716  0.000  0.000     0.762     1.368
  24   1 H      0.250  0.750  0.000  0.000     0.883     1.472
  25   1 H      0.286  0.714  0.000  0.000     0.758     1.364
  26   1 H      0.292  0.708  0.000  0.000     0.738     1.346

 Mol. C6AA /au·bohr⁶  :       5443.916853
 Mol. C8AA /au·bohr⁸  :     117861.680494
 Mol. α(0) /au        :        106.550197

 
 Wiberg/Mayer (AO) data. WBOs > 0.1 written file <wbo>
 largest (>0.05) Wiberg bond orders for each atom
           total WBO             WBO to atom ...
     1  S   4.866    O    4 1.354    O    2 1.322    O    3 1.270    O    5 0.891
     2  O   1.715    S    1 1.322    O    4 0.112    O    3 0.109    O    5 0.077    H   17 0.056
     3  O   1.725    S    1 1.270    O    4 0.111    O    2 0.109    H   23 0.102    O    5 0.073
     4  O   1.734    S    1 1.354    O    2 0.112    O    3 0.111    O    5 0.062    H   20 0.051
     5  O   1.973    S    1 0.891    H    6 0.866    O    2 0.077    O    3 0.073    O    4 0.062
     6  H   0.883    O    5 0.866
     7  O   1.928    H    8 0.814    H   21 0.806    H   26 0.121    N   22 0.060
     8  H   0.890    O    7 0.814    O   15 0.072
     9  O   1.866    H   11 0.914    H   10 0.847    H   13 0.057
    10  H   0.890    O    9 0.847
    11  H   0.918    O    9 0.914
    12  O   1.890    H   14 0.914    H   13 0.830    H   25 0.077
    13  H   0.888    O   12 0.830    O    9 0.057
    14  H   0.918    O   12 0.914
    15  O   1.880    H   16 0.901    H   17 0.838    H    8 0.072
    16  H   0.912    O   15 0.901
    17  H   0.898    O   15 0.838    O    2 0.056
    18  O   1.885    H   19 0.899    H   20 0.844    H   21 0.074
    19  H   0.909    O   18 0.899
    20  H   0.899    O   18 0.844    O    4 0.051
    21  H   0.889    O    7 0.806    O   18 0.074
    22  N   3.524    H   24 0.926    H   25 0.838    H   23 0.810    H   26 0.787    O    7 0.060
    23  H   0.919    N   22 0.810    O    3 0.102
    24  H   0.937    N   22 0.926
    25  H   0.918    N   22 0.838    O   12 0.077
    26  H   0.915    N   22 0.787    O    7 0.121
 MOs/occ written to file <molden.input>
 
molecular dipole:
                 x           y           z       tot (Debye)
 q only:        0.677       0.122       1.954
   full:        0.870       0.105       1.034       3.446
molecular quadrupole (traceless):
                xx          xy          yy          xz          yz          zz
 q only:        2.121       0.660      -6.952      -2.450      -4.240       4.832
  q+dip:        0.646       1.501     -11.007      -4.861      -2.560      10.361
   full:        0.742       1.544     -11.375      -5.100      -2.517      10.633

SCC energy    :     -50.7557393
rep           :       0.2924899
ES            :       0.2665617
AES           :      -0.0736362
AXC           :      -0.0083633
disp          :      -0.0185681
XB            :       0.0000000
fix           :       0.0000000
total E       :     -50.4630375
atomizationE  :       4.9933417     3133.37
(atE without considering molecular charge,
 total energy contains solvation terms)
H-L gap (eV)  :          9.4665
optimized geometry written to: xtbopt.xyz


------------------------------------------------------------------------
 * finished run on 2019/09/16 at 12:57:35.866     
------------------------------------------------------------------------
 total:
 * wall-time:     0 d,  0 h,  0 min,  2.746 sec
 *  cpu-time:     0 d,  0 h,  0 min,  2.665 sec
 * ratio c/w:     0.970 speedup
 SCF:
 * wall-time:     0 d,  0 h,  0 min,  0.149 sec
 *  cpu-time:     0 d,  0 h,  0 min,  0.144 sec
 * ratio c/w:     0.964 speedup
 ANC optimizer:
 * wall-time:     0 d,  0 h,  0 min,  2.569 sec
 *  cpu-time:     0 d,  0 h,  0 min,  2.496 sec
 * ratio c/w:     0.971 speedup

