      -----------------------------------------------------------      
     |                   =====================                   |     
     |                           x T B                           |     
     |                   =====================                   |     
     |                         S. Grimme                         |     
     |          Mulliken Center for Theoretical Chemistry        |     
     |                    University of Bonn                     |     
     |                 Version 6.0.1 (SAW181210)                 |     
      -----------------------------------------------------------      

   This program is distributed in the hope that it will be useful,
   but WITHOUT ANY WARRANTY; without even the implied warranty of
   MERCHANTABILITY or FITNESS FOR A PARTICULAR PURPOSE.
   
   FOR NON-COMMERCIAL, ACADEMIA USE ONLY.
   
   Cite this work as:
   S. Grimme, C. Bannwarth, P. Shushkov, J. Comput. Theory Chem., 2017,
   13, 1989-2009.
   C. Bannwarth, S. Ehlert and S. Grimme., ChemRxiv, 2018, preprint.
   http://doi.org/10.26434/chemrxiv.7246238.v1
   
   for sTDA-xTB:
   S. Grimme and C. Bannwarth, J. Chem. Phys., 2016, 145, 054103.
   
   in the mass-spec context:
   V. Asgeirsson, C. Bauer and S. Grimme, Chem. Sci., 2017, 8, 4879.
   
   if GBSA is used:
   P. Shushkov, F. März and S. Grimme, unpublished.
   
   for ANC optimizer:
   S. Grimme, unpublished.
   Rational Function algorithm used in ANCopt:
   F. Eckert, P. Pulay, H.-J. Werner, J. Comput. Chem., 1997, 18, 1473.
   
   with help from (in alphabetical order)
   C. Bannwarth, F. Bohle, G. Brandenburg, E. Caldeweyher, M. Checinski,
   S. Dohm, S. Ehlert, S. Ehrlich, F. März, H. Neugebauer, J. Pisarek,
   P. Pracht, P. Shushkov, and S. Spicher.
   
 * started run on 2019/09/16 at 11:23:38.327     
========================================================================
 # omp threads = 1
========================================================================
number of atoms            : 26
number of electrons        : 80
charge                     : 0
spin                       : .0
first test random number   : .6247

########################################################################
# WARNING! Please study the warnings concerning your input carefully
#  - XTBPATH is not set, using XTBHOME instead
#  - the use of '-opt' is discouraged, please use '--opt' next time
#  - the use of '-chrg' is discouraged, please use '--chrg' next time
#  - the use of '-uhf' is discouraged, please use '--uhf' next time
########################################################################

           ------------------------------------------------- 
          |                 G F N 2 - x T B                 |
          | Geometry, Frequencies, Noncovalent interactions |
          |            JCTC 2018 parametrisation            |
           ------------------------------------------------- 
      method parameters     
 k(s)        :  1.8500
 k(p)        :  2.2300
 k(d)        :  2.2300
 k(f)        :  2.0000
 kEN (H0ij)  : -2.0000
 D4 a1       :  0.5200
 D4 a2       :  5.0000
 D4 s6       :  1.0000
 D4 s8       :  2.7000
 D4 s9       :  5.0000
 alphaj      :  2.0000


            Z     q(EN)     CN     RAES       Cart. coordinates
     1  S   6.0    0.64    4.27    4.18     1.66545     0.54138    -3.88137
     2  O   6.0   -0.34    1.24    1.80     0.18943     2.75919    -2.96989
     3  O   6.0   -0.32    1.21    1.80     4.03038     0.30335    -2.37187
     4  O   6.0   -0.31    1.24    1.80     0.12458    -1.79679    -3.58671
     5  O   6.0   -0.25    2.08    1.84     2.30848     0.89486    -6.55981
     6  H   1.0    0.14    1.21    1.47     3.30130     2.40118    -6.75055
     7  O   6.0   -0.29    2.00    1.83    -4.68550     4.04005    -2.25801
     8  H   1.0    0.17    1.04    1.43    -2.93503     3.63930    -2.55779
     9  H   1.0    0.15    0.97    1.43    -4.96668     5.62933    -3.10049
    10  O   6.0   -0.29    2.01    1.83    -0.01851     2.14892     2.23861
    11  H   1.0    0.17    1.03    1.43     0.14858     2.79784     0.54580
    12  H   1.0    0.16    1.02    1.43     1.63067     1.51341     2.67558
    13  O   6.0   -0.29    2.07    1.84    -4.76485     0.69833     1.52032
    14  H   1.0    0.17    1.02    1.43    -5.31983     1.86837     0.24062
    15  H   1.0    0.16    1.02    1.43    -3.31333     1.48121     2.29157
    16  O   6.0   -0.31    2.04    1.83     4.56602    -0.15079     2.57721
    17  H   1.0    0.18    1.06    1.44     4.52820    -0.09526     0.75784
    18  H   1.0    0.15    0.97    1.43     6.28269     0.24638     3.03541
    19  O   6.0   -0.22    2.90    2.54    -2.43389    -3.39284     0.23311
    20  H   1.0    0.16    1.07    1.44    -1.57593    -3.03477    -1.38724
    21  H   1.0    0.12    1.07    1.44    -1.22098    -3.81834     1.58877
    22  H   1.0    0.14    1.06    1.44    -3.58587    -2.00986     0.73492
    23  N   5.0   -0.23    3.05    1.93     1.07562    -4.19046     3.88873
    24  H   1.0    0.12    1.02    1.43     2.32762    -2.79250     3.45366
    25  H   1.0    0.11    0.99    1.43     2.10406    -5.81879     3.93243
    26  H   1.0    0.10    0.99    1.43     0.53734    -3.86270     5.70915

  Z AO/shell   Hii/eV     exponent
  1     Wed Apr 25 08:07:45 CEST 2018   EN: 2.200 GM2: 0.406  GM3: 0.0800  RAES: 1.40
     1s    -10.707211    1.230000
  7     Wed Apr 25 08:07:45 CEST 2018   EN: 3.040 GM2: 0.461  GM3:-0.0640  RAES: 1.90
     2s    -16.686243    2.339881
     2p    -12.523956    2.014332
  8     Wed Apr 25 08:07:45 CEST 2018   EN: 3.440 GM2: 0.452  GM3:-0.0517  RAES: 1.80
     2s    -20.229985    2.439742
     2p    -15.503117    2.137023
 16     Tue Apr 24 11:44:34 CEST 2018   EN: 2.580 GM2: 0.340  GM3:-0.0502  RAES: 3.10
     3s    -20.029654    1.981333
     3p    -11.377694    2.025643
     3d     -0.420282    1.702555
 no old-style atom pair restraining (fixing) potential

molecular fragmentation (1/2 indicates fragments):
11111122222222222222222222
# atoms in fragment 1/2:     6    20
 fragment masses (1/2) :       97.07      108.11
CMA distance (Bohr)    :   5.897
constraining FC (au)   :  0.0500
           ------------------------------------------------- 
          |        Self-Consistent Charge Iterations        |
           ------------------------------------------------- 

 Ncao       : 65
 Nao        : 64
 Nshell     : 38
 Nel        : 80
 T(el)      :   300.0
 intcut     :    25.0
 scfconv/Eh :  0.100E-05
   qconv/e  :  0.100E-03
 intneglect :  0.100E-07
 broydamp   :      0.250
 iter      E             dE          RMSdq      gap      omega  full diag
   1    -50.6366620 -0.506367E+02  0.700E+00   10.13       0.0  T
   2    -50.6865848 -0.499228E-01  0.504E+00    9.67       1.0  T
   3    -50.7230280 -0.364432E-01  0.136E+00    8.66       1.0  T
   4    -50.7285723 -0.554434E-02  0.558E-01    8.97       1.0  T
   5    -50.7292041 -0.631812E-03  0.318E-01    8.92       1.0  T
   6    -50.7296728 -0.468619E-03  0.136E-01    8.93       1.0  T
   7    -50.7297751 -0.102329E-03  0.502E-02    8.95       1.0  T
   8    -50.7297866 -0.115047E-04  0.329E-02    8.94       1.0  T
   9    -50.7297937 -0.712501E-05  0.917E-03    8.93       2.1  T
  10    -50.7297942 -0.488407E-06  0.233E-03    8.93       8.4  T
  11    -50.7297942 -0.147834E-07  0.124E-03    8.93      15.8  T
  12    -50.7297942 -0.722100E-08  0.553E-04    8.93      35.5  T
  13    -50.7297942 -0.193659E-08  0.132E-04    8.93     149.0  T
speedup  0.99
cpu  time for SCC    0.01 s
wall time for SCC    0.02 s

   *** convergence criteria satisfied after 13 iterations ***

          eigenvalues
 #    :          28         29         30         31         32         33         34         35
 occ. :        2.000      2.000      2.000      2.000      2.000      2.000      2.000      2.000
 eps  :       -12.894    -12.825    -11.976    -11.959    -11.675    -11.637    -11.597    -11.482
 #    :          36         37         38         39         40         41         42         43
 occ. :        2.000      2.000      2.000      2.000      2.000      0.000      0.000      0.000
 eps  :       -11.463    -11.201    -11.130    -11.086    -10.901     -1.968     -0.297     -0.087
 #    :          44         45         46         47         48         49         50         51
 occ. :        0.000      0.000      0.000      0.000      0.000      0.000      0.000      0.000
 eps  :         0.892      1.348      1.661      2.005      3.046      3.797      4.656      4.928


   #   Z            q   n(s)   n(p)   n(d)      C6AA      α(0)
   1  16 S      1.622  1.582  1.823  0.973    90.566    16.017
   2   8 O     -0.769  1.777  4.992  0.000    30.662     7.424
   3   8 O     -0.763  1.779  4.985  0.000    30.492     7.404
   4   8 O     -0.736  1.761  4.975  0.000    29.710     7.308
   5   8 O     -0.547  1.720  4.827  0.000    23.928     6.604
   6   1 H      0.360  0.640  0.000  0.000     0.557     1.168
   7   8 O     -0.612  1.738  4.874  0.000    25.483     6.813
   8   1 H      0.327  0.673  0.000  0.000     0.646     1.262
   9   1 H      0.275  0.725  0.000  0.000     0.802     1.407
  10   8 O     -0.642  1.741  4.901  0.000    26.223     6.911
  11   1 H      0.308  0.692  0.000  0.000     0.698     1.312
  12   1 H      0.311  0.689  0.000  0.000     0.689     1.304
  13   8 O     -0.630  1.739  4.890  0.000    25.905     6.869
  14   1 H      0.332  0.668  0.000  0.000     0.633     1.250
  15   1 H      0.332  0.668  0.000  0.000     0.633     1.250
  16   8 O     -0.617  1.739  4.878  0.000    25.592     6.828
  17   1 H      0.338  0.662  0.000  0.000     0.616     1.233
  18   1 H      0.284  0.716  0.000  0.000     0.772     1.380
  19   8 O     -0.437  1.645  4.793  0.000    21.529     6.267
  20   1 H      0.412  0.588  0.000  0.000     0.463     1.069
  21   1 H      0.388  0.612  0.000  0.000     0.507     1.119
  22   1 H      0.410  0.590  0.000  0.000     0.466     1.073
  23   7 N     -0.458  1.382  4.076  0.000    32.048     8.408
  24   1 H      0.207  0.793  0.000  0.000     1.073     1.622
  25   1 H      0.152  0.848  0.000  0.000     1.390     1.847
  26   1 H      0.157  0.843  0.000  0.000     1.356     1.824

 Mol. C6AA /au·bohr⁶  :       5478.346982
 Mol. C8AA /au·bohr⁸  :     118528.751383
 Mol. α(0) /au        :        106.973343

 
 Wiberg/Mayer (AO) data. WBOs > 0.1 written file <wbo>
 largest (>0.05) Wiberg bond orders for each atom
           total WBO             WBO to atom ...
     1  S   4.899    O    4 1.305    O    3 1.292    O    2 1.269    O    5 0.991
     2  O   1.674    S    1 1.269    O    4 0.112    O    3 0.111    O    5 0.073
     3  O   1.672    S    1 1.292    O    4 0.112    O    2 0.111    O    5 0.073    H   17 0.056
     4  O   1.713    S    1 1.305    O    3 0.112    O    2 0.112    H   20 0.090    O    5 0.052
     5  O   2.042    S    1 0.991    H    6 0.847    O    3 0.073    O    2 0.073    O    4 0.052
     6  H   0.870    O    5 0.847
     7  O   1.831    H    9 0.915    H    8 0.844
     8  H   0.893    O    7 0.844
     9  H   0.924    O    7 0.915
    10  O   1.824    H   11 0.870    H   12 0.856
    11  H   0.905    O   10 0.870
    12  H   0.903    O   10 0.856
    13  O   1.901    H   14 0.852    H   15 0.849    H   22 0.113
    14  H   0.890    O   13 0.852
    15  H   0.890    O   13 0.849
    16  O   1.862    H   18 0.909    H   17 0.824
    17  H   0.886    O   16 0.824    O    3 0.056
    18  H   0.919    O   16 0.909
    19  O   2.309    H   21 0.739    H   20 0.732    H   22 0.715
    20  H   0.830    O   19 0.732    O    4 0.090
    21  H   0.849    O   19 0.739    N   23 0.107
    22  H   0.832    O   19 0.715    O   13 0.113
    23  N   3.045    H   25 0.974    H   26 0.972    H   24 0.925    H   21 0.107
    24  H   0.957    N   23 0.925
    25  H   0.977    N   23 0.974
    26  H   0.975    N   23 0.972
 MOs/occ written to file <molden.input>
 
molecular dipole:
                 x           y           z       tot (Debye)
 q only:       -0.080      -0.984       0.938
   full:        1.177      -0.261       0.194       3.103
molecular quadrupole (traceless):
                xx          xy          yy          xz          yz          zz
 q only:       -3.951       4.358       5.156       1.780     -13.260      -1.205
  q+dip:       -6.531       1.664       3.233       2.891     -18.540       3.298
   full:       -6.540       1.643       2.884       2.689     -19.009       3.657

SCC energy    :     -50.7297942
rep           :       0.3028494
ES            :       0.2718617
AES           :      -0.0722417
AXC           :      -0.0077716
disp          :      -0.0178989
XB            :       0.0000000
fix           :       0.0000000
total E       :     -50.4266124
atomizationE  :       4.9569165     3110.51
(atE without considering molecular charge,
 total energy contains solvation terms)
H-L gap (eV)  :          8.9329
           ------------------------------------------------- 
          |                 ===============                 |
          |                   A N C O P T                   |
          |                 ===============                 |
          |          Approximate Normal Coordinate          |
          |           Rational Function Optimizer           |
           ------------------------------------------------- 
dumping coords to <xtbopt.coord> and <xtbopt.log>
 optlevel               2
 Maxcycle             520
 Maxmicro              25
 Econv         1.000000000000000E-007
 Gconv         2.000000000000000E-004
 Maxdispl       1.00000000000000     
 Hlow          5.000000000000000E-003
 S6             20.0000000000000     
 Nvar               72

generating ANC from model Hessian ...
 Shifting diagonal of input Hessian by   4.977177592025190E-003
 Lowest  eigenvalues of input Hessian
   -0.000000   -0.000000   -0.000000    0.000000    0.000000    0.000000
    0.005000    0.005129    0.005472    0.005922    0.006449    0.006766
    0.007466    0.007683    0.008112    0.009233    0.009512    0.009996
 Highest eigenvalues
    1.455564    1.556818    1.562971    3.146563    3.219059    3.322420
 
cpu  time for ANC gen    0.02 s
wall time for ANC gen    0.02 s
................................................................................
.............................. CYCLE    1 ......................................
................................................................................
   1    -50.7297942 -0.507298E+02  0.819E-05    8.93       0.0  T
   2    -50.7297942 -0.129248E-10  0.650E-05    8.93     301.6  T
   3    -50.7297942 -0.153904E-10  0.327E-05    8.93     600.6  T
speedup  1.03
cpu  time for SCC    0.00 s
wall time for SCC    0.00 s
speedup  0.97
cpu  time for grad    0.01 s
wall time for grad    0.01 s
 E :    -50.42661233  G :  0.166982    pred/act E change:  0.000D+00  0.454D-07
Maxdispl :   0.1861   ||displ|| :   0.3845   Lambda : -0.191D-01
Largest |displ|/coords:  0.1861 (  26)  0.1509 (  21)  0.1095 (  32)
................................................................................
.............................. CYCLE    2 ......................................
................................................................................
   1    -50.7328881 -0.507329E+02  0.356E-01    9.03       0.0  T
   2    -50.7330365 -0.148409E-03  0.271E-01    9.05       1.0  T
   3    -50.7330979 -0.613863E-04  0.734E-02    9.11       1.0  T
   4    -50.7331182 -0.203194E-04  0.203E-02    9.10       1.0  T
   5    -50.7331193 -0.107613E-05  0.486E-03    9.10       4.0  T
   6    -50.7331193 -0.298636E-07  0.263E-03    9.09       7.4  T
speedup  0.91
cpu  time for SCC    0.00 s
wall time for SCC    0.01 s
speedup  0.98
cpu  time for grad    0.01 s
wall time for grad    0.01 s
 E :    -50.44176298  G :  0.108175    pred/act E change:  0.000D+00 -0.152D-01
Maxdispl :   0.1741   ||displ|| :   0.3498   Lambda : -0.106D-01
Largest |displ|/coords:  0.1741 (  21)  0.1223 (  23)  0.1174 (  34)
................................................................................
.............................. CYCLE    3 ......................................
................................................................................
   1    -50.7371854 -0.507372E+02  0.240E-01    9.18       0.0  T
   2    -50.7373403 -0.154923E-03  0.182E-01    9.20       1.0  T
   3    -50.7374026 -0.622889E-04  0.737E-02    9.25       1.0  T
   4    -50.7374115 -0.892286E-05  0.177E-02    9.24       1.1  T
   5    -50.7374121 -0.594827E-06  0.433E-03    9.24       4.5  T
   6    -50.7374122 -0.276714E-07  0.228E-03    9.24       8.6  T
speedup  0.91
cpu  time for SCC    0.01 s
wall time for SCC    0.01 s
speedup  0.98
cpu  time for grad    0.01 s
wall time for grad    0.01 s
 E :    -50.45010406  G :  0.065002    pred/act E change: -0.110D-01 -0.834D-02
Maxdispl :   0.1588   ||displ|| :   0.3125   Lambda : -0.502D-02
Largest |displ|/coords:  0.1588 (  21)  0.0821 (  10)  0.0751 (  14)
................................................................................
.............................. CYCLE    4 ......................................
................................................................................
   1    -50.7380960 -0.507381E+02  0.205E-01    9.27       0.0  T
   2    -50.7381971 -0.101080E-03  0.154E-01    9.29       1.0  T
   3    -50.7382358 -0.387347E-04  0.575E-02    9.29       1.0  T
   4    -50.7382425 -0.662327E-05  0.147E-02    9.29       1.3  T
   5    -50.7382428 -0.339445E-06  0.378E-03    9.29       5.2  T
   6    -50.7382428 -0.171308E-07  0.180E-03    9.29      10.9  T
speedup  0.91
cpu  time for SCC    0.00 s
wall time for SCC    0.01 s
speedup  0.98
cpu  time for grad    0.01 s
wall time for grad    0.01 s
 E :    -50.45379640  G :  0.035905    pred/act E change: -0.594D-02 -0.369D-02
Maxdispl :   0.1617   ||displ|| :   0.3659   Lambda : -0.310D-02
Largest |displ|/coords:  0.1617 (   2)  0.1430 (  10)  0.1340 (  13)
................................................................................
.............................. CYCLE    5 ......................................
................................................................................
   1    -50.7380092 -0.507380E+02  0.297E-01    9.28       0.0  T
   2    -50.7380891 -0.798869E-04  0.226E-01    9.30       1.0  T
   3    -50.7381200 -0.308962E-04  0.501E-02    9.31       1.0  T
   4    -50.7381335 -0.135122E-04  0.187E-02    9.31       1.0  T
   5    -50.7381341 -0.544464E-06  0.380E-03    9.32       5.2  T
   6    -50.7381341 -0.216239E-07  0.195E-03    9.32      10.1  T
speedup  0.89
cpu  time for SCC    0.01 s
wall time for SCC    0.01 s
speedup  0.96
cpu  time for grad    0.01 s
wall time for grad    0.01 s
 E :    -50.45539969  G :  0.021922    pred/act E change: -0.275D-02 -0.160D-02
Maxdispl :   0.2570   ||displ|| :   0.4465   Lambda : -0.270D-02
Largest |displ|/coords:  0.2570 (  14)  0.1965 (   2)  0.1304 (   3)
................................................................................
.............................. CYCLE    6 ......................................
................................................................................
   1    -50.7415379 -0.507415E+02  0.478E-01    9.12       0.0  T
   2    -50.7416409 -0.102975E-03  0.364E-01    9.14       1.0  T
   3    -50.7417031 -0.622126E-04  0.583E-02    9.17       1.0  T
   4    -50.7417200 -0.168766E-04  0.222E-02    9.16       1.0  T
   5    -50.7417210 -0.100387E-05  0.586E-03    9.16       3.3  T
   6    -50.7417210 -0.167570E-07  0.288E-03    9.16       6.8  T
speedup  0.93
cpu  time for SCC    0.00 s
wall time for SCC    0.01 s
speedup  0.98
cpu  time for grad    0.01 s
wall time for grad    0.01 s
 E :    -50.45474105  G :  0.038358    pred/act E change: -0.176D-02  0.659D-03
Maxdispl :   0.0889   ||displ|| :   0.1999   Lambda : -0.253D-02
Largest |displ|/coords:  0.0889 (  14)  0.0775 (  11)  0.0645 (   3)
................................................................................
.............................. CYCLE    7 ......................................
................................................................................
   1    -50.7403911 -0.507404E+02  0.282E-01    9.19       0.0  T
   2    -50.7404207 -0.295331E-04  0.216E-01    9.20       1.0  T
   3    -50.7404389 -0.182644E-04  0.296E-02    9.22       1.0  T
   4    -50.7404439 -0.501540E-05  0.958E-03    9.21       2.0  T
   5    -50.7404442 -0.232708E-06  0.270E-03    9.21       7.3  T
   6    -50.7404442 -0.385339E-08  0.130E-03    9.21      15.1  T
speedup  0.93
cpu  time for SCC    0.00 s
wall time for SCC    0.01 s
speedup  0.98
cpu  time for grad    0.01 s
wall time for grad    0.01 s
 E :    -50.45638870  G :  0.015141    pred/act E change: -0.162D-02 -0.165D-02
Maxdispl :   0.1321   ||displ|| :   0.2794   Lambda : -0.130D-02
Largest |displ|/coords:  0.1321 (  13)  0.1255 (  10)  0.1120 (  11)
................................................................................
.............................. CYCLE    8 ......................................
................................................................................
   1    -50.7375539 -0.507376E+02  0.284E-01    9.25       0.0  T
   2    -50.7375923 -0.383899E-04  0.214E-01    9.26       1.0  T
   3    -50.7376157 -0.234086E-04  0.357E-02    9.25       1.0  T
   4    -50.7376214 -0.569276E-05  0.101E-02    9.26       1.9  T
   5    -50.7376216 -0.243497E-06  0.319E-03    9.26       6.1  T
   6    -50.7376217 -0.668788E-08  0.185E-03    9.26      10.6  T
   7    -50.7376217 -0.568184E-08  0.507E-04    9.26      38.7  T
speedup  0.98
cpu  time for SCC    0.01 s
wall time for SCC    0.01 s
speedup  1.00
cpu  time for grad    0.01 s
wall time for grad    0.01 s
 E :    -50.45654268  G :  0.027559    pred/act E change: -0.131D-02 -0.154D-03
Maxdispl :   0.1907   ||displ|| :   0.2364   Lambda : -0.117D-02
Largest |displ|/coords:  0.1907 (   2)  0.0672 (  14)  0.0618 (   6)
................................................................................
.............................. CYCLE    9 ......................................
................................................................................
   1    -50.7408150 -0.507408E+02  0.186E-01    9.23       0.0  T
   2    -50.7408302 -0.151930E-04  0.139E-01    9.24       1.0  T
   3    -50.7408413 -0.111421E-04  0.225E-02    9.24       1.0  T
   4    -50.7408433 -0.202685E-05  0.629E-03    9.24       3.1  T
   5    -50.7408434 -0.702401E-07  0.290E-03    9.24       6.8  T
   6    -50.7408434 -0.729135E-08  0.146E-03    9.24      13.5  T
speedup  1.11
cpu  time for SCC    0.01 s
wall time for SCC    0.01 s
speedup  1.05
cpu  time for grad    0.01 s
wall time for grad    0.01 s
 E :    -50.45713584  G :  0.009725    pred/act E change: -0.699D-03 -0.593D-03
Maxdispl :   0.1327   ||displ|| :   0.3250   Lambda : -0.883D-03
Largest |displ|/coords:  0.1327 (   2)  0.1032 (  14)  0.0960 (  10)
................................................................................
.............................. CYCLE   10 ......................................
................................................................................
   1    -50.7386278 -0.507386E+02  0.191E-01    9.15       0.0  T
   2    -50.7386419 -0.141367E-04  0.144E-01    9.17       1.0  T
   3    -50.7386517 -0.983964E-05  0.236E-02    9.21       1.0  T
   4    -50.7386537 -0.195386E-05  0.689E-03    9.20       2.8  T
   5    -50.7386538 -0.106844E-06  0.223E-03    9.20       8.8  T
   6    -50.7386538 -0.346716E-08  0.132E-03    9.20      14.8  T
speedup  1.13
cpu  time for SCC    0.01 s
wall time for SCC    0.01 s
speedup  1.05
cpu  time for grad    0.01 s
wall time for grad    0.01 s
 E :    -50.45739026  G :  0.016842    pred/act E change: -0.618D-03 -0.254D-03
Maxdispl :   0.1684   ||displ|| :   0.2585   Lambda : -0.714D-03
Largest |displ|/coords:  0.1684 (   2)  0.0827 (  13)  0.0803 (  14)
................................................................................
.............................. CYCLE   11 ......................................
................................................................................
   1    -50.7404555 -0.507405E+02  0.108E-01    9.25       0.0  T
   2    -50.7404602 -0.472477E-05  0.807E-02    9.24       1.0  T
   3    -50.7404637 -0.354371E-05  0.137E-02    9.23       1.4  T
   4    -50.7404643 -0.595970E-06  0.419E-03    9.24       4.7  T
   5    -50.7404643 -0.203905E-07  0.128E-03    9.24      15.3  T
   6    -50.7404643 -0.179254E-08  0.734E-04    9.24      26.7  T
speedup  0.94
cpu  time for SCC    0.00 s
wall time for SCC    0.01 s
speedup  0.98
cpu  time for grad    0.01 s
wall time for grad    0.01 s
 E :    -50.45788000  G :  0.007815    pred/act E change: -0.488D-03 -0.490D-03
Maxdispl :   0.2741   ||displ|| :   0.4498   Lambda : -0.590D-03
Largest |displ|/coords:  0.2741 (   2)  0.1360 (  11)  0.1351 (  10)
................................................................................
.............................. CYCLE   12 ......................................
................................................................................
   1    -50.7371397 -0.507371E+02  0.202E-01    9.26       0.0  T
   2    -50.7371508 -0.110828E-04  0.152E-01    9.26       1.0  T
   3    -50.7371626 -0.118408E-04  0.211E-02    9.26       1.0  T
   4    -50.7371637 -0.101619E-05  0.726E-03    9.26       2.7  T
   5    -50.7371637 -0.549019E-07  0.252E-03    9.26       7.8  T
   6    -50.7371637 -0.711579E-08  0.141E-03    9.26      13.9  T
speedup  0.93
cpu  time for SCC    0.00 s
wall time for SCC    0.01 s
speedup  0.98
cpu  time for grad    0.01 s
wall time for grad    0.01 s
 E :    -50.45812705  G :  0.012851    pred/act E change: -0.381D-03 -0.247D-03
Maxdispl :   0.0891   ||displ|| :   0.2324   Lambda : -0.410D-03
Largest |displ|/coords:  0.0891 (   2)  0.0882 (  14)  0.0864 (   5)
................................................................................
.............................. CYCLE   13 ......................................
................................................................................
   1    -50.7406069 -0.507406E+02  0.903E-02    9.31       0.0  T
   2    -50.7406100 -0.308445E-05  0.660E-02    9.31       1.0  T
   3    -50.7406120 -0.203683E-05  0.124E-02    9.31       1.6  T
   4    -50.7406123 -0.303782E-06  0.456E-03    9.31       4.3  T
   5    -50.7406123 -0.257286E-07  0.953E-04    9.31      20.6  T
   6    -50.7406123 -0.123934E-08  0.597E-04    9.31      32.8  T
speedup  0.93
cpu  time for SCC    0.00 s
wall time for SCC    0.01 s
speedup  0.96
cpu  time for grad    0.01 s
wall time for grad    0.01 s
 E :    -50.45832169  G :  0.006316    pred/act E change: -0.355D-03 -0.195D-03
Maxdispl :   0.0417   ||displ|| :   0.1138   Lambda : -0.119D-03
Largest |displ|/coords:  0.0417 (   5)  0.0382 (   2)  0.0369 (  10)
................................................................................
.............................. CYCLE   14 ......................................
................................................................................
   1    -50.7393007 -0.507393E+02  0.674E-02    9.31       0.0  T
   2    -50.7393023 -0.156905E-05  0.504E-02    9.32       1.0  T
   3    -50.7393036 -0.127747E-05  0.831E-03    9.32       2.4  T
   4    -50.7393038 -0.184955E-06  0.289E-03    9.32       6.8  T
   5    -50.7393038 -0.115164E-07  0.744E-04    9.32      26.4  T
speedup  0.89
cpu  time for SCC    0.00 s
wall time for SCC    0.00 s
speedup  0.96
cpu  time for grad    0.01 s
wall time for grad    0.01 s
 E :    -50.45837929  G :  0.006283    pred/act E change: -0.216D-03 -0.576D-04
Maxdispl :   0.0484   ||displ|| :   0.1344   Lambda : -0.153D-03
Largest |displ|/coords:  0.0484 (  12)  0.0423 (   6)  0.0421 (   8)
................................................................................
.............................. CYCLE   15 ......................................
................................................................................
   1    -50.7391542 -0.507392E+02  0.965E-02    9.31       0.0  T
   2    -50.7391571 -0.290227E-05  0.722E-02    9.32       1.0  T
   3    -50.7391593 -0.214823E-05  0.112E-02    9.32       1.8  T
   4    -50.7391597 -0.369476E-06  0.370E-03    9.32       5.3  T
   5    -50.7391597 -0.198464E-07  0.915E-04    9.32      21.4  T
   6    -50.7391597 -0.100459E-08  0.542E-04    9.32      36.2  T
speedup  0.91
cpu  time for SCC    0.00 s
wall time for SCC    0.01 s
speedup  0.96
cpu  time for grad    0.01 s
wall time for grad    0.01 s
 E :    -50.45846053  G :  0.005386    pred/act E change: -0.603D-04 -0.812D-04
Maxdispl :   0.0450   ||displ|| :   0.1152   Lambda : -0.950D-04
Largest |displ|/coords:  0.0450 (   3)  0.0430 (   4)  0.0366 (   9)
................................................................................
.............................. CYCLE   16 ......................................
................................................................................
   1    -50.7398263 -0.507398E+02  0.656E-02    9.31       0.0  T
   2    -50.7398276 -0.127997E-05  0.486E-02    9.31       1.0  T
   3    -50.7398285 -0.885050E-06  0.720E-03    9.31       2.7  T
   4    -50.7398287 -0.172559E-06  0.270E-03    9.31       7.3  T
   5    -50.7398287 -0.854725E-08  0.698E-04    9.31      28.1  T
speedup  1.09
cpu  time for SCC    0.00 s
wall time for SCC    0.00 s
speedup  1.02
cpu  time for grad    0.01 s
wall time for grad    0.01 s
 E :    -50.45851589  G :  0.005036    pred/act E change: -0.778D-04 -0.554D-04
Maxdispl :   0.0789   ||displ|| :   0.1847   Lambda : -0.130D-03
Largest |displ|/coords:  0.0789 (   6)  0.0719 (   5)  0.0673 (   8)
................................................................................
.............................. CYCLE   17 ......................................
................................................................................
   1    -50.7401945 -0.507402E+02  0.103E-01    9.28       0.0  T
   2    -50.7401982 -0.366333E-05  0.763E-02    9.28       1.0  T
   3    -50.7402008 -0.265291E-05  0.120E-02    9.28       1.6  T
   4    -50.7402013 -0.489108E-06  0.438E-03    9.28       4.5  T
   5    -50.7402013 -0.244098E-07  0.117E-03    9.28      16.7  T
   6    -50.7402013 -0.247866E-08  0.677E-04    9.28      29.0  T
speedup  0.93
cpu  time for SCC    0.00 s
wall time for SCC    0.01 s
speedup  0.97
cpu  time for grad    0.01 s
wall time for grad    0.01 s
 E :    -50.45858411  G :  0.004449    pred/act E change: -0.481D-04 -0.682D-04
Maxdispl :   0.0503   ||displ|| :   0.1221   Lambda : -0.678D-04
Largest |displ|/coords:  0.0503 (   5)  0.0466 (   9)  0.0351 (  13)
................................................................................
.............................. CYCLE   18 ......................................
................................................................................
   1    -50.7401475 -0.507401E+02  0.674E-02    9.27       0.0  T
   2    -50.7401488 -0.133000E-05  0.504E-02    9.27       1.0  T
   3    -50.7401501 -0.131086E-05  0.791E-03    9.27       2.5  T
   4    -50.7401503 -0.132799E-06  0.298E-03    9.27       6.6  T
   5    -50.7401503 -0.108073E-07  0.808E-04    9.27      24.3  T
speedup  1.06
cpu  time for SCC    0.01 s
wall time for SCC    0.00 s
speedup  0.95
cpu  time for grad    0.01 s
wall time for grad    0.01 s
 E :    -50.45862365  G :  0.004574    pred/act E change: -0.670D-04 -0.395D-04
Maxdispl :   0.0382   ||displ|| :   0.1013   Lambda : -0.610D-04
Largest |displ|/coords:  0.0382 (   1)  0.0362 (   8)  0.0255 (   6)
................................................................................
.............................. CYCLE   19 ......................................
................................................................................
   1    -50.7409522 -0.507410E+02  0.574E-02    9.28       0.0  T
   2    -50.7409529 -0.749384E-06  0.426E-02    9.29       1.0  T
   3    -50.7409537 -0.793518E-06  0.680E-03    9.29       2.9  T
   4    -50.7409538 -0.571807E-07  0.205E-03    9.29       9.6  T
   5    -50.7409538 -0.622675E-08  0.657E-04    9.29      29.9  T
speedup  1.09
cpu  time for SCC    0.00 s
wall time for SCC    0.00 s
speedup  0.96
cpu  time for grad    0.01 s
wall time for grad    0.01 s
 E :    -50.45865200  G :  0.003890    pred/act E change: -0.344D-04 -0.284D-04
Maxdispl :   0.0385   ||displ|| :   0.0839   Lambda : -0.483D-04
Largest |displ|/coords:  0.0385 (   1)  0.0353 (   9)  0.0278 (   6)
................................................................................
.............................. CYCLE   20 ......................................
................................................................................
   1    -50.7408081 -0.507408E+02  0.518E-02    9.30       0.0  T
   2    -50.7408087 -0.620187E-06  0.385E-02    9.30       1.0  T
   3    -50.7408094 -0.698716E-06  0.634E-03    9.30       3.1  T
   4    -50.7408094 -0.435717E-07  0.131E-03    9.30      15.0  T
   5    -50.7408094 -0.288907E-08  0.591E-04    9.30      33.2  T
   6    -50.7408094 -0.412960E-09  0.274E-04    9.30      71.6  T
speedup  1.11
cpu  time for SCC    0.01 s
wall time for SCC    0.01 s
speedup  1.01
cpu  time for grad    0.01 s
wall time for grad    0.01 s
 E :    -50.45867950  G :  0.003672    pred/act E change: -0.308D-04 -0.275D-04
Maxdispl :   0.0345   ||displ|| :   0.0937   Lambda : -0.404D-04
Largest |displ|/coords:  0.0345 (  15)  0.0333 (   9)  0.0315 (   5)
................................................................................
.............................. CYCLE   21 ......................................
................................................................................
   1    -50.7404177 -0.507404E+02  0.568E-02    9.31       0.0  T
   2    -50.7404185 -0.798818E-06  0.424E-02    9.31       1.0  T
   3    -50.7404193 -0.788568E-06  0.704E-03    9.31       2.8  T
   4    -50.7404193 -0.853890E-07  0.186E-03    9.31      10.5  T
   5    -50.7404193 -0.513393E-08  0.638E-04    9.31      30.7  T
   6    -50.7404193 -0.514532E-09  0.346E-04    9.31      56.8  T
speedup  1.09
cpu  time for SCC    0.01 s
wall time for SCC    0.01 s
speedup  1.00
cpu  time for grad    0.01 s
wall time for grad    0.01 s
 E :    -50.45870029  G :  0.003419    pred/act E change: -0.243D-04 -0.208D-04
Maxdispl :   0.0260   ||displ|| :   0.0700   Lambda : -0.327D-04
Largest |displ|/coords:  0.0260 (   9)  0.0236 (   1)  0.0219 (   2)
................................................................................
.............................. CYCLE   22 ......................................
................................................................................
   1    -50.7408885 -0.507409E+02  0.401E-02    9.31       0.0  T
   2    -50.7408892 -0.639214E-06  0.297E-02    9.31       1.0  T
   3    -50.7408896 -0.417291E-06  0.690E-03    9.31       2.8  T
   4    -50.7408897 -0.868254E-07  0.153E-03    9.31      12.8  T
   5    -50.7408897 -0.408434E-08  0.515E-04    9.31      38.1  T
   6    -50.7408897 -0.320746E-09  0.283E-04    9.31      69.3  T
speedup  0.93
cpu  time for SCC    0.00 s
wall time for SCC    0.01 s
speedup  1.01
cpu  time for grad    0.01 s
wall time for grad    0.01 s
 E :    -50.45871709  G :  0.002756    pred/act E change: -0.204D-04 -0.168D-04
Maxdispl :   0.0311   ||displ|| :   0.0697   Lambda : -0.303D-04
Largest |displ|/coords:  0.0311 (   2)  0.0240 (   9)  0.0214 (   4)
................................................................................
.............................. CYCLE   23 ......................................
................................................................................
   1    -50.7412786 -0.507413E+02  0.341E-02    9.33       0.0  T
   2    -50.7412791 -0.456113E-06  0.253E-02    9.33       1.0  T
   3    -50.7412794 -0.292327E-06  0.546E-03    9.33       3.6  T
   4    -50.7412794 -0.608333E-07  0.136E-03    9.33      14.4  T
   5    -50.7412794 -0.320613E-08  0.459E-04    9.33      42.7  T
   6    -50.7412794 -0.334701E-09  0.264E-04    9.33      74.4  T
speedup  1.11
cpu  time for SCC    0.01 s
wall time for SCC    0.01 s
speedup  1.01
cpu  time for grad    0.01 s
wall time for grad    0.01 s
 E :    -50.45873409  G :  0.002484    pred/act E change: -0.164D-04 -0.170D-04
Maxdispl :   0.0328   ||displ|| :   0.0790   Lambda : -0.221D-04
Largest |displ|/coords:  0.0328 (   9)  0.0274 (   4)  0.0192 (  29)
................................................................................
.............................. CYCLE   24 ......................................
................................................................................
   1    -50.7403091 -0.507403E+02  0.467E-02    9.32       0.0  T
   2    -50.7403098 -0.715316E-06  0.351E-02    9.32       1.0  T
   3    -50.7403104 -0.596862E-06  0.570E-03    9.32       3.4  T
   4    -50.7403105 -0.970817E-07  0.191E-03    9.32      10.2  T
   5    -50.7403105 -0.535392E-08  0.591E-04    9.32      33.2  T
   6    -50.7403105 -0.479666E-09  0.318E-04    9.32      61.7  T
speedup  1.11
cpu  time for SCC    0.01 s
wall time for SCC    0.01 s
speedup  1.01
cpu  time for grad    0.01 s
wall time for grad    0.01 s
 E :    -50.45874452  G :  0.002431    pred/act E change: -0.152D-04 -0.104D-04
Maxdispl :   0.0328   ||displ|| :   0.0676   Lambda : -0.215D-04
Largest |displ|/coords:  0.0328 (   4)  0.0236 (   2)  0.0226 (   9)
................................................................................
.............................. CYCLE   25 ......................................
................................................................................
   1    -50.7411694 -0.507412E+02  0.333E-02    9.34       0.0  T
   2    -50.7411698 -0.388859E-06  0.250E-02    9.34       1.0  T
   3    -50.7411701 -0.276738E-06  0.376E-03    9.34       5.2  T
   4    -50.7411701 -0.568127E-07  0.125E-03    9.34      15.7  T
   5    -50.7411701 -0.236691E-08  0.439E-04    9.34      44.7  T
   6    -50.7411701 -0.246672E-09  0.250E-04    9.34      78.4  T
speedup  0.93
cpu  time for SCC    0.00 s
wall time for SCC    0.01 s
speedup  1.01
cpu  time for grad    0.01 s
wall time for grad    0.01 s
 E :    -50.45875482  G :  0.001967    pred/act E change: -0.111D-04 -0.103D-04
Maxdispl :   0.0158   ||displ|| :   0.0358   Lambda : -0.905D-05
Largest |displ|/coords:  0.0158 (   9)  0.0115 (  15)  0.0115 (  17)

generating ANC from model Hessian ...
 Shifting diagonal of input Hessian by   4.927439929165021E-003
 Lowest  eigenvalues of input Hessian
   -0.000000   -0.000000    0.000000    0.000000    0.000000    0.000000
    0.005000    0.005210    0.005683    0.005992    0.007188    0.007534
    0.008096    0.008690    0.008837    0.009558    0.010385    0.012661
 Highest eigenvalues
    1.394133    1.400031    1.416626    2.602441    3.508903    3.651278
 
cpu  time for ANC gen    0.02 s
wall time for ANC gen    0.02 s
................................................................................
.............................. CYCLE   26 ......................................
................................................................................
   1    -50.7410288 -0.507410E+02  0.230E-02    9.32       0.0  T
   2    -50.7410290 -0.152828E-06  0.171E-02    9.32       1.1  T
   3    -50.7410291 -0.134695E-06  0.259E-03    9.32       7.6  T
   4    -50.7410291 -0.171136E-07  0.121E-03    9.32      16.3  T
   5    -50.7410291 -0.141920E-08  0.243E-04    9.32      80.6  T
   6    -50.7410291 -0.855209E-10  0.154E-04    9.32     127.4  T
speedup  1.11
cpu  time for SCC    0.01 s
wall time for SCC    0.01 s
speedup  1.01
cpu  time for grad    0.01 s
wall time for grad    0.01 s
 E :    -50.45876096  G :  0.001709    pred/act E change:  0.000D+00 -0.614D-05
Maxdispl :   0.0060   ||displ|| :   0.0129   Lambda : -0.567D-05
Largest |displ|/coords:  0.0060 (   1)  0.0044 (   4)  0.0043 (  10)
................................................................................
.............................. CYCLE   27 ......................................
................................................................................
   1    -50.7410492 -0.507410E+02  0.923E-03    9.33       0.0  T
   2    -50.7410493 -0.396529E-07  0.675E-03    9.33       2.9  T
   3    -50.7410493 -0.220273E-07  0.134E-03    9.33      14.7  T
   4    -50.7410493 -0.448310E-08  0.395E-04    9.33      49.7  T
   5    -50.7410493 -0.167390E-09  0.954E-05    9.33     205.6  T
speedup  0.89
cpu  time for SCC    0.00 s
wall time for SCC    0.00 s
speedup  1.00
cpu  time for grad    0.01 s
wall time for grad    0.01 s
 E :    -50.45876500  G :  0.000935    pred/act E change:  0.000D+00 -0.404D-05
Maxdispl :   0.0156   ||displ|| :   0.0273   Lambda : -0.637D-05
Largest |displ|/coords:  0.0156 (   4)  0.0122 (   1)  0.0102 (   9)
................................................................................
.............................. CYCLE   28 ......................................
................................................................................
   1    -50.7411157 -0.507411E+02  0.170E-02    9.33       0.0  T
   2    -50.7411159 -0.119605E-06  0.124E-02    9.33       1.6  T
   3    -50.7411159 -0.669200E-07  0.245E-03    9.33       8.0  T
   4    -50.7411159 -0.134642E-07  0.705E-04    9.33      27.8  T
   5    -50.7411159 -0.536467E-09  0.165E-04    9.33     119.1  T
speedup  0.89
cpu  time for SCC    0.00 s
wall time for SCC    0.00 s
speedup  1.00
cpu  time for grad    0.01 s
wall time for grad    0.01 s
 E :    -50.45876777  G :  0.000802    pred/act E change: -0.283D-05 -0.277D-05
Maxdispl :   0.0123   ||displ|| :   0.0201   Lambda : -0.329D-05
Largest |displ|/coords:  0.0123 (   1)  0.0088 (   6)  0.0085 (   9)
................................................................................
.............................. CYCLE   29 ......................................
................................................................................
   1    -50.7411774 -0.507412E+02  0.103E-02    9.33       0.0  T
   2    -50.7411775 -0.327929E-07  0.746E-03    9.33       2.6  T
   3    -50.7411775 -0.205000E-07  0.129E-03    9.33      15.2  T
   4    -50.7411775 -0.323001E-08  0.369E-04    9.33      53.1  T
   5    -50.7411775 -0.156938E-09  0.936E-05    9.33     209.5  T
speedup  1.06
cpu  time for SCC    0.01 s
wall time for SCC    0.00 s
speedup  1.06
cpu  time for grad    0.01 s
wall time for grad    0.01 s
 E :    -50.45876982  G :  0.000846    pred/act E change: -0.319D-05 -0.205D-05
Maxdispl :   0.0139   ||displ|| :   0.0218   Lambda : -0.235D-05
Largest |displ|/coords:  0.0139 (   1)  0.0097 (   9)  0.0097 (   4)
................................................................................
.............................. CYCLE   30 ......................................
................................................................................
   1    -50.7412279 -0.507412E+02  0.110E-02    9.33       0.0  T
   2    -50.7412279 -0.263469E-07  0.805E-03    9.33       2.4  T
   3    -50.7412279 -0.193882E-07  0.127E-03    9.33      15.5  T
   4    -50.7412279 -0.245103E-08  0.303E-04    9.33      64.7  T
   5    -50.7412279 -0.115243E-09  0.861E-05    9.33     227.9  T
speedup  1.09
cpu  time for SCC    0.00 s
wall time for SCC    0.00 s
speedup  1.08
cpu  time for grad    0.01 s
wall time for grad    0.01 s
 E :    -50.45877166  G :  0.000622    pred/act E change: -0.165D-05 -0.184D-05
Maxdispl :   0.0283   ||displ|| :   0.0427   Lambda : -0.322D-05
Largest |displ|/coords:  0.0283 (   1)  0.0193 (   4)  0.0167 (   9)
................................................................................
.............................. CYCLE   31 ......................................
................................................................................
   1    -50.7412714 -0.507413E+02  0.214E-02    9.33       0.0  T
   2    -50.7412715 -0.774723E-07  0.158E-02    9.33       1.2  T
   3    -50.7412716 -0.652043E-07  0.222E-03    9.33       8.8  T
   4    -50.7412716 -0.698006E-08  0.641E-04    9.33      30.6  T
   5    -50.7412716 -0.532388E-09  0.184E-04    9.33     106.6  T
speedup  1.06
cpu  time for SCC    0.00 s
wall time for SCC    0.00 s
speedup  0.99
cpu  time for grad    0.01 s
wall time for grad    0.01 s
 E :    -50.45877376  G :  0.000593    pred/act E change: -0.117D-05 -0.211D-05
Maxdispl :   0.0209   ||displ|| :   0.0303   Lambda : -0.157D-05
Largest |displ|/coords:  0.0209 (   1)  0.0122 (   4)  0.0089 (   9)
................................................................................
.............................. CYCLE   32 ......................................
................................................................................
   1    -50.7412823 -0.507413E+02  0.149E-02    9.32       0.0  T
   2    -50.7412823 -0.353078E-07  0.111E-02    9.32       1.8  T
   3    -50.7412823 -0.268115E-07  0.140E-03    9.32      14.0  T
   4    -50.7412824 -0.424435E-08  0.492E-04    9.32      39.8  T
   5    -50.7412824 -0.226791E-09  0.115E-04    9.32     170.2  T
speedup  1.09
cpu  time for SCC    0.01 s
wall time for SCC    0.00 s
speedup  0.99
cpu  time for grad    0.01 s
wall time for grad    0.01 s
 E :    -50.45877502  G :  0.000575    pred/act E change: -0.161D-05 -0.126D-05
Maxdispl :   0.0398   ||displ|| :   0.0562   Lambda : -0.287D-05
Largest |displ|/coords:  0.0398 (   1)  0.0183 (   4)  0.0155 (   5)
................................................................................
.............................. CYCLE   33 ......................................
................................................................................
   1    -50.7412658 -0.507413E+02  0.273E-02    9.32       0.0  T
   2    -50.7412659 -0.130661E-06  0.203E-02    9.32       1.0  T
   3    -50.7412660 -0.794747E-07  0.251E-03    9.32       7.8  T
   4    -50.7412660 -0.202405E-07  0.852E-04    9.32      23.0  T
   5    -50.7412660 -0.545739E-09  0.207E-04    9.32      94.5  T
speedup  1.09
cpu  time for SCC    0.00 s
wall time for SCC    0.00 s
speedup  1.00
cpu  time for grad    0.01 s
wall time for grad    0.01 s
 E :    -50.45877702  G :  0.000640    pred/act E change: -0.785D-06 -0.200D-05
Maxdispl :   0.0297   ||displ|| :   0.0416   Lambda : -0.200D-05
Largest |displ|/coords:  0.0297 (   1)  0.0130 (   5)  0.0120 (   3)
................................................................................
.............................. CYCLE   34 ......................................
................................................................................
   1    -50.7412660 -0.507413E+02  0.205E-02    9.32       0.0  T
   2    -50.7412661 -0.807401E-07  0.153E-02    9.32       1.3  T
   3    -50.7412662 -0.385547E-07  0.198E-03    9.32       9.9  T
   4    -50.7412662 -0.141297E-07  0.643E-04    9.32      30.5  T
   5    -50.7412662 -0.322487E-09  0.144E-04    9.32     136.3  T
speedup  1.11
cpu  time for SCC    0.00 s
wall time for SCC    0.00 s
speedup  1.00
cpu  time for grad    0.01 s
wall time for grad    0.01 s
 E :    -50.45877852  G :  0.000759    pred/act E change: -0.144D-05 -0.150D-05
Maxdispl :   0.0295   ||displ|| :   0.0413   Lambda : -0.209D-05
Largest |displ|/coords:  0.0295 (   1)  0.0132 (   5)  0.0132 (   3)
................................................................................
.............................. CYCLE   35 ......................................
................................................................................
   1    -50.7412901 -0.507413E+02  0.218E-02    9.32       0.0  T
   2    -50.7412902 -0.819311E-07  0.162E-02    9.32       1.2  T
   3    -50.7412902 -0.413400E-07  0.215E-03    9.32       9.1  T
   4    -50.7412902 -0.135162E-07  0.748E-04    9.32      26.2  T
   5    -50.7412902 -0.407461E-09  0.146E-04    9.32     134.3  T
speedup  0.89
cpu  time for SCC    0.00 s
wall time for SCC    0.00 s
speedup  1.00
cpu  time for grad    0.01 s
wall time for grad    0.01 s
 E :    -50.45878000  G :  0.000804    pred/act E change: -0.100D-05 -0.149D-05
Maxdispl :   0.0210   ||displ|| :   0.0297   Lambda : -0.155D-05
Largest |displ|/coords:  0.0210 (   1)  0.0095 (   3)  0.0095 (   5)
................................................................................
.............................. CYCLE   36 ......................................
................................................................................
   1    -50.7413302 -0.507413E+02  0.179E-02    9.32       0.0  T
   2    -50.7413303 -0.457761E-07  0.133E-02    9.32       1.5  T
   3    -50.7413303 -0.300814E-07  0.178E-03    9.32      11.0  T
   4    -50.7413303 -0.607981E-08  0.632E-04    9.32      31.0  T
   5    -50.7413303 -0.320618E-09  0.109E-04    9.32     179.1  T
speedup  1.09
cpu  time for SCC    0.01 s
wall time for SCC    0.00 s
speedup  1.00
cpu  time for grad    0.01 s
wall time for grad    0.01 s
 E :    -50.45878114  G :  0.000669    pred/act E change: -0.105D-05 -0.114D-05
Maxdispl :   0.0169   ||displ|| :   0.0238   Lambda : -0.131D-05
Largest |displ|/coords:  0.0169 (   1)  0.0076 (  37)  0.0074 (   3)
................................................................................
.............................. CYCLE   37 ......................................
................................................................................
   1    -50.7413660 -0.507414E+02  0.162E-02    9.33       0.0  T
   2    -50.7413661 -0.377616E-07  0.121E-02    9.33       1.6  T
   3    -50.7413661 -0.282094E-07  0.162E-03    9.33      12.1  T
   4    -50.7413661 -0.451403E-08  0.568E-04    9.33      34.5  T
   5    -50.7413661 -0.275435E-09  0.998E-05    9.33     196.4  T
speedup  1.11
cpu  time for SCC    0.00 s
wall time for SCC    0.00 s
speedup  1.00
cpu  time for grad    0.01 s
wall time for grad    0.01 s
 E :    -50.45878207  G :  0.000441    pred/act E change: -0.777D-06 -0.929D-06
Maxdispl :   0.0086   ||displ|| :   0.0138   Lambda : -0.873D-06
Largest |displ|/coords:  0.0086 (   1)  0.0056 (  37)  0.0040 (   2)
................................................................................
.............................. CYCLE   38 ......................................
................................................................................
   1    -50.7413954 -0.507414E+02  0.112E-02    9.33       0.0  T
   2    -50.7413955 -0.233149E-07  0.835E-03    9.33       2.3  T
   3    -50.7413955 -0.160903E-07  0.120E-03    9.33      16.3  T
   4    -50.7413955 -0.320594E-08  0.423E-04    9.33      46.3  T
   5    -50.7413955 -0.143437E-09  0.737E-05    9.33     266.1  T
speedup  1.11
cpu  time for SCC    0.01 s
wall time for SCC    0.00 s
speedup  1.06
cpu  time for grad    0.01 s
wall time for grad    0.01 s
 E :    -50.45878269  G :  0.000364    pred/act E change: -0.658D-06 -0.625D-06
Maxdispl :   0.0048   ||displ|| :   0.0106   Lambda : -0.660D-06
Largest |displ|/coords:  0.0048 (  37)  0.0045 (   2)  0.0044 (   1)
................................................................................
.............................. CYCLE   39 ......................................
................................................................................
   1    -50.7413986 -0.507414E+02  0.947E-03    9.33       0.0  T
   2    -50.7413986 -0.175202E-07  0.709E-03    9.33       2.8  T
   3    -50.7413986 -0.120459E-07  0.106E-03    9.33      18.6  T
   4    -50.7413986 -0.245682E-08  0.360E-04    9.33      54.5  T
   5    -50.7413986 -0.848885E-10  0.555E-05    9.33     353.2  T
speedup  0.87
cpu  time for SCC    0.00 s
wall time for SCC    0.00 s
speedup  0.99
cpu  time for grad    0.01 s
wall time for grad    0.01 s
 E :    -50.45878317  G :  0.000414    pred/act E change: -0.437D-06 -0.481D-06
Maxdispl :   0.0053   ||displ|| :   0.0116   Lambda : -0.633D-06
Largest |displ|/coords:  0.0053 (   2)  0.0049 (  37)  0.0048 (   7)
................................................................................
.............................. CYCLE   40 ......................................
................................................................................
   1    -50.7413924 -0.507414E+02  0.107E-02    9.32       0.0  T
   2    -50.7413924 -0.202536E-07  0.801E-03    9.32       2.4  T
   3    -50.7413924 -0.149685E-07  0.121E-03    9.32      16.2  T
   4    -50.7413924 -0.266914E-08  0.384E-04    9.32      51.1  T
   5    -50.7413924 -0.976073E-10  0.565E-05    9.32     346.9  T
speedup  0.87
cpu  time for SCC    0.00 s
wall time for SCC    0.00 s
speedup  0.99
cpu  time for grad    0.01 s
wall time for grad    0.01 s
 E :    -50.45878365  G :  0.000446    pred/act E change: -0.330D-06 -0.476D-06
Maxdispl :   0.0070   ||displ|| :   0.0163   Lambda : -0.771D-06
Largest |displ|/coords:  0.0070 (  37)  0.0061 (   9)  0.0061 (   2)
................................................................................
.............................. CYCLE   41 ......................................
................................................................................
   1    -50.7413538 -0.507414E+02  0.157E-02    9.32       0.0  T
   2    -50.7413538 -0.393089E-07  0.117E-02    9.32       1.7  T
   3    -50.7413538 -0.299757E-07  0.178E-03    9.32      11.0  T
   4    -50.7413538 -0.480568E-08  0.545E-04    9.32      36.0  T
   5    -50.7413538 -0.251951E-09  0.800E-05    9.32     245.1  T
speedup  1.09
cpu  time for SCC    0.00 s
wall time for SCC    0.00 s
speedup  0.99
cpu  time for grad    0.01 s
wall time for grad    0.01 s
 E :    -50.45878423  G :  0.000437    pred/act E change: -0.317D-06 -0.579D-06
Maxdispl :   0.0105   ||displ|| :   0.0228   Lambda : -0.910D-06
Largest |displ|/coords:  0.0105 (   9)  0.0086 (   1)  0.0079 (  37)
................................................................................
.............................. CYCLE   42 ......................................
................................................................................
   1    -50.7413294 -0.507413E+02  0.198E-02    9.32       0.0  T
   2    -50.7413294 -0.622163E-07  0.148E-02    9.32       1.3  T
   3    -50.7413295 -0.484815E-07  0.221E-03    9.32       8.9  T
   4    -50.7413295 -0.735673E-08  0.666E-04    9.32      29.4  T
   5    -50.7413295 -0.445482E-09  0.103E-04    9.32     189.8  T
speedup  1.09
cpu  time for SCC    0.00 s
wall time for SCC    0.00 s
speedup  0.98
cpu  time for grad    0.01 s
wall time for grad    0.01 s
 E :    -50.45878491  G :  0.000425    pred/act E change: -0.385D-06 -0.677D-06
Maxdispl :   0.0107   ||displ|| :   0.0237   Lambda : -0.945D-06
Largest |displ|/coords:  0.0107 (   9)  0.0098 (  37)  0.0088 (   8)
................................................................................
.............................. CYCLE   43 ......................................
................................................................................
   1    -50.7412675 -0.507413E+02  0.229E-02    9.32       0.0  T
   2    -50.7412676 -0.827623E-07  0.171E-02    9.32       1.1  T
   3    -50.7412676 -0.605828E-07  0.267E-03    9.32       7.4  T
   4    -50.7412676 -0.980766E-08  0.809E-04    9.32      24.2  T
   5    -50.7412676 -0.688118E-09  0.109E-04    9.32     179.4  T
speedup  1.09
cpu  time for SCC    0.00 s
wall time for SCC    0.00 s
speedup  1.06
cpu  time for grad    0.01 s
wall time for grad    0.01 s
 E :    -50.45878558  G :  0.000429    pred/act E change: -0.455D-06 -0.676D-06
Maxdispl :   0.0167   ||displ|| :   0.0256   Lambda : -0.837D-06
Largest |displ|/coords:  0.0167 (   1)  0.0110 (   9)  0.0083 (   8)
................................................................................
.............................. CYCLE   44 ......................................
................................................................................
   1    -50.7413100 -0.507413E+02  0.179E-02    9.32       0.0  T
   2    -50.7413101 -0.512633E-07  0.133E-02    9.32       1.5  T
   3    -50.7413101 -0.411272E-07  0.196E-03    9.32      10.0  T
   4    -50.7413101 -0.520063E-08  0.593E-04    9.32      33.1  T
   5    -50.7413101 -0.415454E-09  0.110E-04    9.32     178.3  T
speedup  0.87
cpu  time for SCC    0.00 s
wall time for SCC    0.00 s
speedup  0.99
cpu  time for grad    0.01 s
wall time for grad    0.01 s
 E :    -50.45878615  G :  0.000395    pred/act E change: -0.473D-06 -0.564D-06
Maxdispl :   0.0076   ||displ|| :   0.0142   Lambda : -0.566D-06
Largest |displ|/coords:  0.0076 (  37)  0.0052 (   8)  0.0049 (  24)
................................................................................
.............................. CYCLE   45 ......................................
................................................................................
   1    -50.7412886 -0.507413E+02  0.158E-02    9.32       0.0  T
   2    -50.7412886 -0.409818E-07  0.117E-02    9.32       1.7  T
   3    -50.7412887 -0.253078E-07  0.195E-03    9.32      10.1  T
   4    -50.7412887 -0.517093E-08  0.610E-04    9.32      32.2  T
   5    -50.7412887 -0.340314E-09  0.765E-05    9.32     256.4  T
speedup  0.85
cpu  time for SCC    0.00 s
wall time for SCC    0.00 s
speedup  0.98
cpu  time for grad    0.01 s
wall time for grad    0.01 s
 E :    -50.45878652  G :  0.000344    pred/act E change: -0.419D-06 -0.370D-06
Maxdispl :   0.0096   ||displ|| :   0.0133   Lambda : -0.426D-06
Largest |displ|/coords:  0.0096 (   1)  0.0041 (   4)  0.0039 (   3)
................................................................................
.............................. CYCLE   46 ......................................
................................................................................
   1    -50.7413583 -0.507414E+02  0.712E-03    9.33       0.0  T
   2    -50.7413583 -0.808840E-08  0.525E-03    9.33       3.7  T
   3    -50.7413583 -0.638377E-08  0.691E-04    9.33      28.4  T
   4    -50.7413583 -0.634216E-09  0.268E-04    9.33      73.2  T
speedup  1.05
cpu  time for SCC    0.00 s
wall time for SCC    0.00 s
speedup  0.98
cpu  time for grad    0.01 s
wall time for grad    0.01 s
 E :    -50.45878680  G :  0.000242    pred/act E change: -0.283D-06 -0.283D-06
Maxdispl :   0.0040   ||displ|| :   0.0089   Lambda : -0.288D-06
Largest |displ|/coords:  0.0040 (  37)  0.0029 (   1)  0.0028 (   2)
................................................................................
.............................. CYCLE   47 ......................................
................................................................................
   1    -50.7413576 -0.507414E+02  0.839E-03    9.33       0.0  T
   2    -50.7413576 -0.113872E-07  0.622E-03    9.33       3.2  T
   3    -50.7413576 -0.614939E-08  0.101E-03    9.33      19.4  T
   4    -50.7413576 -0.158971E-08  0.324E-04    9.33      60.5  T
   5    -50.7413576 -0.819753E-10  0.462E-05    9.33     424.8  T
speedup  1.09
cpu  time for SCC    0.00 s
wall time for SCC    0.00 s
speedup  1.00
cpu  time for grad    0.01 s
wall time for grad    0.01 s
 E :    -50.45878701  G :  0.000219    pred/act E change: -0.213D-06 -0.208D-06
Maxdispl :   0.0067   ||displ|| :   0.0130   Lambda : -0.292D-06
Largest |displ|/coords:  0.0067 (   1)  0.0065 (   3)  0.0047 (   2)
................................................................................
.............................. CYCLE   48 ......................................
................................................................................
   1    -50.7413469 -0.507413E+02  0.782E-03    9.33       0.0  T
   2    -50.7413469 -0.887896E-08  0.578E-03    9.33       3.4  T
   3    -50.7413469 -0.461797E-08  0.852E-04    9.33      23.0  T
   4    -50.7413469 -0.127018E-08  0.259E-04    9.33      75.6  T
speedup  1.05
cpu  time for SCC    0.00 s
wall time for SCC    0.00 s
speedup  0.98
cpu  time for grad    0.01 s
wall time for grad    0.01 s
 E :    -50.45878720  G :  0.000212    pred/act E change: -0.144D-06 -0.198D-06
Maxdispl :   0.0055   ||displ|| :   0.0099   Lambda : -0.160D-06
Largest |displ|/coords:  0.0055 (   3)  0.0050 (   1)  0.0034 (   2)
................................................................................
.............................. CYCLE   49 ......................................
................................................................................
   1    -50.7413205 -0.507413E+02  0.547E-03    9.33       0.0  T
   2    -50.7413205 -0.404467E-08  0.405E-03    9.33       4.8  T
   3    -50.7413205 -0.172230E-08  0.597E-04    9.33      32.9  T
   4    -50.7413205 -0.701846E-09  0.136E-04    9.33     144.4  T
speedup  1.05
cpu  time for SCC    0.00 s
wall time for SCC    0.00 s
speedup  1.05
cpu  time for grad    0.01 s
wall time for grad    0.01 s
 E :    -50.45878733  G :  0.000180    pred/act E change: -0.146D-06 -0.120D-06
Maxdispl :   0.0077   ||displ|| :   0.0130   Lambda : -0.165D-06
Largest |displ|/coords:  0.0077 (   3)  0.0067 (   1)  0.0046 (   2)
................................................................................
.............................. CYCLE   50 ......................................
................................................................................
   1    -50.7412837 -0.507413E+02  0.655E-03    9.32       0.0  T
   2    -50.7412837 -0.567005E-08  0.486E-03    9.32       4.0  T
   3    -50.7412837 -0.266390E-08  0.661E-04    9.32      29.6  T
   4    -50.7412837 -0.101856E-08  0.135E-04    9.32     145.1  T
speedup  1.08
cpu  time for SCC    0.00 s
wall time for SCC    0.00 s
speedup  0.98
cpu  time for grad    0.01 s
wall time for grad    0.01 s
 E :    -50.45878744  G :  0.000151    pred/act E change: -0.799D-07 -0.114D-06
Maxdispl :   0.0052   ||displ|| :   0.0085   Lambda : -0.874D-07
Largest |displ|/coords:  0.0052 (   3)  0.0042 (   1)  0.0028 (   2)
................................................................................
.............................. CYCLE   51 ......................................
................................................................................
   1    -50.7412653 -0.507413E+02  0.429E-03    9.32       0.0  T
   2    -50.7412653 -0.278380E-08  0.319E-03    9.32       6.1  T
   3    -50.7412653 -0.124715E-08  0.410E-04    9.32      47.9  T
   4    -50.7412653 -0.525006E-09  0.965E-05    9.32     203.2  T
speedup  1.08
cpu  time for SCC    0.00 s
wall time for SCC    0.00 s
speedup  0.98
cpu  time for grad    0.01 s
wall time for grad    0.01 s
 E :    -50.45878751  G :  0.000134    pred/act E change: -0.827D-07 -0.681D-07
Maxdispl :   0.0053   ||displ|| :   0.0084   Lambda : -0.792D-07
Largest |displ|/coords:  0.0053 (   3)  0.0038 (   1)  0.0026 (   2)

   *** GEOMETRY OPTIMIZATION CONVERGED AFTER 51 ITERATIONS ***

------------------------------------------------------------------------
 total energy gain (kcal):     -0.0167
------------------------------------------------------------------------
================
 final structure:
================
$coord
        1.79880834564078        1.01108069827677       -3.40720360722510      S 
        0.33560852944372        3.27638812040701       -2.83897535216745      O 
        4.34741813032242        1.14954179890518       -2.41277076977002      O 
        0.48777035881631       -1.28139850754308       -2.70572718059864      O 
        2.08128063455949        0.93560811187759       -6.38856960417375      O 
        3.27761686731445        2.25059979043100       -6.65356718173472      H 
       -4.63900402663130        2.90216174134403       -2.67002944807485      O 
       -2.79423738321034        2.96506536631965       -2.88633796489274      H 
       -5.22022847353602        4.60492644339531       -2.87903925871291      H 
        0.23070874147719        2.61758631809345        2.18794707624807      O 
        0.35765164788710        3.11985457401070        0.42043504950043      H 
        1.66692609813904        1.51941284803961        2.49254679416074      H 
       -4.39828320232651        0.76861418193207        1.86107227412674      O 
       -4.86212515544012        1.58014623238873        0.24794992522677      H 
       -2.77545313408561        1.57260846967922        2.32110698033782      H 
        4.40720415988209       -0.55409524227864        2.16857107324931      O 
        4.44001154592603       -0.07990530607693        0.35530194557815      H 
        5.96226554789204        0.07222384297887        2.85735238930578      H 
       -2.63344169348749       -3.28424550682448        0.31858489443981      O 
       -1.53732826244936       -2.60460386392700       -1.08128665702531      H 
       -1.31673461664022       -3.80106860127979        1.73813462269971      H 
       -3.57840192140354       -1.61972278420123        1.03101815561437      H 
        0.69933591588300       -4.24594638922473        3.66521097982748      N 
        2.14088248665268       -3.08515333613401        3.12027121940629      H 
        1.35465720367482       -6.04109273394984        3.70447570724828      H 
        0.16709169349914       -3.74858630442824        5.43352791850867      H 
$end
 
 Bond Distances (Angstroems)
 ---------------------------
S1-O2=1.4584         S1-O3=1.4495         S1-O4=1.4460         S1-O5=1.5852         O2-S1=1.4584         O3-S1=1.4495         
O4-S1=1.4460         O5-S1=1.5852         O5-H6=0.9511         H6-O5=0.9511         O7-H8=0.9835         O7-H9=0.9585         
H8-O7=0.9835         H9-O7=0.9585         O10-H11=0.9747       O10-H12=0.9702       H11-O10=0.9747       H12-O10=0.9702       
O13-H14=0.9866       O13-H15=0.9888       H14-O13=0.9866       H15-O13=0.9888       O16-H17=0.9920       O16-H18=0.9591       
H17-O16=0.9920       H18-O16=0.9591       O19-H20=1.0072       O19-H21=1.0605       O19-H22=1.0808       H20-O19=1.0072       
H21-O19=1.0605       H22-O19=1.0808       N23-H24=1.0210       N23-H25=1.0115       N23-H26=1.0120       H24-N23=1.0210       
H25-N23=1.0115       H26-N23=1.0120       
 N  H  Rav=1.0148 sigma=0.0043  Rmin=1.0115  Rmax=1.0210     3
 O  H  Rav=0.9927 sigma=0.0382  Rmin=0.9511  Rmax=1.0808    12
 S  O  Rav=1.4848 sigma=0.0582  Rmin=1.4460  Rmax=1.5852     4
 
 selected bond angles (degree)
 --------------------
O3-S1-O2=112.18                O4-S1-O2=112.45                O4-S1-O3=113.30                O5-S1-O2=106.02                
O5-S1-O3=105.95                O5-S1-O4=106.24                H6-O5-S1=101.01                H9-O7-H8=105.86                
H12-O10-H11=105.59             
 
 selected dihedral angles (degree)
 ---------------------------------
H6-O5-S1-O2= 73.35            H6-O5-S1-O3=313.97            H6-O5-S1-O4=193.19            
 
 CMA Distance (Angstroems)
 ---------------------------
R(CMA):  3.0078

========================================================================
 FINAL SINGLEPOINT CALCULATION ON OPTIMIZED GEOMETRY
========================================================================

 Ncao       : 65
 Nao        : 64
 Nshell     : 38
 Nel        : 80
 T(el)      :   300.0
 intcut     :    25.0
 scfconv/Eh :  0.100E-05
   qconv/e  :  0.100E-03
 intneglect :  0.100E-07
 broydamp   :      0.250
 iter      E             dE          RMSdq      gap      omega  full diag
   1    -50.7412653 -0.507413E+02  0.274E-05    9.32       0.0  T
   2    -50.7412653 -0.124345E-11  0.179E-05    9.32    1094.7  T
   3    -50.7412653 -0.582645E-12  0.522E-06    9.32    3755.9  T
speedup  1.07
cpu  time for SCC    0.00 s
wall time for SCC    0.00 s

   *** convergence criteria satisfied after 3 iterations ***

          eigenvalues
 #    :          28         29         30         31         32         33         34         35
 occ. :        2.000      2.000      2.000      2.000      2.000      2.000      2.000      2.000
 eps  :       -13.455    -13.282    -12.432    -12.231    -12.195    -12.186    -12.151    -11.965
 #    :          36         37         38         39         40         41         42         43
 occ. :        2.000      2.000      2.000      2.000      2.000      0.000      0.000      0.000
 eps  :       -11.880    -11.850    -11.838    -11.722    -11.659     -2.335     -0.477     -0.294
 #    :          44         45         46         47         48         49         50         51
 occ. :        0.000      0.000      0.000      0.000      0.000      0.000      0.000      0.000
 eps  :         0.831      1.153      1.495      2.025      3.147      4.024      4.129      5.081


   #   Z            q   n(s)   n(p)   n(d)      C6AA      α(0)
   1  16 S      1.686  1.580  1.777  0.957    89.087    15.886
   2   8 O     -0.755  1.776  4.979  0.000    30.264     7.376
   3   8 O     -0.744  1.773  4.971  0.000    29.946     7.337
   4   8 O     -0.726  1.750  4.976  0.000    29.410     7.271
   5   8 O     -0.589  1.752  4.837  0.000    24.901     6.737
   6   1 H      0.343  0.657  0.000  0.000     0.596     1.208
   7   8 O     -0.612  1.745  4.867  0.000    25.471     6.811
   8   1 H      0.326  0.674  0.000  0.000     0.648     1.265
   9   1 H      0.286  0.714  0.000  0.000     0.765     1.374
  10   8 O     -0.638  1.749  4.890  0.000    26.124     6.898
  11   1 H      0.309  0.691  0.000  0.000     0.695     1.309
  12   1 H      0.310  0.690  0.000  0.000     0.691     1.306
  13   8 O     -0.611  1.764  4.847  0.000    25.399     6.804
  14   1 H      0.340  0.660  0.000  0.000     0.613     1.230
  15   1 H      0.341  0.659  0.000  0.000     0.611     1.228
  16   8 O     -0.632  1.746  4.886  0.000    25.968     6.878
  17   1 H      0.332  0.668  0.000  0.000     0.632     1.249
  18   1 H      0.289  0.711  0.000  0.000     0.755     1.364
  19   8 O     -0.515  1.728  4.787  0.000    23.155     6.499
  20   1 H      0.385  0.615  0.000  0.000     0.513     1.125
  21   1 H      0.355  0.645  0.000  0.000     0.567     1.178
  22   1 H      0.387  0.613  0.000  0.000     0.503     1.111
  23   7 N     -0.429  1.345  4.084  0.000    31.191     8.295
  24   1 H      0.220  0.780  0.000  0.000     1.011     1.575
  25   1 H      0.170  0.830  0.000  0.000     1.273     1.768
  26   1 H      0.174  0.826  0.000  0.000     1.248     1.750

 Mol. C6AA /au·bohr⁶  :       5468.557400
 Mol. C8AA /au·bohr⁸  :     118212.180165
 Mol. α(0) /au        :        106.831302

 
 Wiberg/Mayer (AO) data. WBOs > 0.1 written file <wbo>
 largest (>0.05) Wiberg bond orders for each atom
           total WBO             WBO to atom ...
     1  S   4.860    O    4 1.342    O    3 1.316    O    2 1.270    O    5 0.889
     2  O   1.723    S    1 1.270    O    4 0.110    O    3 0.106    O    5 0.074    H    8 0.064
     3  O   1.726    S    1 1.316    O    4 0.107    O    2 0.106    H   17 0.081    O    5 0.075
     4  O   1.742    S    1 1.342    O    2 0.110    O    3 0.107    H   20 0.090    O    5 0.060
     5  O   1.970    S    1 0.889    H    6 0.867    O    3 0.075    O    2 0.074    O    4 0.060
     6  H   0.882    O    5 0.867
     7  O   1.871    H    9 0.915    H    8 0.827    H   14 0.067
     8  H   0.894    O    7 0.827    O    2 0.064
     9  H   0.918    O    7 0.915
    10  O   1.859    H   12 0.856    H   11 0.850    H   15 0.069
    11  H   0.904    O   10 0.850
    12  H   0.904    O   10 0.856
    13  O   2.007    H   14 0.816    H   15 0.812    H   22 0.232    O   19 0.076
    14  H   0.885    O   13 0.816    O    7 0.067
    15  H   0.884    O   13 0.812    O   10 0.069
    16  O   1.857    H   18 0.909    H   17 0.802
    17  H   0.890    O   16 0.802    O    3 0.081
    18  H   0.916    O   16 0.909
    19  O   2.230    H   20 0.753    H   21 0.659    H   22 0.616    N   23 0.078    O   13 0.076
    20  H   0.852    O   19 0.753    O    4 0.090
    21  H   0.874    O   19 0.659    N   23 0.212
    22  H   0.850    O   19 0.616    O   13 0.232
    23  N   3.170    H   25 0.969    H   26 0.967    H   24 0.919    H   21 0.212    O   19 0.078
    24  H   0.952    N   23 0.919
    25  H   0.971    N   23 0.969
    26  H   0.970    N   23 0.967
 MOs/occ written to file <molden.input>
 
molecular dipole:
                 x           y           z       tot (Debye)
 q only:       -0.156      -1.078       1.456
   full:        0.989      -0.437       0.913       3.597
molecular quadrupole (traceless):
                xx          xy          yy          xz          yz          zz
 q only:       -3.598      -1.939       4.516       2.839     -11.387      -0.918
  q+dip:       -5.441      -4.359       4.104       3.713     -16.148       1.338
   full:       -5.485      -4.359       3.752       3.542     -16.497       1.732

SCC energy    :     -50.7412653
rep           :       0.2821626
ES            :       0.2495782
AES           :      -0.0721401
AXC           :      -0.0072640
disp          :      -0.0190248
XB            :       0.0000000
fix           :       0.0000000
total E       :     -50.4587875
atomizationE  :       4.9890917     3130.70
(atE without considering molecular charge,
 total energy contains solvation terms)
H-L gap (eV)  :          9.3232
optimized geometry written to: xtbopt.xyz


------------------------------------------------------------------------
 * finished run on 2019/09/16 at 11:23:39.659     
------------------------------------------------------------------------
 total:
 * wall-time:     0 d,  0 h,  0 min,  1.329 sec
 *  cpu-time:     0 d,  0 h,  0 min,  1.315 sec
 * ratio c/w:     0.989 speedup
 SCF:
 * wall-time:     0 d,  0 h,  0 min,  0.144 sec
 *  cpu-time:     0 d,  0 h,  0 min,  0.141 sec
 * ratio c/w:     0.977 speedup
 ANC optimizer:
 * wall-time:     0 d,  0 h,  0 min,  1.160 sec
 *  cpu-time:     0 d,  0 h,  0 min,  1.152 sec
 * ratio c/w:     0.993 speedup

