      -----------------------------------------------------------      
     |                   =====================                   |     
     |                           x T B                           |     
     |                   =====================                   |     
     |                         S. Grimme                         |     
     |          Mulliken Center for Theoretical Chemistry        |     
     |                    University of Bonn                     |     
     |                 Version 6.0.1 (SAW181210)                 |     
      -----------------------------------------------------------      

   This program is distributed in the hope that it will be useful,
   but WITHOUT ANY WARRANTY; without even the implied warranty of
   MERCHANTABILITY or FITNESS FOR A PARTICULAR PURPOSE.
   
   FOR NON-COMMERCIAL, ACADEMIA USE ONLY.
   
   Cite this work as:
   S. Grimme, C. Bannwarth, P. Shushkov, J. Comput. Theory Chem., 2017,
   13, 1989-2009.
   C. Bannwarth, S. Ehlert and S. Grimme., ChemRxiv, 2018, preprint.
   http://doi.org/10.26434/chemrxiv.7246238.v1
   
   for sTDA-xTB:
   S. Grimme and C. Bannwarth, J. Chem. Phys., 2016, 145, 054103.
   
   in the mass-spec context:
   V. Asgeirsson, C. Bauer and S. Grimme, Chem. Sci., 2017, 8, 4879.
   
   if GBSA is used:
   P. Shushkov, F. März and S. Grimme, unpublished.
   
   for ANC optimizer:
   S. Grimme, unpublished.
   Rational Function algorithm used in ANCopt:
   F. Eckert, P. Pulay, H.-J. Werner, J. Comput. Chem., 1997, 18, 1473.
   
   with help from (in alphabetical order)
   C. Bannwarth, F. Bohle, G. Brandenburg, E. Caldeweyher, M. Checinski,
   S. Dohm, S. Ehlert, S. Ehrlich, F. März, H. Neugebauer, J. Pisarek,
   P. Pracht, P. Shushkov, and S. Spicher.
   
 * started run on 2019/09/16 at 12:04:25.522     
========================================================================
 # omp threads = 1
========================================================================
number of atoms            : 26
number of electrons        : 80
charge                     : 0
spin                       : .0
first test random number   : .1546

########################################################################
# WARNING! Please study the warnings concerning your input carefully
#  - XTBPATH is not set, using XTBHOME instead
#  - the use of '-opt' is discouraged, please use '--opt' next time
#  - the use of '-chrg' is discouraged, please use '--chrg' next time
#  - the use of '-uhf' is discouraged, please use '--uhf' next time
########################################################################

           ------------------------------------------------- 
          |                 G F N 2 - x T B                 |
          | Geometry, Frequencies, Noncovalent interactions |
          |            JCTC 2018 parametrisation            |
           ------------------------------------------------- 
      method parameters     
 k(s)        :  1.8500
 k(p)        :  2.2300
 k(d)        :  2.2300
 k(f)        :  2.0000
 kEN (H0ij)  : -2.0000
 D4 a1       :  0.5200
 D4 a2       :  5.0000
 D4 s6       :  1.0000
 D4 s8       :  2.7000
 D4 s9       :  5.0000
 alphaj      :  2.0000


            Z     q(EN)     CN     RAES       Cart. coordinates
     1  S   6.0    0.68    4.10    3.87    -0.98000    -0.19386    -0.30269
     2  O   6.0   -0.32    1.21    1.80     0.06200    -2.25535    -1.91285
     3  O   6.0   -0.31    1.22    1.80    -2.00965     1.84939    -1.94374
     4  O   6.0   -0.33    1.25    1.80    -3.03859    -1.22061     1.32092
     5  O   6.0   -0.33    1.24    1.80     1.06623     0.85112     1.32490
     6  O   6.0   -0.29    2.03    1.83    -1.73076    -4.43372     5.01947
     7  H   1.0    0.17    1.04    1.43    -2.44873    -3.63458     3.54960
     8  H   1.0    0.15    0.97    1.43    -1.79417    -6.22040     4.67539
     9  O   6.0   -0.29    2.05    1.83     1.37710    -2.60452    -6.69490
    10  H   1.0    0.15    0.97    1.43     1.32592    -4.27586    -7.41505
    11  H   1.0    0.18    1.05    1.44     0.92152    -2.81994    -4.94543
    12  O   6.0   -0.29    2.03    1.83    -4.85844     1.85412     4.92245
    13  H   1.0    0.17    1.04    1.43    -4.64347     0.75855     3.48435
    14  H   1.0    0.15    0.97    1.43    -6.30148     2.89108     4.52628
    15  O   6.0   -0.22    2.91    2.57     1.13807     2.17859    -5.64059
    16  H   1.0    0.15    1.08    1.44    -0.37445     2.36250    -4.55971
    17  H   1.0    0.12    1.06    1.44     2.70543     2.64452    -4.73708
    18  H   1.0    0.14    1.05    1.44     1.25039     0.47602    -6.40226
    19  O   6.0   -0.22    2.91    2.56    -0.35445     0.18752     5.97822
    20  H   1.0    0.14    1.04    1.43    -0.59301    -1.66009     6.11709
    21  H   1.0    0.15    1.06    1.44     0.62394     0.65500     4.45696
    22  H   1.0    0.14    1.04    1.43    -1.97563     1.11132     6.07757
    23  N   5.0   -0.22    3.04    1.93     4.91134     2.90704    -2.23070
    24  H   1.0    0.11    0.99    1.43     5.56578     4.60694    -1.60373
    25  H   1.0    0.11    0.99    1.43     6.42967     1.72160    -2.20882
    26  H   1.0    0.13    1.03    1.43     3.72545     2.26361    -0.85566

  Z AO/shell   Hii/eV     exponent
  1     Wed Apr 25 08:07:45 CEST 2018   EN: 2.200 GM2: 0.406  GM3: 0.0800  RAES: 1.40
     1s    -10.707211    1.230000
  7     Wed Apr 25 08:07:45 CEST 2018   EN: 3.040 GM2: 0.461  GM3:-0.0640  RAES: 1.90
     2s    -16.686243    2.339881
     2p    -12.523956    2.014332
  8     Wed Apr 25 08:07:45 CEST 2018   EN: 3.440 GM2: 0.452  GM3:-0.0517  RAES: 1.80
     2s    -20.229985    2.439742
     2p    -15.503117    2.137023
 16     Tue Apr 24 11:44:34 CEST 2018   EN: 2.580 GM2: 0.340  GM3:-0.0502  RAES: 3.10
     3s    -20.029654    1.981333
     3p    -11.377694    2.025643
     3d     -0.420282    1.702555
 no old-style atom pair restraining (fixing) potential

molecular fragmentation (1/2 indicates fragments):
11111222222222222222222222
# atoms in fragment 1/2:     5    21
 fragment masses (1/2) :       96.06      109.12
CMA distance (Bohr)    :   1.151
constraining FC (au)   :  0.0500
           ------------------------------------------------- 
          |        Self-Consistent Charge Iterations        |
           ------------------------------------------------- 

 Ncao       : 65
 Nao        : 64
 Nshell     : 38
 Nel        : 80
 T(el)      :   300.0
 intcut     :    25.0
 scfconv/Eh :  0.100E-05
   qconv/e  :  0.100E-03
 intneglect :  0.100E-07
 broydamp   :      0.250
 iter      E             dE          RMSdq      gap      omega  full diag
   1    -50.6062333 -0.506062E+02  0.696E+00   10.14       0.0  T
   2    -50.6441066 -0.378733E-01  0.500E+00    9.97       1.0  T
   3    -50.6750356 -0.309290E-01  0.107E+00    8.31       1.0  T
   4    -50.6794462 -0.441061E-02  0.483E-01    8.21       1.0  T
   5    -50.6800635 -0.617247E-03  0.232E-01    8.09       1.0  T
   6    -50.6803077 -0.244174E-03  0.120E-01    8.13       1.0  T
   7    -50.6803930 -0.853601E-04  0.445E-02    8.19       1.0  T
   8    -50.6804017 -0.865166E-05  0.267E-02    8.18       1.0  T
   9    -50.6804062 -0.454484E-05  0.951E-03    8.18       2.1  T
  10    -50.6804066 -0.397875E-06  0.200E-03    8.17       9.8  T
  11    -50.6804066 -0.175608E-07  0.859E-04    8.17      22.8  T
  12    -50.6804066 -0.349851E-08  0.331E-04    8.17      59.3  T
speedup  1.00
cpu  time for SCC    0.01 s
wall time for SCC    0.01 s

   *** convergence criteria satisfied after 12 iterations ***

          eigenvalues
 #    :          28         29         30         31         32         33         34         35
 occ. :        2.000      2.000      2.000      2.000      2.000      2.000      2.000      2.000
 eps  :       -12.081    -11.948    -11.930    -11.829    -11.300    -10.749    -10.636    -10.061
 #    :          36         37         38         39         40         41         42         43
 occ. :        2.000      2.000      2.000      2.000      2.000      0.000      0.000      0.000
 eps  :        -9.922     -9.868     -9.709     -9.502     -9.438     -1.266     -0.712      0.550
 #    :          44         45         46         47         48         49         50         51
 occ. :        0.000      0.000      0.000      0.000      0.000      0.000      0.000      0.000
 eps  :         1.721      2.275      2.385      2.529      2.968      4.153      4.492      5.168


   #   Z            q   n(s)   n(p)   n(d)      C6AA      α(0)
   1  16 S      1.500  1.604  1.898  0.998    93.456    16.271
   2   8 O     -0.794  1.781  5.013  0.000    31.402     7.513
   3   8 O     -0.785  1.781  5.004  0.000    31.145     7.482
   4   8 O     -0.793  1.778  5.015  0.000    31.372     7.510
   5   8 O     -0.803  1.778  5.025  0.000    31.676     7.546
   6   8 O     -0.624  1.729  4.895  0.000    25.772     6.852
   7   1 H      0.337  0.663  0.000  0.000     0.621     1.237
   8   1 H      0.288  0.712  0.000  0.000     0.758     1.367
   9   8 O     -0.628  1.728  4.899  0.000    25.862     6.864
  10   1 H      0.287  0.713  0.000  0.000     0.762     1.371
  11   1 H      0.343  0.657  0.000  0.000     0.604     1.220
  12   8 O     -0.624  1.729  4.895  0.000    25.767     6.851
  13   1 H      0.336  0.664  0.000  0.000     0.621     1.238
  14   1 H      0.289  0.711  0.000  0.000     0.756     1.366
  15   8 O     -0.421  1.638  4.783  0.000    21.208     6.220
  16   1 H      0.411  0.589  0.000  0.000     0.465     1.071
  17   1 H      0.389  0.611  0.000  0.000     0.505     1.116
  18   1 H      0.415  0.585  0.000  0.000     0.457     1.063
  19   8 O     -0.413  1.638  4.776  0.000    21.055     6.197
  20   1 H      0.417  0.583  0.000  0.000     0.456     1.060
  21   1 H      0.412  0.588  0.000  0.000     0.463     1.070
  22   1 H      0.416  0.584  0.000  0.000     0.456     1.060
  23   7 N     -0.460  1.382  4.077  0.000    32.110     8.416
  24   1 H      0.148  0.852  0.000  0.000     1.412     1.862
  25   1 H      0.152  0.848  0.000  0.000     1.389     1.846
  26   1 H      0.205  0.795  0.000  0.000     1.080     1.628

 Mol. C6AA /au·bohr⁶  :       5521.472229
 Mol. C8AA /au·bohr⁸  :     119931.246068
 Mol. α(0) /au        :        107.297643

 
 Wiberg/Mayer (AO) data. WBOs > 0.1 written file <wbo>
 largest (>0.05) Wiberg bond orders for each atom
           total WBO             WBO to atom ...
     1  S   5.005    O    2 1.274    O    3 1.246    O    4 1.239    O    5 1.208
     2  O   1.649    S    1 1.274    O    3 0.103    O    5 0.092    O    4 0.089    H   11 0.062
     3  O   1.681    S    1 1.246    H   16 0.109    O    2 0.103    O    5 0.092    O    4 0.085
     4  O   1.676    S    1 1.239    O    5 0.095    O    2 0.089    O    3 0.085    H    7 0.055    H   13 0.055
     5  O   1.672    S    1 1.208    H   21 0.102    O    4 0.095    O    2 0.092    O    3 0.092
     6  O   1.843    H    8 0.903    H    7 0.828    H   20 0.062
     7  H   0.887    O    6 0.828    O    4 0.055
     8  H   0.917    O    6 0.903
     9  O   1.843    H   10 0.902    H   11 0.815    H   18 0.070
    10  H   0.918    O    9 0.902
    11  H   0.882    O    9 0.815    O    2 0.062
    12  O   1.843    H   14 0.903    H   13 0.828    H   22 0.063
    13  H   0.887    O   12 0.828    O    4 0.055
    14  H   0.917    O   12 0.903
    15  O   2.325    H   17 0.749    H   18 0.748    H   16 0.714
    16  H   0.831    O   15 0.714    O    3 0.109
    17  H   0.848    O   15 0.749    N   23 0.095
    18  H   0.827    O   15 0.748    O    9 0.070
    19  O   2.333    H   20 0.757    H   22 0.757    H   21 0.720
    20  H   0.826    O   19 0.757    O    6 0.062
    21  H   0.830    O   19 0.720    O    5 0.102
    22  H   0.827    O   19 0.757    O   12 0.063
    23  N   3.028    H   24 0.974    H   25 0.974    H   26 0.926    H   17 0.095
    24  H   0.978    N   23 0.974
    25  H   0.977    N   23 0.974
    26  H   0.958    N   23 0.926
 MOs/occ written to file <molden.input>
 
molecular dipole:
                 x           y           z       tot (Debye)
 q only:        1.417       0.774       0.391
   full:        1.205       0.257       0.425       3.313
molecular quadrupole (traceless):
                xx          xy          yy          xz          yz          zz
 q only:      -10.900       2.919      -7.065      -9.358      -3.347      17.965
  q+dip:       -3.616       3.270      -1.519      -7.514       1.171       5.134
   full:       -3.889       3.100      -1.142      -7.636       1.351       5.031

SCC energy    :     -50.6804066
rep           :       0.2898532
ES            :       0.3396220
AES           :      -0.0835453
AXC           :      -0.0087064
disp          :      -0.0182471
XB            :       0.0000000
fix           :       0.0000000
total E       :     -50.3904333
atomizationE  :       4.9207374     3087.81
(atE without considering molecular charge,
 total energy contains solvation terms)
H-L gap (eV)  :          8.1720
           ------------------------------------------------- 
          |                 ===============                 |
          |                   A N C O P T                   |
          |                 ===============                 |
          |          Approximate Normal Coordinate          |
          |           Rational Function Optimizer           |
           ------------------------------------------------- 
dumping coords to <xtbopt.coord> and <xtbopt.log>
 optlevel               2
 Maxcycle             520
 Maxmicro              25
 Econv         1.000000000000000E-007
 Gconv         2.000000000000000E-004
 Maxdispl       1.00000000000000     
 Hlow          5.000000000000000E-003
 S6             20.0000000000000     
 Nvar               72

generating ANC from model Hessian ...
 Shifting diagonal of input Hessian by   4.956695011007929E-003
 Lowest  eigenvalues of input Hessian
   -0.000000   -0.000000   -0.000000    0.000000    0.000000    0.000000
    0.005000    0.005124    0.005218    0.005236    0.005776    0.006253
    0.006547    0.007110    0.007506    0.007696    0.007939    0.008948
 Highest eigenvalues
    1.554152    1.555158    1.559106    3.082161    3.086231    3.092626
 
cpu  time for ANC gen    0.01 s
wall time for ANC gen    0.01 s
................................................................................
.............................. CYCLE    1 ......................................
................................................................................
   1    -50.6804066 -0.506804E+02  0.564E-05    8.17       0.0  T
   2    -50.6804066 -0.997602E-11  0.420E-05    8.17     467.0  T
   3    -50.6804066 -0.603251E-11  0.219E-05    8.17     893.9  T
speedup  1.07
cpu  time for SCC    0.00 s
wall time for SCC    0.00 s
speedup  1.01
cpu  time for grad    0.01 s
wall time for grad    0.01 s
 E :    -50.39043324  G :  0.122304    pred/act E change:  0.000D+00  0.150D-07
Maxdispl :   0.2143   ||displ|| :   0.5225   Lambda : -0.307D-01
Largest |displ|/coords:  0.2143 (  27)  0.1762 (  25)  0.1707 (  30)
................................................................................
.............................. CYCLE    2 ......................................
................................................................................
   1    -50.6858325 -0.506858E+02  0.432E-01    8.45       0.0  T
   2    -50.6860198 -0.187293E-03  0.326E-01    8.52       1.0  T
   3    -50.6861202 -0.100394E-03  0.689E-02    8.69       1.0  T
   4    -50.6861447 -0.245542E-04  0.207E-02    8.67       1.0  T
   5    -50.6861456 -0.828304E-06  0.779E-03    8.67       2.5  T
   6    -50.6861457 -0.108070E-06  0.383E-03    8.67       5.1  T
   7    -50.6861457 -0.480442E-07  0.154E-03    8.66      12.7  T
speedup  0.95
cpu  time for SCC    0.01 s
wall time for SCC    0.01 s
speedup  1.01
cpu  time for grad    0.01 s
wall time for grad    0.01 s
 E :    -50.41682129  G :  0.076784    pred/act E change:  0.000D+00 -0.264D-01
Maxdispl :   0.2481   ||displ|| :   0.5420   Lambda : -0.209D-01
Largest |displ|/coords:  0.2481 (  27)  0.2183 (  30)  0.1673 (  29)
................................................................................
.............................. CYCLE    3 ......................................
................................................................................
   1    -50.6912241 -0.506912E+02  0.351E-01    8.84       0.0  T
   2    -50.6916361 -0.412015E-03  0.256E-01    8.90       1.0  T
   3    -50.6918313 -0.195203E-03  0.956E-02    9.00       1.0  T
   4    -50.6918506 -0.192950E-04  0.268E-02    9.01       1.0  T
   5    -50.6918519 -0.125704E-05  0.998E-03    9.01       2.0  T
   6    -50.6918521 -0.193934E-06  0.482E-03    9.01       4.1  T
   7    -50.6918522 -0.782676E-07  0.201E-03    9.01       9.8  T
speedup  0.97
cpu  time for SCC    0.01 s
wall time for SCC    0.01 s
speedup  1.01
cpu  time for grad    0.01 s
wall time for grad    0.01 s
 E :    -50.43340446  G :  0.049331    pred/act E change: -0.196D-01 -0.166D-01
Maxdispl :   0.1890   ||displ|| :   0.5763   Lambda : -0.127D-01
Largest |displ|/coords:  0.1890 (  27)  0.1732 (  30)  0.1610 (   9)
................................................................................
.............................. CYCLE    4 ......................................
................................................................................
   1    -50.6923193 -0.506923E+02  0.414E-01    9.14       0.0  T
   2    -50.6930859 -0.766597E-03  0.296E-01    9.17       1.0  T
   3    -50.6934414 -0.355557E-03  0.120E-01    9.22       1.0  T
   4    -50.6934677 -0.262328E-04  0.325E-02    9.24       1.0  T
   5    -50.6934694 -0.175576E-05  0.131E-02    9.24       1.5  T
   6    -50.6934697 -0.273044E-06  0.620E-03    9.24       3.2  T
   7    -50.6934698 -0.118839E-06  0.234E-03    9.24       8.4  T
   8    -50.6934698 -0.293542E-07  0.746E-04    9.24      26.3  T
speedup  1.00
cpu  time for SCC    0.01 s
wall time for SCC    0.01 s
speedup  0.95
cpu  time for grad    0.01 s
wall time for grad    0.01 s
 E :    -50.44078569  G :  0.043741    pred/act E change: -0.135D-01 -0.738D-02
Maxdispl :   0.1452   ||displ|| :   0.3803   Lambda : -0.351D-02
Largest |displ|/coords:  0.1452 (   7)  0.1433 (   4)  0.1383 (   9)
................................................................................
.............................. CYCLE    5 ......................................
................................................................................
   1    -50.6956646 -0.506957E+02  0.259E-01    9.33       0.0  T
   2    -50.6957084 -0.437254E-04  0.195E-01    9.34       1.0  T
   3    -50.6957343 -0.259144E-04  0.329E-02    9.37       1.0  T
   4    -50.6957403 -0.600446E-05  0.730E-03    9.37       2.7  T
   5    -50.6957404 -0.119174E-06  0.337E-03    9.37       5.8  T
   6    -50.6957404 -0.237974E-07  0.130E-03    9.37      15.1  T
speedup  0.91
cpu  time for SCC    0.00 s
wall time for SCC    0.01 s
speedup  0.98
cpu  time for grad    0.01 s
wall time for grad    0.01 s
 E :    -50.44340766  G :  0.036621    pred/act E change: -0.846D-02 -0.262D-02
Maxdispl :   0.2747   ||displ|| :   0.5763   Lambda : -0.476D-02
Largest |displ|/coords:  0.2747 (   9)  0.2194 (   4)  0.1781 (  10)
................................................................................
.............................. CYCLE    6 ......................................
................................................................................
   1    -50.7114955 -0.507115E+02  0.365E-01    9.46       0.0  T
   2    -50.7116620 -0.166546E-03  0.264E-01    9.48       1.0  T
   3    -50.7117535 -0.914706E-04  0.693E-02    9.51       1.0  T
   4    -50.7117672 -0.136435E-04  0.136E-02    9.51       1.4  T
   5    -50.7117675 -0.361140E-06  0.612E-03    9.51       3.2  T
   6    -50.7117676 -0.488239E-07  0.264E-03    9.51       7.4  T
   7    -50.7117676 -0.141812E-07  0.850E-04    9.51      23.1  T
speedup  0.97
cpu  time for SCC    0.01 s
wall time for SCC    0.01 s
speedup  0.99
cpu  time for grad    0.01 s
wall time for grad    0.01 s
 E :    -50.44526312  G :  0.036210    pred/act E change: -0.201D-02 -0.186D-02
Maxdispl :   0.2139   ||displ|| :   0.4677   Lambda : -0.445D-02
Largest |displ|/coords:  0.2139 (  13)  0.1565 (   7)  0.1422 (   4)
................................................................................
.............................. CYCLE    7 ......................................
................................................................................
   1    -50.7132821 -0.507133E+02  0.557E-01    9.53       0.0  T
   2    -50.7134756 -0.193529E-03  0.415E-01    9.55       1.0  T
   3    -50.7135804 -0.104864E-03  0.843E-02    9.52       1.0  T
   4    -50.7136079 -0.274856E-04  0.169E-02    9.52       1.2  T
   5    -50.7136084 -0.444326E-06  0.758E-03    9.52       2.6  T
   6    -50.7136085 -0.789633E-07  0.396E-03    9.52       4.9  T
   7    -50.7136085 -0.235090E-07  0.117E-03    9.52      16.7  T
speedup  0.95
cpu  time for SCC    0.01 s
wall time for SCC    0.01 s
speedup  0.99
cpu  time for grad    0.01 s
wall time for grad    0.01 s
 E :    -50.44637786  G :  0.041442    pred/act E change: -0.317D-02 -0.111D-02
Maxdispl :   0.1109   ||displ|| :   0.2949   Lambda : -0.388D-02
Largest |displ|/coords:  0.1109 (   4)  0.1061 (  13)  0.0914 (  18)
................................................................................
.............................. CYCLE    8 ......................................
................................................................................
   1    -50.7134073 -0.507134E+02  0.358E-01    9.48       0.0  T
   2    -50.7134931 -0.858423E-04  0.269E-01    9.46       1.0  T
   3    -50.7135383 -0.451630E-04  0.528E-02    9.42       1.0  T
   4    -50.7135510 -0.126536E-04  0.142E-02    9.43       1.4  T
   5    -50.7135515 -0.519337E-06  0.437E-03    9.43       4.5  T
   6    -50.7135515 -0.126463E-07  0.259E-03    9.43       7.6  T
speedup  0.94
cpu  time for SCC    0.00 s
wall time for SCC    0.01 s
speedup  0.98
cpu  time for grad    0.01 s
wall time for grad    0.01 s
 E :    -50.44784906  G :  0.030242    pred/act E change: -0.271D-02 -0.147D-02
Maxdispl :   0.1633   ||displ|| :   0.3794   Lambda : -0.357D-02
Largest |displ|/coords:  0.1633 (  14)  0.1280 (  16)  0.1225 (  21)
................................................................................
.............................. CYCLE    9 ......................................
................................................................................
   1    -50.7218094 -0.507218E+02  0.430E-01    9.34       0.0  T
   2    -50.7219653 -0.155932E-03  0.324E-01    9.33       1.0  T
   3    -50.7220476 -0.822884E-04  0.766E-02    9.30       1.0  T
   4    -50.7220674 -0.198389E-04  0.224E-02    9.30       1.0  T
   5    -50.7220691 -0.164940E-05  0.596E-03    9.30       3.3  T
   6    -50.7220691 -0.198838E-07  0.354E-03    9.30       5.5  T
speedup  1.13
cpu  time for SCC    0.01 s
wall time for SCC    0.01 s
speedup  0.99
cpu  time for grad    0.01 s
wall time for grad    0.01 s
 E :    -50.44788873  G :  0.040465    pred/act E change: -0.211D-02 -0.397D-04
Maxdispl :   0.1584   ||displ|| :   0.2922   Lambda : -0.312D-02
Largest |displ|/coords:  0.1584 (   4)  0.0812 (   7)  0.0765 (  17)
................................................................................
.............................. CYCLE   10 ......................................
................................................................................
   1    -50.7208114 -0.507208E+02  0.298E-01    9.27       0.0  T
   2    -50.7208743 -0.628565E-04  0.222E-01    9.26       1.0  T
   3    -50.7209095 -0.352817E-04  0.445E-02    9.21       1.0  T
   4    -50.7209185 -0.891552E-05  0.981E-03    9.21       2.0  T
   5    -50.7209186 -0.152078E-06  0.514E-03    9.21       3.8  T
   6    -50.7209186 -0.321446E-07  0.249E-03    9.21       7.9  T
speedup  0.94
cpu  time for SCC    0.01 s
wall time for SCC    0.01 s
speedup  0.98
cpu  time for grad    0.01 s
wall time for grad    0.01 s
 E :    -50.45000539  G :  0.019998    pred/act E change: -0.204D-02 -0.212D-02
Maxdispl :   0.1811   ||displ|| :   0.3959   Lambda : -0.243D-02
Largest |displ|/coords:  0.1811 (   4)  0.1617 (   2)  0.1190 (  20)
................................................................................
.............................. CYCLE   11 ......................................
................................................................................
   1    -50.7249209 -0.507249E+02  0.416E-01    9.13       0.0  T
   2    -50.7250235 -0.102555E-03  0.312E-01    9.10       1.0  T
   3    -50.7250926 -0.691341E-04  0.556E-02    9.01       1.0  T
   4    -50.7251064 -0.138064E-04  0.113E-02    9.02       1.7  T
   5    -50.7251066 -0.179571E-06  0.655E-03    9.02       3.0  T
   6    -50.7251067 -0.569955E-07  0.238E-03    9.02       8.2  T
   7    -50.7251067 -0.101720E-07  0.640E-04    9.02      30.6  T
speedup  1.13
cpu  time for SCC    0.01 s
wall time for SCC    0.01 s
speedup  1.00
cpu  time for grad    0.01 s
wall time for grad    0.01 s
 E :    -50.44936068  G :  0.053326    pred/act E change: -0.169D-02  0.645D-03
Maxdispl :   0.1749   ||displ|| :   0.4144   Lambda : -0.792D-02
Largest |displ|/coords:  0.1749 (  20)  0.1543 (  21)  0.1289 (   8)
................................................................................
.............................. CYCLE   12 ......................................
................................................................................
   1    -50.7216866 -0.507217E+02  0.604E-01    9.01       0.0  T
   2    -50.7219234 -0.236867E-03  0.453E-01    9.02       1.0  T
   3    -50.7220840 -0.160542E-03  0.880E-02    9.03       1.0  T
   4    -50.7221145 -0.305741E-04  0.214E-02    9.03       1.0  T
   5    -50.7221155 -0.934965E-06  0.920E-03    9.03       2.1  T
   6    -50.7221156 -0.889841E-07  0.507E-03    9.03       3.9  T
   7    -50.7221156 -0.476372E-07  0.911E-04    9.03      21.5  T
speedup  0.97
cpu  time for SCC    0.01 s
wall time for SCC    0.01 s
speedup  1.00
cpu  time for grad    0.01 s
wall time for grad    0.01 s
 E :    -50.44805624  G :  0.072225    pred/act E change: -0.140D-02  0.130D-02
Maxdispl :   0.1462   ||displ|| :   0.4441   Lambda : -0.124D-01
Largest |displ|/coords:  0.1462 (  16)  0.1427 (  20)  0.1412 (  18)
................................................................................
.............................. CYCLE   13 ......................................
................................................................................
   1    -50.7314996 -0.507315E+02  0.603E-01    9.04       0.0  T
   2    -50.7317568 -0.257167E-03  0.454E-01    9.04       1.0  T
   3    -50.7319450 -0.188240E-03  0.922E-02    9.04       1.0  T
   4    -50.7319761 -0.310551E-04  0.233E-02    9.04       1.0  T
   5    -50.7319772 -0.112690E-05  0.112E-02    9.04       1.7  T
   6    -50.7319773 -0.606888E-07  0.521E-03    9.04       3.8  T
   7    -50.7319773 -0.682433E-07  0.970E-04    9.04      20.2  T
speedup  0.97
cpu  time for SCC    0.01 s
wall time for SCC    0.01 s
speedup  1.00
cpu  time for grad    0.01 s
wall time for grad    0.01 s
 E :    -50.44947132  G :  0.061103    pred/act E change: -0.464D-02 -0.142D-02
Maxdispl :   0.0987   ||displ|| :   0.2608   Lambda : -0.419D-02
Largest |displ|/coords:  0.0987 (  10)  0.0776 (  17)  0.0736 (   7)
................................................................................
.............................. CYCLE   14 ......................................
................................................................................
   1    -50.7252980 -0.507253E+02  0.292E-01    8.99       0.0  T
   2    -50.7253619 -0.638795E-04  0.220E-01    8.98       1.0  T
   3    -50.7254063 -0.444272E-04  0.456E-02    8.97       1.0  T
   4    -50.7254146 -0.832769E-05  0.125E-02    8.98       1.6  T
   5    -50.7254149 -0.255862E-06  0.541E-03    8.98       3.6  T
   6    -50.7254149 -0.413733E-07  0.298E-03    8.98       6.6  T
speedup  0.93
cpu  time for SCC    0.00 s
wall time for SCC    0.01 s
speedup  0.99
cpu  time for grad    0.01 s
wall time for grad    0.01 s
 E :    -50.45097457  G :  0.016821    pred/act E change: -0.742D-02 -0.150D-02
Maxdispl :   0.0810   ||displ|| :   0.2402   Lambda : -0.166D-02
Largest |displ|/coords:  0.0810 (  35)  0.0748 (  12)  0.0741 (   1)
................................................................................
.............................. CYCLE   15 ......................................
................................................................................
   1    -50.7288586 -0.507289E+02  0.194E-01    8.98       0.0  T
   2    -50.7289257 -0.671129E-04  0.144E-01    8.97       1.0  T
   3    -50.7289648 -0.390759E-04  0.454E-02    8.92       1.0  T
   4    -50.7289713 -0.650142E-05  0.127E-02    8.92       1.5  T
   5    -50.7289716 -0.359721E-06  0.600E-03    8.92       3.3  T
   6    -50.7289717 -0.396173E-07  0.278E-03    8.92       7.0  T
   7    -50.7289717 -0.155186E-07  0.718E-04    8.92      27.3  T
speedup  0.97
cpu  time for SCC    0.01 s
wall time for SCC    0.01 s
speedup  1.00
cpu  time for grad    0.01 s
wall time for grad    0.01 s
 E :    -50.45140856  G :  0.022673    pred/act E change: -0.224D-02 -0.434D-03
Maxdispl :   0.0641   ||displ|| :   0.1271   Lambda : -0.793D-03
Largest |displ|/coords:  0.0641 (  11)  0.0481 (   4)  0.0476 (   8)
................................................................................
.............................. CYCLE   16 ......................................
................................................................................
   1    -50.7295166 -0.507295E+02  0.128E-01    8.92       0.0  T
   2    -50.7295276 -0.110011E-04  0.956E-02    8.93       1.0  T
   3    -50.7295345 -0.684742E-05  0.197E-02    8.94       1.0  T
   4    -50.7295359 -0.144670E-05  0.571E-03    8.94       3.4  T
   5    -50.7295360 -0.811471E-07  0.208E-03    8.94       9.4  T
speedup  0.91
cpu  time for SCC    0.00 s
wall time for SCC    0.00 s
speedup  0.98
cpu  time for grad    0.01 s
wall time for grad    0.01 s
 E :    -50.45175551  G :  0.008421    pred/act E change: -0.877D-03 -0.347D-03
Maxdispl :   0.0554   ||displ|| :   0.1094   Lambda : -0.279D-03
Largest |displ|/coords:  0.0554 (   9)  0.0453 (  12)  0.0349 (   4)
................................................................................
.............................. CYCLE   17 ......................................
................................................................................
   1    -50.7300439 -0.507300E+02  0.757E-02    8.91       0.0  T
   2    -50.7300495 -0.560636E-05  0.565E-02    8.90       1.0  T
   3    -50.7300522 -0.269316E-05  0.129E-02    8.88       1.5  T
   4    -50.7300530 -0.781666E-06  0.388E-03    8.88       5.0  T
   5    -50.7300530 -0.285924E-07  0.138E-03    8.88      14.2  T
   6    -50.7300530 -0.273739E-08  0.705E-04    8.88      27.8  T
speedup  1.09
cpu  time for SCC    0.01 s
wall time for SCC    0.01 s
speedup  0.98
cpu  time for grad    0.01 s
wall time for grad    0.01 s
 E :    -50.45188882  G :  0.010547    pred/act E change: -0.403D-03 -0.133D-03
Maxdispl :   0.0939   ||displ|| :   0.2033   Lambda : -0.335D-03
Largest |displ|/coords:  0.0939 (   3)  0.0913 (   4)  0.0710 (  12)
................................................................................
.............................. CYCLE   18 ......................................
................................................................................
   1    -50.7326347 -0.507326E+02  0.121E-01    8.86       0.0  T
   2    -50.7326466 -0.119008E-04  0.906E-02    8.84       1.0  T
   3    -50.7326535 -0.697079E-05  0.192E-02    8.81       1.0  T
   4    -50.7326552 -0.161084E-05  0.699E-03    8.81       2.8  T
   5    -50.7326553 -0.922050E-07  0.229E-03    8.81       8.6  T
   6    -50.7326553 -0.724583E-08  0.129E-03    8.81      15.2  T
speedup  0.93
cpu  time for SCC    0.00 s
wall time for SCC    0.01 s
speedup  0.98
cpu  time for grad    0.01 s
wall time for grad    0.01 s
 E :    -50.45206099  G :  0.008126    pred/act E change: -0.141D-03 -0.172D-03
Maxdispl :   0.1260   ||displ|| :   0.2901   Lambda : -0.416D-03
Largest |displ|/coords:  0.1260 (   3)  0.1147 (   4)  0.1033 (  12)
................................................................................
.............................. CYCLE   19 ......................................
................................................................................
   1    -50.7303662 -0.507304E+02  0.168E-01    8.77       0.0  T
   2    -50.7303724 -0.623611E-05  0.125E-01    8.77       1.0  T
   3    -50.7303774 -0.494131E-05  0.164E-02    8.76       1.2  T
   4    -50.7303781 -0.717232E-06  0.635E-03    8.76       3.1  T
   5    -50.7303781 -0.576396E-07  0.178E-03    8.76      11.0  T
   6    -50.7303781 -0.471759E-08  0.117E-03    8.76      16.7  T
speedup  0.93
cpu  time for SCC    0.01 s
wall time for SCC    0.01 s
speedup  0.98
cpu  time for grad    0.01 s
wall time for grad    0.01 s
 E :    -50.45218636  G :  0.015444    pred/act E change: -0.174D-03 -0.125D-03
Maxdispl :   0.1040   ||displ|| :   0.1491   Lambda : -0.395D-03
Largest |displ|/coords:  0.1040 (   9)  0.0477 (  17)  0.0386 (  13)
................................................................................
.............................. CYCLE   20 ......................................
................................................................................
   1    -50.7348523 -0.507349E+02  0.855E-02    8.77       0.0  T
   2    -50.7348582 -0.592196E-05  0.613E-02    8.77       1.0  T
   3    -50.7348619 -0.369958E-05  0.149E-02    8.77       1.3  T
   4    -50.7348624 -0.474793E-06  0.403E-03    8.76       4.9  T
   5    -50.7348624 -0.278046E-07  0.149E-03    8.76      13.1  T
   6    -50.7348624 -0.357024E-08  0.793E-04    8.76      24.7  T
speedup  0.94
cpu  time for SCC    0.00 s
wall time for SCC    0.01 s
speedup  0.98
cpu  time for grad    0.01 s
wall time for grad    0.01 s
 E :    -50.45231735  G :  0.007120    pred/act E change: -0.225D-03 -0.131D-03
Maxdispl :   0.0661   ||displ|| :   0.1141   Lambda : -0.214D-03
Largest |displ|/coords:  0.0661 (  10)  0.0649 (   4)  0.0452 (   3)
................................................................................
.............................. CYCLE   21 ......................................
................................................................................
   1    -50.7334586 -0.507335E+02  0.953E-02    8.78       0.0  T
   2    -50.7334630 -0.438122E-05  0.713E-02    8.77       1.0  T
   3    -50.7334652 -0.220466E-05  0.117E-02    8.75       1.7  T
   4    -50.7334659 -0.736495E-06  0.347E-03    8.76       5.7  T
   5    -50.7334660 -0.231816E-07  0.138E-03    8.76      14.2  T
   6    -50.7334660 -0.237433E-08  0.738E-04    8.76      26.6  T
speedup  1.13
cpu  time for SCC    0.01 s
wall time for SCC    0.01 s
speedup  0.98
cpu  time for grad    0.01 s
wall time for grad    0.01 s
 E :    -50.45239199  G :  0.008879    pred/act E change: -0.202D-03 -0.746D-04
Maxdispl :   0.0620   ||displ|| :   0.1093   Lambda : -0.202D-03
Largest |displ|/coords:  0.0620 (   3)  0.0417 (   9)  0.0318 (  12)
................................................................................
.............................. CYCLE   22 ......................................
................................................................................
   1    -50.7337986 -0.507338E+02  0.784E-02    8.77       0.0  T
   2    -50.7338013 -0.268205E-05  0.591E-02    8.77       1.0  T
   3    -50.7338032 -0.188221E-05  0.956E-03    8.78       2.1  T
   4    -50.7338036 -0.391375E-06  0.293E-03    8.78       6.7  T
   5    -50.7338036 -0.140826E-07  0.121E-03    8.78      16.2  T
speedup  0.89
cpu  time for SCC    0.00 s
wall time for SCC    0.00 s
speedup  0.98
cpu  time for grad    0.01 s
wall time for grad    0.01 s
 E :    -50.45245795  G :  0.008154    pred/act E change: -0.108D-03 -0.660D-04
Maxdispl :   0.0511   ||displ|| :   0.1142   Lambda : -0.134D-03
Largest |displ|/coords:  0.0511 (  10)  0.0471 (   9)  0.0428 (   3)
................................................................................
.............................. CYCLE   23 ......................................
................................................................................
   1    -50.7333931 -0.507334E+02  0.654E-02    8.77       0.0  T
   2    -50.7333952 -0.210962E-05  0.485E-02    8.77       1.0  T
   3    -50.7333960 -0.781628E-06  0.937E-03    8.77       2.1  T
   4    -50.7333963 -0.328766E-06  0.332E-03    8.77       5.9  T
   5    -50.7333963 -0.143781E-07  0.689E-04    8.77      28.5  T
   6    -50.7333963 -0.838803E-09  0.414E-04    8.77      47.4  T
speedup  0.93
cpu  time for SCC    0.00 s
wall time for SCC    0.01 s
speedup  0.98
cpu  time for grad    0.01 s
wall time for grad    0.01 s
 E :    -50.45253271  G :  0.006367    pred/act E change: -0.102D-03 -0.748D-04
Maxdispl :   0.1019   ||displ|| :   0.1628   Lambda : -0.136D-03
Largest |displ|/coords:  0.1019 (   3)  0.0511 (  10)  0.0463 (   9)
................................................................................
.............................. CYCLE   24 ......................................
................................................................................
   1    -50.7341568 -0.507342E+02  0.935E-02    8.77       0.0  T
   2    -50.7341616 -0.479308E-05  0.694E-02    8.76       1.0  T
   3    -50.7341636 -0.201890E-05  0.118E-02    8.75       1.7  T
   4    -50.7341643 -0.755104E-06  0.385E-03    8.75       5.1  T
   5    -50.7341644 -0.240064E-07  0.121E-03    8.75      16.2  T
   6    -50.7341644 -0.180916E-08  0.674E-04    8.75      29.1  T
speedup  0.94
cpu  time for SCC    0.00 s
wall time for SCC    0.01 s
speedup  0.99
cpu  time for grad    0.01 s
wall time for grad    0.01 s
 E :    -50.45259413  G :  0.006592    pred/act E change: -0.678D-04 -0.614D-04
Maxdispl :   0.0844   ||displ|| :   0.1564   Lambda : -0.132D-03
Largest |displ|/coords:  0.0844 (   3)  0.0625 (  10)  0.0589 (   9)
................................................................................
.............................. CYCLE   25 ......................................
................................................................................
   1    -50.7352770 -0.507353E+02  0.977E-02    8.78       0.0  T
   2    -50.7352801 -0.308657E-05  0.733E-02    8.77       1.0  T
   3    -50.7352818 -0.174728E-05  0.104E-02    8.76       1.9  T
   4    -50.7352823 -0.485110E-06  0.318E-03    8.76       6.2  T
   5    -50.7352823 -0.197495E-07  0.958E-04    8.76      20.5  T
   6    -50.7352823 -0.976812E-09  0.540E-04    8.76      36.3  T
speedup  0.94
cpu  time for SCC    0.01 s
wall time for SCC    0.01 s
speedup  0.98
cpu  time for grad    0.01 s
wall time for grad    0.01 s
 E :    -50.45267532  G :  0.008091    pred/act E change: -0.699D-04 -0.812D-04
Maxdispl :   0.1676   ||displ|| :   0.2610   Lambda : -0.194D-03
Largest |displ|/coords:  0.1676 (   3)  0.1004 (  10)  0.0714 (   9)

generating ANC from model Hessian ...
 Shifting diagonal of input Hessian by   4.922160833396004E-003
 Lowest  eigenvalues of input Hessian
   -0.000000   -0.000000   -0.000000   -0.000000    0.000000    0.000000
    0.005000    0.005202    0.005321    0.005359    0.005767    0.006109
    0.006294    0.007588    0.007649    0.007817    0.008525    0.011111
 Highest eigenvalues
    1.402317    1.413447    1.420659    2.813342    3.334821    3.693421
 
cpu  time for ANC gen    0.01 s
wall time for ANC gen    0.01 s
................................................................................
.............................. CYCLE   26 ......................................
................................................................................
   1    -50.7338481 -0.507338E+02  0.166E-01    8.76       0.0  T
   2    -50.7338575 -0.936384E-05  0.125E-01    8.75       1.0  T
   3    -50.7338625 -0.501030E-05  0.194E-02    8.74       1.0  T
   4    -50.7338640 -0.156711E-05  0.580E-03    8.74       3.4  T
   5    -50.7338641 -0.579382E-07  0.194E-03    8.74      10.1  T
   6    -50.7338641 -0.379885E-08  0.115E-03    8.74      17.1  T
   7    -50.7338641 -0.260932E-08  0.375E-04    8.74      52.3  T
   8    -50.7338641 -0.218414E-09  0.858E-05    8.74     228.4  T
speedup  0.99
cpu  time for SCC    0.01 s
wall time for SCC    0.01 s
speedup  0.97
cpu  time for grad    0.01 s
wall time for grad    0.02 s
 E :    -50.45279089  G :  0.010967    pred/act E change:  0.000D+00 -0.116D-03
Maxdispl :   0.0581   ||displ|| :   0.1420   Lambda : -0.353D-03
Largest |displ|/coords:  0.0581 (   4)  0.0501 (   3)  0.0498 (   8)
................................................................................
.............................. CYCLE   27 ......................................
................................................................................
   1    -50.7350774 -0.507351E+02  0.129E-01    8.74       0.0  T
   2    -50.7350804 -0.296284E-05  0.973E-02    8.74       1.0  T
   3    -50.7350822 -0.181776E-05  0.109E-02    8.74       1.8  T
   4    -50.7350827 -0.514984E-06  0.322E-03    8.74       6.1  T
   5    -50.7350827 -0.148527E-07  0.118E-03    8.74      16.6  T
   6    -50.7350827 -0.764011E-09  0.594E-04    8.74      33.0  T
speedup  1.13
cpu  time for SCC    0.01 s
wall time for SCC    0.01 s
speedup  1.06
cpu  time for grad    0.01 s
wall time for grad    0.01 s
 E :    -50.45305177  G :  0.005584    pred/act E change:  0.000D+00 -0.261D-03
Maxdispl :   0.1326   ||displ|| :   0.2771   Lambda : -0.359D-03
Largest |displ|/coords:  0.1326 (   4)  0.1078 (   5)  0.0929 (  14)
................................................................................
.............................. CYCLE   28 ......................................
................................................................................
   1    -50.7343409 -0.507343E+02  0.250E-01    8.73       0.0  T
   2    -50.7343474 -0.654123E-05  0.188E-01    8.72       1.0  T
   3    -50.7343532 -0.579585E-05  0.143E-02    8.72       1.4  T
   4    -50.7343540 -0.817642E-06  0.533E-03    8.72       3.7  T
   5    -50.7343541 -0.278891E-07  0.211E-03    8.72       9.3  T
   6    -50.7343541 -0.305500E-08  0.944E-04    8.72      20.8  T
speedup  0.94
cpu  time for SCC    0.00 s
wall time for SCC    0.01 s
speedup  0.99
cpu  time for grad    0.01 s
wall time for grad    0.01 s
 E :    -50.45329593  G :  0.008777    pred/act E change: -0.180D-03 -0.244D-03
Maxdispl :   0.1249   ||displ|| :   0.2622   Lambda : -0.265D-03
Largest |displ|/coords:  0.1249 (   4)  0.0922 (  12)  0.0895 (   3)
................................................................................
.............................. CYCLE   29 ......................................
................................................................................
   1    -50.7335052 -0.507335E+02  0.192E-01    8.70       0.0  T
   2    -50.7335099 -0.472464E-05  0.145E-01    8.69       1.0  T
   3    -50.7335139 -0.399549E-05  0.122E-02    8.68       1.6  T
   4    -50.7335145 -0.604986E-06  0.461E-03    8.68       4.3  T
   5    -50.7335145 -0.224054E-07  0.163E-03    8.68      12.0  T
   6    -50.7335145 -0.245068E-08  0.849E-04    8.68      23.1  T
speedup  0.94
cpu  time for SCC    0.00 s
wall time for SCC    0.01 s
speedup  0.98
cpu  time for grad    0.01 s
wall time for grad    0.01 s
 E :    -50.45349058  G :  0.008221    pred/act E change: -0.193D-03 -0.195D-03
Maxdispl :   0.1980   ||displ|| :   0.3640   Lambda : -0.313D-03
Largest |displ|/coords:  0.1980 (   4)  0.1480 (   5)  0.1411 (   3)
................................................................................
.............................. CYCLE   30 ......................................
................................................................................
   1    -50.7325838 -0.507326E+02  0.217E-01    8.64       0.0  T
   2    -50.7325901 -0.626449E-05  0.163E-01    8.63       1.0  T
   3    -50.7325951 -0.505199E-05  0.147E-02    8.62       1.3  T
   4    -50.7325960 -0.850455E-06  0.599E-03    8.62       3.3  T
   5    -50.7325960 -0.360624E-07  0.188E-03    8.62      10.4  T
   6    -50.7325960 -0.412624E-08  0.102E-03    8.62      19.2  T
speedup  1.13
cpu  time for SCC    0.01 s
wall time for SCC    0.01 s
speedup  1.06
cpu  time for grad    0.01 s
wall time for grad    0.01 s
 E :    -50.45373994  G :  0.009375    pred/act E change: -0.142D-03 -0.249D-03
Maxdispl :   0.2586   ||displ|| :   0.5228   Lambda : -0.543D-03
Largest |displ|/coords:  0.2586 (   4)  0.2413 (   3)  0.2166 (   5)
................................................................................
.............................. CYCLE   31 ......................................
................................................................................
   1    -50.7345175 -0.507345E+02  0.227E-01    8.55       0.0  T
   2    -50.7345306 -0.130387E-04  0.170E-01    8.54       1.0  T
   3    -50.7345394 -0.886279E-05  0.220E-02    8.52       1.0  T
   4    -50.7345414 -0.192656E-05  0.834E-03    8.52       2.4  T
   5    -50.7345415 -0.973505E-07  0.255E-03    8.52       7.7  T
   6    -50.7345415 -0.868412E-08  0.150E-03    8.52      13.0  T
speedup  1.11
cpu  time for SCC    0.01 s
wall time for SCC    0.01 s
speedup  0.98
cpu  time for grad    0.01 s
wall time for grad    0.01 s
 E :    -50.45398054  G :  0.015727    pred/act E change: -0.177D-03 -0.241D-03
Maxdispl :   0.3631   ||displ|| :   0.6132   Lambda : -0.780D-03
Largest |displ|/coords:  0.3631 (   4)  0.2948 (   3)  0.2398 (   5)
................................................................................
.............................. CYCLE   32 ......................................
................................................................................
   1    -50.7269667 -0.507270E+02  0.363E-01    8.44       0.0  T
   2    -50.7270013 -0.345926E-04  0.273E-01    8.43       1.0  T
   3    -50.7270268 -0.255111E-04  0.356E-02    8.40       1.0  T
   4    -50.7270317 -0.492851E-05  0.129E-02    8.40       1.5  T
   5    -50.7270320 -0.294633E-06  0.430E-03    8.41       4.6  T
   6    -50.7270320 -0.219542E-07  0.249E-03    8.41       7.9  T
   7    -50.7270320 -0.187939E-07  0.725E-04    8.41      27.0  T
speedup  0.97
cpu  time for SCC    0.01 s
wall time for SCC    0.01 s
speedup  1.00
cpu  time for grad    0.01 s
wall time for grad    0.01 s
 E :    -50.45419881  G :  0.022752    pred/act E change: -0.346D-03 -0.218D-03
Maxdispl :   0.0900   ||displ|| :   0.1444   Lambda : -0.674D-03
Largest |displ|/coords:  0.0900 (   5)  0.0484 (   8)  0.0444 (  17)
................................................................................
.............................. CYCLE   33 ......................................
................................................................................
   1    -50.7321446 -0.507321E+02  0.128E-01    8.48       0.0  T
   2    -50.7321534 -0.883195E-05  0.954E-02    8.48       1.0  T
   3    -50.7321594 -0.603520E-05  0.168E-02    8.48       1.2  T
   4    -50.7321606 -0.112982E-05  0.390E-03    8.48       5.0  T
   5    -50.7321606 -0.201247E-07  0.197E-03    8.48      10.0  T
speedup  1.14
cpu  time for SCC    0.00 s
wall time for SCC    0.00 s
speedup  0.98
cpu  time for grad    0.01 s
wall time for grad    0.01 s
 E :    -50.45444789  G :  0.014010    pred/act E change: -0.537D-03 -0.249D-03
Maxdispl :   0.1089   ||displ|| :   0.1978   Lambda : -0.714D-03
Largest |displ|/coords:  0.1089 (   3)  0.0741 (  15)  0.0657 (  14)
................................................................................
.............................. CYCLE   34 ......................................
................................................................................
   1    -50.7396170 -0.507396E+02  0.194E-01    8.56       0.0  T
   2    -50.7396409 -0.238858E-04  0.145E-01    8.56       1.0  T
   3    -50.7396558 -0.149715E-04  0.277E-02    8.57       1.0  T
   4    -50.7396588 -0.302222E-05  0.719E-03    8.57       2.7  T
   5    -50.7396590 -0.110288E-06  0.257E-03    8.57       7.6  T
   6    -50.7396590 -0.346981E-08  0.141E-03    8.57      13.9  T
speedup  0.96
cpu  time for SCC    0.01 s
wall time for SCC    0.01 s
speedup  0.99
cpu  time for grad    0.01 s
wall time for grad    0.01 s
 E :    -50.45434060  G :  0.025021    pred/act E change: -0.344D-03  0.107D-03
Maxdispl :   0.1470   ||displ|| :   0.2724   Lambda : -0.689D-03
Largest |displ|/coords:  0.1470 (   4)  0.1246 (   3)  0.1123 (   1)
................................................................................
.............................. CYCLE   35 ......................................
................................................................................
   1    -50.7342766 -0.507343E+02  0.175E-01    8.54       0.0  T
   2    -50.7342867 -0.101103E-04  0.131E-01    8.53       1.0  T
   3    -50.7342936 -0.688978E-05  0.181E-02    8.53       1.1  T
   4    -50.7342950 -0.135952E-05  0.553E-03    8.53       3.5  T
   5    -50.7342950 -0.663564E-07  0.212E-03    8.53       9.3  T
speedup  1.14
cpu  time for SCC    0.00 s
wall time for SCC    0.00 s
speedup  1.07
cpu  time for grad    0.01 s
wall time for grad    0.01 s
 E :    -50.45480862  G :  0.008026    pred/act E change: -0.371D-03 -0.468D-03
Maxdispl :   0.1764   ||displ|| :   0.3277   Lambda : -0.367D-03
Largest |displ|/coords:  0.1764 (   3)  0.1327 (   1)  0.1186 (   4)
................................................................................
.............................. CYCLE   36 ......................................
................................................................................
   1    -50.7327427 -0.507327E+02  0.183E-01    8.52       0.0  T
   2    -50.7327554 -0.126823E-04  0.137E-01    8.52       1.0  T
   3    -50.7327642 -0.880767E-05  0.224E-02    8.51       1.0  T
   4    -50.7327658 -0.164394E-05  0.735E-03    8.51       2.7  T
   5    -50.7327659 -0.114865E-06  0.223E-03    8.51       8.8  T
   6    -50.7327659 -0.581112E-08  0.135E-03    8.51      14.5  T
speedup  0.96
cpu  time for SCC    0.00 s
wall time for SCC    0.01 s
speedup  0.98
cpu  time for grad    0.01 s
wall time for grad    0.01 s
 E :    -50.45474979  G :  0.018068    pred/act E change: -0.370D-03  0.588D-04
Maxdispl :   0.0729   ||displ|| :   0.1608   Lambda : -0.509D-03
Largest |displ|/coords:  0.0729 (   3)  0.0709 (   4)  0.0584 (   1)
................................................................................
.............................. CYCLE   37 ......................................
................................................................................
   1    -50.7321636 -0.507322E+02  0.108E-01    8.51       0.0  T
   2    -50.7321664 -0.278942E-05  0.811E-02    8.52       1.0  T
   3    -50.7321682 -0.181786E-05  0.107E-02    8.52       1.8  T
   4    -50.7321686 -0.388127E-06  0.329E-03    8.52       6.0  T
   5    -50.7321686 -0.168409E-07  0.911E-04    8.52      21.5  T
   6    -50.7321686 -0.611514E-09  0.479E-04    8.52      41.0  T
speedup  0.93
cpu  time for SCC    0.00 s
wall time for SCC    0.01 s
speedup  0.98
cpu  time for grad    0.01 s
wall time for grad    0.01 s
 E :    -50.45498704  G :  0.009534    pred/act E change: -0.203D-03 -0.237D-03
Maxdispl :   0.2046   ||displ|| :   0.3291   Lambda : -0.306D-03
Largest |displ|/coords:  0.2046 (   4)  0.1231 (   3)  0.1127 (   5)
................................................................................
.............................. CYCLE   38 ......................................
................................................................................
   1    -50.7394993 -0.507395E+02  0.191E-01    8.62       0.0  T
   2    -50.7395112 -0.119310E-04  0.142E-01    8.62       1.0  T
   3    -50.7395195 -0.821996E-05  0.209E-02    8.63       1.0  T
   4    -50.7395211 -0.163314E-05  0.604E-03    8.63       3.2  T
   5    -50.7395212 -0.582540E-07  0.247E-03    8.63       7.9  T
   6    -50.7395212 -0.875366E-08  0.140E-03    8.63      14.0  T
speedup  0.94
cpu  time for SCC    0.00 s
wall time for SCC    0.01 s
speedup  0.99
cpu  time for grad    0.01 s
wall time for grad    0.01 s
 E :    -50.45497889  G :  0.011846    pred/act E change: -0.261D-03  0.815D-05
Maxdispl :   0.1412   ||displ|| :   0.2328   Lambda : -0.269D-03
Largest |displ|/coords:  0.1412 (   3)  0.1118 (   1)  0.0573 (   4)
................................................................................
.............................. CYCLE   39 ......................................
................................................................................
   1    -50.7361510 -0.507362E+02  0.128E-01    8.60       0.0  T
   2    -50.7361559 -0.482141E-05  0.963E-02    8.60       1.0  T
   3    -50.7361596 -0.377341E-05  0.121E-02    8.59       1.6  T
   4    -50.7361603 -0.623246E-06  0.429E-03    8.59       4.6  T
   5    -50.7361603 -0.279561E-07  0.151E-03    8.59      13.0  T
   6    -50.7361603 -0.294665E-08  0.822E-04    8.59      23.9  T
speedup  0.96
cpu  time for SCC    0.00 s
wall time for SCC    0.01 s
speedup  1.00
cpu  time for grad    0.01 s
wall time for grad    0.01 s
 E :    -50.45514874  G :  0.005525    pred/act E change: -0.170D-03 -0.170D-03
Maxdispl :   0.2351   ||displ|| :   0.4504   Lambda : -0.299D-03
Largest |displ|/coords:  0.2351 (   3)  0.2324 (   1)  0.1540 (   4)
................................................................................
.............................. CYCLE   40 ......................................
................................................................................
   1    -50.7321095 -0.507321E+02  0.204E-01    8.53       0.0  T
   2    -50.7321215 -0.119762E-04  0.152E-01    8.53       1.0  T
   3    -50.7321295 -0.797073E-05  0.214E-02    8.51       1.0  T
   4    -50.7321312 -0.172152E-05  0.769E-03    8.52       2.6  T
   5    -50.7321313 -0.106760E-06  0.243E-03    8.52       8.1  T
   6    -50.7321313 -0.682057E-08  0.143E-03    8.52      13.7  T
speedup  0.94
cpu  time for SCC    0.00 s
wall time for SCC    0.01 s
speedup  0.98
cpu  time for grad    0.01 s
wall time for grad    0.01 s
 E :    -50.45521464  G :  0.012847    pred/act E change: -0.142D-03 -0.659D-04
Maxdispl :   0.1030   ||displ|| :   0.1359   Lambda : -0.244D-03
Largest |displ|/coords:  0.1030 (   4)  0.0411 (   9)  0.0406 (   5)
................................................................................
.............................. CYCLE   41 ......................................
................................................................................
   1    -50.7350643 -0.507351E+02  0.588E-02    8.55       0.0  T
   2    -50.7350658 -0.150032E-05  0.437E-02    8.55       1.0  T
   3    -50.7350669 -0.109104E-05  0.769E-03    8.55       2.5  T
   4    -50.7350671 -0.183442E-06  0.231E-03    8.55       8.5  T
   5    -50.7350671 -0.874135E-08  0.899E-04    8.55      21.8  T
speedup  0.89
cpu  time for SCC    0.00 s
wall time for SCC    0.00 s
speedup  0.97
cpu  time for grad    0.01 s
wall time for grad    0.01 s
 E :    -50.45537395  G :  0.005527    pred/act E change: -0.180D-03 -0.159D-03
Maxdispl :   0.1618   ||displ|| :   0.2680   Lambda : -0.189D-03
Largest |displ|/coords:  0.1618 (   1)  0.0935 (   2)  0.0917 (   4)
................................................................................
.............................. CYCLE   42 ......................................
................................................................................
   1    -50.7359090 -0.507359E+02  0.123E-01    8.56       0.0  T
   2    -50.7359131 -0.403597E-05  0.922E-02    8.56       1.0  T
   3    -50.7359163 -0.318872E-05  0.106E-02    8.56       1.8  T
   4    -50.7359168 -0.534815E-06  0.437E-03    8.56       4.5  T
   5    -50.7359168 -0.269340E-07  0.142E-03    8.56      13.8  T
   6    -50.7359168 -0.310911E-08  0.794E-04    8.56      24.7  T
speedup  0.93
cpu  time for SCC    0.00 s
wall time for SCC    0.01 s
speedup  0.98
cpu  time for grad    0.01 s
wall time for grad    0.01 s
 E :    -50.45551826  G :  0.004840    pred/act E change: -0.124D-03 -0.144D-03
Maxdispl :   0.2899   ||displ|| :   0.4757   Lambda : -0.274D-03
Largest |displ|/coords:  0.2899 (   1)  0.1713 (   2)  0.1699 (   9)
................................................................................
.............................. CYCLE   43 ......................................
................................................................................
   1    -50.7362992 -0.507363E+02  0.210E-01    8.53       0.0  T
   2    -50.7363116 -0.124501E-04  0.158E-01    8.52       1.0  T
   3    -50.7363204 -0.873091E-05  0.195E-02    8.52       1.0  T
   4    -50.7363222 -0.180365E-05  0.753E-03    8.52       2.6  T
   5    -50.7363223 -0.110339E-06  0.243E-03    8.52       8.1  T
   6    -50.7363223 -0.533063E-08  0.139E-03    8.52      14.1  T
speedup  1.09
cpu  time for SCC    0.01 s
wall time for SCC    0.01 s
speedup  1.04
cpu  time for grad    0.01 s
wall time for grad    0.01 s
 E :    -50.45569057  G :  0.007845    pred/act E change: -0.101D-03 -0.172D-03
Maxdispl :   0.2844   ||displ|| :   0.4206   Lambda : -0.227D-03
Largest |displ|/coords:  0.2844 (   1)  0.1577 (   2)  0.1295 (   3)
................................................................................
.............................. CYCLE   44 ......................................
................................................................................
   1    -50.7344986 -0.507345E+02  0.200E-01    8.47       0.0  T
   2    -50.7345069 -0.826153E-05  0.150E-01    8.47       1.0  T
   3    -50.7345144 -0.754904E-05  0.163E-02    8.46       1.2  T
   4    -50.7345154 -0.937426E-06  0.695E-03    8.46       2.8  T
   5    -50.7345154 -0.586160E-07  0.206E-03    8.46       9.5  T
   6    -50.7345154 -0.515421E-08  0.110E-03    8.46      17.8  T
speedup  1.13
cpu  time for SCC    0.01 s
wall time for SCC    0.01 s
speedup  1.06
cpu  time for grad    0.01 s
wall time for grad    0.01 s
 E :    -50.45580928  G :  0.008995    pred/act E change: -0.168D-03 -0.119D-03
Maxdispl :   0.0945   ||displ|| :   0.1436   Lambda : -0.164D-03
Largest |displ|/coords:  0.0945 (   1)  0.0409 (  10)  0.0381 (   9)
................................................................................
.............................. CYCLE   45 ......................................
................................................................................
   1    -50.7372734 -0.507373E+02  0.723E-02    8.49       0.0  T
   2    -50.7372754 -0.200848E-05  0.537E-02    8.49       1.0  T
   3    -50.7372768 -0.132899E-05  0.936E-03    8.49       2.1  T
   4    -50.7372770 -0.260715E-06  0.311E-03    8.49       6.3  T
   5    -50.7372771 -0.129666E-07  0.868E-04    8.49      22.6  T
   6    -50.7372771 -0.976520E-09  0.489E-04    8.49      40.1  T
speedup  0.94
cpu  time for SCC    0.01 s
wall time for SCC    0.01 s
speedup  0.99
cpu  time for grad    0.01 s
wall time for grad    0.01 s
 E :    -50.45591453  G :  0.006596    pred/act E change: -0.134D-03 -0.105D-03
Maxdispl :   0.2555   ||displ|| :   0.3554   Lambda : -0.189D-03
Largest |displ|/coords:  0.2555 (   1)  0.1223 (   9)  0.1126 (   2)
................................................................................
.............................. CYCLE   46 ......................................
................................................................................
   1    -50.7362334 -0.507362E+02  0.160E-01    8.53       0.0  T
   2    -50.7362394 -0.600144E-05  0.121E-01    8.53       1.0  T
   3    -50.7362447 -0.529150E-05  0.143E-02    8.52       1.4  T
   4    -50.7362455 -0.756417E-06  0.577E-03    8.53       3.4  T
   5    -50.7362455 -0.495144E-07  0.183E-03    8.53      10.7  T
   6    -50.7362455 -0.383527E-08  0.105E-03    8.53      18.7  T
speedup  1.13
cpu  time for SCC    0.01 s
wall time for SCC    0.01 s
speedup  1.06
cpu  time for grad    0.01 s
wall time for grad    0.01 s
 E :    -50.45600262  G :  0.010675    pred/act E change: -0.839D-04 -0.881D-04
Maxdispl :   0.1934   ||displ|| :   0.2547   Lambda : -0.196D-03
Largest |displ|/coords:  0.1934 (   1)  0.0934 (  10)  0.0631 (  17)
................................................................................
.............................. CYCLE   47 ......................................
................................................................................
   1    -50.7366819 -0.507367E+02  0.103E-01    8.54       0.0  T
   2    -50.7366854 -0.347557E-05  0.769E-02    8.55       1.0  T
   3    -50.7366882 -0.272786E-05  0.116E-02    8.55       1.7  T
   4    -50.7366886 -0.407016E-06  0.440E-03    8.55       4.5  T
   5    -50.7366886 -0.230642E-07  0.130E-03    8.55      15.1  T
   6    -50.7366886 -0.201111E-08  0.707E-04    8.55      27.7  T
speedup  0.94
cpu  time for SCC    0.00 s
wall time for SCC    0.01 s
speedup  0.99
cpu  time for grad    0.01 s
wall time for grad    0.01 s
 E :    -50.45609861  G :  0.008240    pred/act E change: -0.107D-03 -0.960D-04
Maxdispl :   0.1266   ||displ|| :   0.2133   Lambda : -0.206D-03
Largest |displ|/coords:  0.1266 (   1)  0.0906 (  10)  0.0728 (   3)
................................................................................
.............................. CYCLE   48 ......................................
................................................................................
   1    -50.7396504 -0.507397E+02  0.930E-02    8.59       0.0  T
   2    -50.7396545 -0.412803E-05  0.689E-02    8.58       1.0  T
   3    -50.7396572 -0.264339E-05  0.128E-02    8.57       1.5  T
   4    -50.7396578 -0.580245E-06  0.375E-03    8.58       5.2  T
   5    -50.7396578 -0.186607E-07  0.125E-03    8.58      15.7  T
   6    -50.7396578 -0.180752E-08  0.704E-04    8.58      27.9  T
speedup  0.94
cpu  time for SCC    0.00 s
wall time for SCC    0.01 s
speedup  0.99
cpu  time for grad    0.01 s
wall time for grad    0.01 s
 E :    -50.45611648  G :  0.010777    pred/act E change: -0.105D-03 -0.179D-04
Maxdispl :   0.1148   ||displ|| :   0.1552   Lambda : -0.206D-03
Largest |displ|/coords:  0.1148 (   1)  0.0474 (   8)  0.0369 (   9)
................................................................................
.............................. CYCLE   49 ......................................
................................................................................
   1    -50.7374864 -0.507375E+02  0.779E-02    8.56       0.0  T
   2    -50.7374883 -0.194604E-05  0.580E-02    8.57       1.0  T
   3    -50.7374898 -0.143056E-05  0.766E-03    8.58       2.6  T
   4    -50.7374900 -0.260809E-06  0.289E-03    8.57       6.8  T
   5    -50.7374900 -0.961016E-08  0.950E-04    8.57      20.6  T
speedup  1.11
cpu  time for SCC    0.00 s
wall time for SCC    0.00 s
speedup  0.98
cpu  time for grad    0.01 s
wall time for grad    0.01 s
 E :    -50.45624220  G :  0.005001    pred/act E change: -0.108D-03 -0.126D-03
Maxdispl :   0.0854   ||displ|| :   0.1343   Lambda : -0.835D-04
Largest |displ|/coords:  0.0854 (   1)  0.0555 (   3)  0.0420 (  11)
................................................................................
.............................. CYCLE   50 ......................................
................................................................................
   1    -50.7370993 -0.507371E+02  0.535E-02    8.59       0.0  T
   2    -50.7371005 -0.114798E-05  0.402E-02    8.59       1.0  T
   3    -50.7371015 -0.978177E-06  0.663E-03    8.60       3.0  T
   4    -50.7371016 -0.149038E-06  0.194E-03    8.60      10.1  T
   5    -50.7371016 -0.653701E-08  0.800E-04    8.60      24.5  T
speedup  1.06
cpu  time for SCC    0.00 s
wall time for SCC    0.00 s
speedup  0.95
cpu  time for grad    0.01 s
wall time for grad    0.01 s
 E :    -50.45629292  G :  0.004835    pred/act E change: -0.106D-03 -0.507D-04
Maxdispl :   0.2685   ||displ|| :   0.3432   Lambda : -0.915D-04
Largest |displ|/coords:  0.2685 (   1)  0.0909 (   9)  0.0827 (  10)
................................................................................
.............................. CYCLE   51 ......................................
................................................................................
   1    -50.7340135 -0.507340E+02  0.140E-01    8.58       0.0  T
   2    -50.7340176 -0.411566E-05  0.105E-01    8.58       1.0  T
   3    -50.7340218 -0.413661E-05  0.120E-02    8.59       1.6  T
   4    -50.7340222 -0.444974E-06  0.456E-03    8.59       4.3  T
   5    -50.7340222 -0.255240E-07  0.154E-03    8.59      12.7  T
   6    -50.7340222 -0.291387E-08  0.819E-04    8.59      23.9  T
speedup  0.94
cpu  time for SCC    0.01 s
wall time for SCC    0.01 s
speedup  0.98
cpu  time for grad    0.01 s
wall time for grad    0.01 s
 E :    -50.45632424  G :  0.008112    pred/act E change: -0.425D-04 -0.313D-04
Maxdispl :   0.1150   ||displ|| :   0.1711   Lambda : -0.132D-03
Largest |displ|/coords:  0.1150 (   3)  0.0710 (  11)  0.0589 (   2)
................................................................................
.............................. CYCLE   52 ......................................
................................................................................
   1    -50.7365800 -0.507366E+02  0.573E-02    8.60       0.0  T
   2    -50.7365829 -0.295840E-05  0.426E-02    8.61       1.0  T
   3    -50.7365843 -0.140214E-05  0.106E-02    8.62       1.8  T
   4    -50.7365846 -0.323865E-06  0.403E-03    8.62       4.9  T
   5    -50.7365847 -0.261885E-07  0.789E-04    8.62      24.9  T
   6    -50.7365847 -0.902240E-09  0.490E-04    8.62      40.0  T
speedup  0.93
cpu  time for SCC    0.00 s
wall time for SCC    0.01 s
speedup  0.98
cpu  time for grad    0.01 s
wall time for grad    0.01 s
 E :    -50.45636794  G :  0.005837    pred/act E change: -0.511D-04 -0.437D-04
Maxdispl :   0.0952   ||displ|| :   0.1308   Lambda : -0.810D-04
Largest |displ|/coords:  0.0952 (   1)  0.0403 (   5)  0.0397 (  10)

generating ANC from model Hessian ...
 Shifting diagonal of input Hessian by   4.935589504405665E-003
 Lowest  eigenvalues of input Hessian
   -0.000000    0.000000    0.000000    0.000000    0.000000    0.000000
    0.005000    0.005183    0.005249    0.005831    0.006118    0.006337
    0.006983    0.007390    0.008057    0.008162    0.010287    0.011255
 Highest eigenvalues
    1.376393    1.408666    1.420682    2.805014    3.347368    3.655196
 
cpu  time for ANC gen    0.01 s
wall time for ANC gen    0.01 s
................................................................................
.............................. CYCLE   53 ......................................
................................................................................
   1    -50.7359837 -0.507360E+02  0.510E-02    8.61       0.0  T
   2    -50.7359848 -0.113154E-05  0.379E-02    8.61       1.0  T
   3    -50.7359857 -0.875929E-06  0.665E-03    8.60       3.0  T
   4    -50.7359859 -0.158569E-06  0.201E-03    8.60       9.7  T
   5    -50.7359859 -0.616351E-08  0.785E-04    8.60      25.0  T
   6    -50.7359859 -0.114269E-08  0.347E-04    8.60      56.5  T
speedup  0.94
cpu  time for SCC    0.01 s
wall time for SCC    0.01 s
speedup  1.02
cpu  time for grad    0.01 s
wall time for grad    0.01 s
 E :    -50.45640546  G :  0.004696    pred/act E change:  0.000D+00 -0.375D-04
Maxdispl :   0.0376   ||displ|| :   0.0693   Lambda : -0.790D-04
Largest |displ|/coords:  0.0376 (  14)  0.0202 (   3)  0.0182 (  10)
................................................................................
.............................. CYCLE   54 ......................................
................................................................................
   1    -50.7360485 -0.507360E+02  0.475E-02    8.61       0.0  T
   2    -50.7360490 -0.495924E-06  0.359E-02    8.61       1.0  T
   3    -50.7360497 -0.655004E-06  0.393E-03    8.61       5.0  T
   4    -50.7360497 -0.334837E-07  0.182E-03    8.61      10.8  T
   5    -50.7360497 -0.452562E-08  0.546E-04    8.61      35.9  T
speedup  1.09
cpu  time for SCC    0.00 s
wall time for SCC    0.00 s
speedup  1.04
cpu  time for grad    0.01 s
wall time for grad    0.01 s
 E :    -50.45646885  G :  0.003307    pred/act E change:  0.000D+00 -0.634D-04
Maxdispl :   0.1462   ||displ|| :   0.2173   Lambda : -0.191D-03
Largest |displ|/coords:  0.1462 (  14)  0.0593 (  15)  0.0474 (  22)
................................................................................
.............................. CYCLE   55 ......................................
................................................................................
   1    -50.7351574 -0.507352E+02  0.165E-01    8.62       0.0  T
   2    -50.7351627 -0.530886E-05  0.125E-01    8.62       1.0  T
   3    -50.7351697 -0.697636E-05  0.124E-02    8.63       1.6  T
   4    -50.7351700 -0.350476E-06  0.581E-03    8.63       3.4  T
   5    -50.7351700 -0.407890E-07  0.184E-03    8.63      10.6  T
   6    -50.7351701 -0.614064E-08  0.102E-03    8.63      19.2  T
   7    -50.7351701 -0.197935E-08  0.168E-04    8.63     116.7  T
   8    -50.7351701 -0.872475E-10  0.502E-05    8.63     391.1  T
speedup  0.99
cpu  time for SCC    0.01 s
wall time for SCC    0.01 s
speedup  1.03
cpu  time for grad    0.02 s
wall time for grad    0.02 s
 E :    -50.45660120  G :  0.006803    pred/act E change: -0.397D-04 -0.132D-03
Maxdispl :   0.1227   ||displ|| :   0.1965   Lambda : -0.138D-03
Largest |displ|/coords:  0.1227 (  14)  0.0552 (  15)  0.0523 (   5)
................................................................................
.............................. CYCLE   56 ......................................
................................................................................
   1    -50.7340061 -0.507340E+02  0.152E-01    8.63       0.0  T
   2    -50.7340099 -0.382581E-05  0.115E-01    8.63       1.0  T
   3    -50.7340149 -0.503715E-05  0.107E-02    8.64       1.8  T
   4    -50.7340152 -0.253633E-06  0.477E-03    8.64       4.1  T
   5    -50.7340152 -0.278696E-07  0.166E-03    8.64      11.8  T
   6    -50.7340152 -0.608780E-08  0.917E-04    8.64      21.4  T
speedup  0.94
cpu  time for SCC    0.00 s
wall time for SCC    0.01 s
speedup  0.98
cpu  time for grad    0.01 s
wall time for grad    0.01 s
 E :    -50.45667881  G :  0.012604    pred/act E change: -0.100D-03 -0.776D-04
Maxdispl :   0.0441   ||displ|| :   0.1228   Lambda : -0.217D-03
Largest |displ|/coords:  0.0441 (   1)  0.0432 (  14)  0.0404 (  18)
................................................................................
.............................. CYCLE   57 ......................................
................................................................................
   1    -50.7354048 -0.507354E+02  0.959E-02    8.64       0.0  T
   2    -50.7354067 -0.193033E-05  0.720E-02    8.64       1.0  T
   3    -50.7354082 -0.149132E-05  0.802E-03    8.65       2.4  T
   4    -50.7354085 -0.277718E-06  0.270E-03    8.65       7.3  T
   5    -50.7354085 -0.104751E-07  0.112E-03    8.65      17.5  T
speedup  1.14
cpu  time for SCC    0.00 s
wall time for SCC    0.00 s
speedup  1.06
cpu  time for grad    0.01 s
wall time for grad    0.01 s
 E :    -50.45684034  G :  0.007764    pred/act E change: -0.718D-04 -0.162D-03
Maxdispl :   0.1033   ||displ|| :   0.2411   Lambda : -0.227D-03
Largest |displ|/coords:  0.1033 (  14)  0.0876 (   1)  0.0754 (  15)
................................................................................
.............................. CYCLE   58 ......................................
................................................................................
   1    -50.7351140 -0.507351E+02  0.179E-01    8.63       0.0  T
   2    -50.7351195 -0.551204E-05  0.135E-01    8.63       1.0  T
   3    -50.7351254 -0.588250E-05  0.129E-02    8.65       1.5  T
   4    -50.7351260 -0.578805E-06  0.572E-03    8.65       3.4  T
   5    -50.7351260 -0.356705E-07  0.202E-03    8.65       9.7  T
   6    -50.7351260 -0.718792E-08  0.115E-03    8.65      17.0  T
speedup  0.94
cpu  time for SCC    0.00 s
wall time for SCC    0.01 s
speedup  0.98
cpu  time for grad    0.01 s
wall time for grad    0.01 s
 E :    -50.45699174  G :  0.009045    pred/act E change: -0.110D-03 -0.151D-03
Maxdispl :   0.1072   ||displ|| :   0.2076   Lambda : -0.271D-03
Largest |displ|/coords:  0.1072 (   1)  0.0735 (   2)  0.0638 (  15)
................................................................................
.............................. CYCLE   59 ......................................
................................................................................
   1    -50.7370048 -0.507370E+02  0.132E-01    8.62       0.0  T
   2    -50.7370095 -0.471104E-05  0.993E-02    8.62       1.0  T
   3    -50.7370138 -0.430129E-05  0.123E-02    8.64       1.6  T
   4    -50.7370144 -0.579894E-06  0.471E-03    8.64       4.2  T
   5    -50.7370144 -0.272499E-07  0.165E-03    8.63      11.9  T
   6    -50.7370144 -0.359211E-08  0.963E-04    8.63      20.4  T
speedup  0.94
cpu  time for SCC    0.00 s
wall time for SCC    0.01 s
speedup  0.99
cpu  time for grad    0.01 s
wall time for grad    0.01 s
 E :    -50.45711232  G :  0.007566    pred/act E change: -0.120D-03 -0.121D-03
Maxdispl :   0.1767   ||displ|| :   0.4186   Lambda : -0.317D-03
Largest |displ|/coords:  0.1767 (   1)  0.1421 (  15)  0.1419 (  14)
................................................................................
.............................. CYCLE   60 ......................................
................................................................................
   1    -50.7298240 -0.507298E+02  0.286E-01    8.55       0.0  T
   2    -50.7298436 -0.196161E-04  0.216E-01    8.57       1.0  T
   3    -50.7298641 -0.205244E-04  0.250E-02    8.60       1.0  T
   4    -50.7298663 -0.220155E-05  0.107E-02    8.59       1.8  T
   5    -50.7298665 -0.121036E-06  0.387E-03    8.59       5.1  T
   6    -50.7298665 -0.259902E-07  0.212E-03    8.59       9.3  T
   7    -50.7298665 -0.115281E-07  0.341E-04    8.59      57.5  T
speedup  0.97
cpu  time for SCC    0.01 s
wall time for SCC    0.01 s
speedup  1.00
cpu  time for grad    0.01 s
wall time for grad    0.01 s
 E :    -50.45709020  G :  0.019419    pred/act E change: -0.141D-03  0.221D-04
Maxdispl :   0.0823   ||displ|| :   0.2019   Lambda : -0.545D-03
Largest |displ|/coords:  0.0823 (  14)  0.0733 (  15)  0.0679 (   1)
................................................................................
.............................. CYCLE   61 ......................................
................................................................................
   1    -50.7355474 -0.507355E+02  0.160E-01    8.67       0.0  T
   2    -50.7355541 -0.665920E-05  0.120E-01    8.67       1.0  T
   3    -50.7355604 -0.629284E-05  0.150E-02    8.66       1.3  T
   4    -50.7355612 -0.778067E-06  0.534E-03    8.66       3.7  T
   5    -50.7355612 -0.325883E-07  0.214E-03    8.66       9.2  T
   6    -50.7355612 -0.653871E-08  0.117E-03    8.66      16.8  T
speedup  0.91
cpu  time for SCC    0.00 s
wall time for SCC    0.01 s
speedup  0.98
cpu  time for grad    0.01 s
wall time for grad    0.01 s
 E :    -50.45730548  G :  0.005340    pred/act E change: -0.187D-03 -0.215D-03
Maxdispl :   0.0571   ||displ|| :   0.1161   Lambda : -0.945D-04
Largest |displ|/coords:  0.0571 (   1)  0.0407 (  22)  0.0390 (   2)
................................................................................
.............................. CYCLE   62 ......................................
................................................................................
   1    -50.7354376 -0.507354E+02  0.674E-02    8.68       0.0  T
   2    -50.7354389 -0.135795E-05  0.510E-02    8.68       1.0  T
   3    -50.7354400 -0.106581E-05  0.690E-03    8.69       2.8  T
   4    -50.7354402 -0.204606E-06  0.269E-03    8.69       7.3  T
   5    -50.7354402 -0.107858E-07  0.861E-04    8.69      22.8  T
speedup  0.89
cpu  time for SCC    0.00 s
wall time for SCC    0.00 s
speedup  0.95
cpu  time for grad    0.01 s
wall time for grad    0.01 s
 E :    -50.45738745  G :  0.004663    pred/act E change: -0.284D-03 -0.820D-04
Maxdispl :   0.2345   ||displ|| :   0.4906   Lambda : -0.333D-03
Largest |displ|/coords:  0.2345 (   1)  0.1924 (  22)  0.1700 (   2)
................................................................................
.............................. CYCLE   63 ......................................
................................................................................
   1    -50.7320040 -0.507320E+02  0.263E-01    8.73       0.0  T
   2    -50.7320284 -0.243538E-04  0.199E-01    8.74       1.0  T
   3    -50.7320490 -0.206526E-04  0.302E-02    8.78       1.0  T
   4    -50.7320526 -0.356372E-05  0.121E-02    8.78       1.6  T
   5    -50.7320528 -0.199088E-06  0.413E-03    8.77       4.7  T
   6    -50.7320528 -0.239122E-07  0.221E-03    8.77       8.9  T
   7    -50.7320528 -0.154796E-07  0.454E-04    8.77      43.2  T
speedup  0.97
cpu  time for SCC    0.01 s
wall time for SCC    0.01 s
speedup  0.99
cpu  time for grad    0.01 s
wall time for grad    0.01 s
 E :    -50.45742656  G :  0.014908    pred/act E change: -0.479D-04 -0.391D-04
Maxdispl :   0.0574   ||displ|| :   0.1427   Lambda : -0.365D-03
Largest |displ|/coords:  0.0574 (  14)  0.0517 (  22)  0.0411 (   1)
................................................................................
.............................. CYCLE   64 ......................................
................................................................................
   1    -50.7349401 -0.507349E+02  0.914E-02    8.79       0.0  T
   2    -50.7349444 -0.430467E-05  0.687E-02    8.79       1.0  T
   3    -50.7349473 -0.294921E-05  0.125E-02    8.78       1.6  T
   4    -50.7349479 -0.605074E-06  0.471E-03    8.78       4.2  T
   5    -50.7349480 -0.394569E-07  0.161E-03    8.78      12.2  T
   6    -50.7349480 -0.273145E-08  0.834E-04    8.78      23.5  T
speedup  1.13
cpu  time for SCC    0.01 s
wall time for SCC    0.01 s
speedup  1.06
cpu  time for grad    0.01 s
wall time for grad    0.01 s
 E :    -50.45754274  G :  0.005922    pred/act E change: -0.207D-03 -0.116D-03
Maxdispl :   0.0331   ||displ|| :   0.0786   Lambda : -0.140D-03
Largest |displ|/coords:  0.0331 (  13)  0.0295 (   3)  0.0248 (   1)
................................................................................
.............................. CYCLE   65 ......................................
................................................................................
   1    -50.7357805 -0.507358E+02  0.804E-02    8.77       0.0  T
   2    -50.7357834 -0.288453E-05  0.605E-02    8.78       1.0  T
   3    -50.7357855 -0.212040E-05  0.952E-03    8.78       2.1  T
   4    -50.7357859 -0.371755E-06  0.203E-03    8.78       9.7  T
   5    -50.7357859 -0.642907E-08  0.927E-04    8.78      21.2  T
speedup  0.89
cpu  time for SCC    0.00 s
[...]
................................................................................
   1    -50.7315089 -0.507315E+02  0.209E-02    9.25       0.0  T
   2    -50.7315091 -0.181406E-06  0.157E-02    9.25       1.2  T
   3    -50.7315092 -0.875113E-07  0.313E-03    9.25       6.3  T
   4    -50.7315092 -0.291696E-07  0.122E-03    9.25      16.1  T
   5    -50.7315092 -0.129368E-08  0.216E-04    9.25      91.0  T
   6    -50.7315092 -0.739107E-10  0.136E-04    9.25     143.8  T
speedup  0.94
cpu  time for SCC    0.00 s
wall time for SCC    0.01 s
speedup  0.95
cpu  time for grad    0.01 s
wall time for grad    0.01 s
 E :    -50.45881194  G :  0.001151    pred/act E change: -0.913D-05 -0.586D-05
Maxdispl :   0.0195   ||displ|| :   0.0334   Lambda : -0.482D-05
Largest |displ|/coords:  0.0195 (   2)  0.0132 (   1)  0.0114 (   3)
................................................................................
.............................. CYCLE   90 ......................................
................................................................................
   1    -50.7315506 -0.507316E+02  0.156E-02    9.25       0.0  T
   2    -50.7315507 -0.911577E-07  0.115E-02    9.25       1.7  T
   3    -50.7315507 -0.422741E-07  0.226E-03    9.25       8.7  T
   4    -50.7315507 -0.125046E-07  0.843E-04    9.25      23.3  T
   5    -50.7315507 -0.648782E-09  0.145E-04    9.25     135.1  T
speedup  0.89
cpu  time for SCC    0.00 s
wall time for SCC    0.00 s
speedup  1.01
cpu  time for grad    0.01 s
wall time for grad    0.01 s
 E :    -50.45881491  G :  0.001034    pred/act E change: -0.443D-05 -0.298D-05
Maxdispl :   0.0139   ||displ|| :   0.0277   Lambda : -0.270D-05
Largest |displ|/coords:  0.0139 (   2)  0.0134 (   1)  0.0122 (   3)
................................................................................
.............................. CYCLE   91 ......................................
................................................................................
   1    -50.7313927 -0.507314E+02  0.129E-02    9.24       0.0  T
   2    -50.7313927 -0.395834E-07  0.958E-03    9.24       2.0  T
   3    -50.7313927 -0.280484E-07  0.160E-03    9.24      12.3  T
   4    -50.7313927 -0.471531E-08  0.575E-04    9.24      34.1  T
   5    -50.7313927 -0.290363E-09  0.118E-04    9.24     166.7  T
speedup  0.87
cpu  time for SCC    0.00 s
wall time for SCC    0.00 s
speedup  1.00
cpu  time for grad    0.01 s
wall time for grad    0.01 s
 E :    -50.45881662  G :  0.000773    pred/act E change: -0.242D-05 -0.170D-05
Maxdispl :   0.0151   ||displ|| :   0.0247   Lambda : -0.215D-05
Largest |displ|/coords:  0.0151 (   3)  0.0100 (   2)  0.0083 (   1)
................................................................................
.............................. CYCLE   92 ......................................
................................................................................
   1    -50.7314922 -0.507315E+02  0.135E-02    9.24       0.0  T
   2    -50.7314923 -0.304575E-07  0.996E-03    9.24       2.0  T
   3    -50.7314923 -0.238893E-07  0.155E-03    9.24      12.7  T
   4    -50.7314923 -0.297141E-08  0.423E-04    9.24      46.3  T
   5    -50.7314923 -0.244768E-09  0.108E-04    9.24     181.3  T
speedup  1.11
cpu  time for SCC    0.00 s
wall time for SCC    0.00 s
speedup  1.01
cpu  time for grad    0.01 s
wall time for grad    0.01 s
 E :    -50.45881808  G :  0.000645    pred/act E change: -0.135D-05 -0.146D-05
Maxdispl :   0.0158   ||displ|| :   0.0256   Lambda : -0.159D-05
Largest |displ|/coords:  0.0158 (   3)  0.0117 (   2)  0.0109 (   1)
................................................................................
.............................. CYCLE   93 ......................................
................................................................................
   1    -50.7314984 -0.507315E+02  0.141E-02    9.24       0.0  T
   2    -50.7314985 -0.282065E-07  0.105E-02    9.24       1.9  T
   3    -50.7314985 -0.232760E-07  0.142E-03    9.24      13.9  T
   4    -50.7314985 -0.326170E-08  0.445E-04    9.24      44.0  T
   5    -50.7314985 -0.202860E-09  0.100E-04    9.24     195.7  T
speedup  1.09
cpu  time for SCC    0.00 s
wall time for SCC    0.00 s
speedup  1.00
cpu  time for grad    0.01 s
wall time for grad    0.01 s
 E :    -50.45881906  G :  0.000478    pred/act E change: -0.108D-05 -0.981D-06
Maxdispl :   0.0090   ||displ|| :   0.0126   Lambda : -0.666D-06
Largest |displ|/coords:  0.0090 (   3)  0.0049 (   1)  0.0034 (   4)
................................................................................
.............................. CYCLE   94 ......................................
................................................................................
   1    -50.7316067 -0.507316E+02  0.718E-03    9.24       0.0  T
   2    -50.7316067 -0.784822E-08  0.541E-03    9.24       3.6  T
   3    -50.7316067 -0.725613E-08  0.562E-04    9.24      34.9  T
   4    -50.7316067 -0.879723E-09  0.222E-04    9.24      88.4  T
speedup  1.08
cpu  time for SCC    0.00 s
wall time for SCC    0.00 s
speedup  0.98
cpu  time for grad    0.01 s
wall time for grad    0.01 s
 E :    -50.45881949  G :  0.000298    pred/act E change: -0.795D-06 -0.428D-06
Maxdispl :   0.0090   ||displ|| :   0.0127   Lambda : -0.435D-06
Largest |displ|/coords:  0.0090 (   3)  0.0048 (   1)  0.0034 (   2)
................................................................................
.............................. CYCLE   95 ......................................
................................................................................
   1    -50.7316146 -0.507316E+02  0.784E-03    9.24       0.0  T
   2    -50.7316146 -0.605207E-08  0.591E-03    9.24       3.3  T
   3    -50.7316146 -0.622726E-08  0.461E-04    9.24      42.5  T
   4    -50.7316146 -0.566033E-09  0.167E-04    9.24     117.4  T
speedup  1.05
cpu  time for SCC    0.00 s
wall time for SCC    0.00 s
speedup  0.98
cpu  time for grad    0.01 s
wall time for grad    0.01 s
 E :    -50.45881980  G :  0.000311    pred/act E change: -0.333D-06 -0.311D-06
Maxdispl :   0.0104   ||displ|| :   0.0154   Lambda : -0.445D-06
Largest |displ|/coords:  0.0104 (   3)  0.0052 (   1)  0.0043 (   9)
................................................................................
.............................. CYCLE   96 ......................................
................................................................................
   1    -50.7316114 -0.507316E+02  0.926E-03    9.24       0.0  T
   2    -50.7316114 -0.725406E-08  0.698E-03    9.24       2.8  T
   3    -50.7316114 -0.809653E-08  0.505E-04    9.24      38.8  T
   4    -50.7316114 -0.504897E-09  0.184E-04    9.24     106.6  T
speedup  1.11
cpu  time for SCC    0.00 s
wall time for SCC    0.00 s
speedup  1.00
cpu  time for grad    0.01 s
wall time for grad    0.01 s
 E :    -50.45882010  G :  0.000278    pred/act E change: -0.218D-06 -0.303D-06
Maxdispl :   0.0089   ||displ|| :   0.0123   Lambda : -0.247D-06
Largest |displ|/coords:  0.0089 (   3)  0.0041 (   1)  0.0035 (   9)
................................................................................
.............................. CYCLE   97 ......................................
................................................................................
   1    -50.7315801 -0.507316E+02  0.729E-03    9.24       0.0  T
   2    -50.7315801 -0.397045E-08  0.549E-03    9.24       3.6  T
   3    -50.7315801 -0.463257E-08  0.390E-04    9.24      50.2  T
   4    -50.7315801 -0.243162E-09  0.126E-04    9.24     155.2  T
speedup  1.11
cpu  time for SCC    0.00 s
wall time for SCC    0.00 s
speedup  1.00
cpu  time for grad    0.01 s
wall time for grad    0.01 s
 E :    -50.45882027  G :  0.000185    pred/act E change: -0.222D-06 -0.170D-06
Maxdispl :   0.0055   ||displ|| :   0.0085   Lambda : -0.143D-06
Largest |displ|/coords:  0.0055 (   3)  0.0032 (   9)  0.0030 (   1)
................................................................................
.............................. CYCLE   98 ......................................
................................................................................
   1    -50.7315459 -0.507315E+02  0.466E-03    9.24       0.0  T
   2    -50.7315459 -0.228158E-08  0.351E-03    9.24       5.6  T
   3    -50.7315459 -0.232308E-08  0.288E-04    9.24      68.2  T
   4    -50.7315459 -0.207052E-09  0.107E-04    9.24     183.1  T
speedup  1.08
cpu  time for SCC    0.00 s
wall time for SCC    0.00 s
speedup  0.99
cpu  time for grad    0.01 s
wall time for grad    0.01 s
 E :    -50.45882037  G :  0.000117    pred/act E change: -0.124D-06 -0.952D-07
Maxdispl :   0.0042   ||displ|| :   0.0059   Lambda : -0.784D-07
Largest |displ|/coords:  0.0042 (   3)  0.0024 (   1)  0.0015 (   9)

   *** GEOMETRY OPTIMIZATION CONVERGED AFTER 98 ITERATIONS ***

------------------------------------------------------------------------
 total energy gain (kcal):     -0.1244
------------------------------------------------------------------------
================
 final structure:
================
$coord
       -1.91905593631223       -0.09872550724224       -0.57674217302511      S 
       -1.01280894747964       -2.64299380814333       -1.17809882107080      O 
       -2.29442400270835        1.38475707788292       -2.88236074785339      O 
       -4.07998506458345       -0.10894295566614        1.07611817533433      O 
        0.31397580664715        1.28120674834350        0.79011423961126      O 
       -2.07306133119125       -4.54055880424854        3.34429697383350      O 
       -3.78025278704711       -3.95490734118528        3.55429598317096      H 
       -1.65254865895118       -4.14674150160670        1.59085246692353      H 
        2.40336141284604       -3.13823025292364       -4.60274350837588      O 
        1.81981160255889       -4.44221892073873       -5.71770146847520      H 
        1.17667140278835       -3.09856454770685       -3.17346870887919      H 
       -4.06291757214682        1.71859618554849        5.74584513557783      O 
       -4.30702206031159        1.06021298380462        4.03062268736957      H 
       -4.57427614363649        3.45406836322353        5.69611918977636      H 
        1.54923587896358        1.50576332078659       -5.47890604361697      O 
       -0.21328663998189        1.54219797612187       -4.46151077646161      H 
        2.82524794007192        2.41743410884906       -4.23024151075177      H 
        2.03297542018844       -0.35932971623310       -5.41662705461543      H 
        0.43198949808571       -0.58920647039689        5.14707734534828      O 
       -0.24345544944887       -2.29137668342387        4.78889657230259      H 
        0.45641517298565        0.52162944318470        2.58855886278998      H 
       -0.98728217585972        0.32439809879540        5.89860137932086      H 
        4.35780024747723        3.42189002675880       -2.07569143627953      N 
        4.62263984816552        5.31361784989569       -2.00895487259332      H 
        6.04017437388362        2.55450501367669       -1.80432459279697      H 
        3.17007820279626        2.91151933152455       -0.64402723988888      H 
$end
 
 Bond Distances (Angstroems)
 ---------------------------
S1-O2=1.4642         S1-O3=1.4643         S1-O4=1.4397         S1-O5=1.5661         O2-S1=1.4642         O3-S1=1.4643         
O4-S1=1.4397         O5-S1=1.5661         O5-H21=1.0358        O6-H7=0.9615         O6-H8=0.9767         H7-O6=0.9615         
H8-O6=0.9767         O9-H10=0.9590        O9-H11=0.9969        H10-O9=0.9590        H11-O9=0.9969        O12-H13=0.9808       
O12-H14=0.9578       H13-O12=0.9808       H14-O12=0.9578       O15-H16=1.0771       O15-H17=1.0608       O15-H18=1.0202       
H16-O15=1.0771       H17-O15=1.0608       H18-O15=1.0202       O19-H20=0.9874       O19-H22=0.9777       H20-O19=0.9874       
H21-O5=1.0358        H22-O19=0.9777       N23-H24=1.0114       N23-H25=1.0119       N23-H26=1.0208       H24-N23=1.0114       
H25-N23=1.0119       H26-N23=1.0208       
 N  H  Rav=1.0147 sigma=0.0043  Rmin=1.0114  Rmax=1.0208     3
 O  H  Rav=0.9993 sigma=0.0386  Rmin=0.9578  Rmax=1.0771    12
 S  O  Rav=1.4836 sigma=0.0487  Rmin=1.4397  Rmax=1.5661     4
 
 selected bond angles (degree)
 --------------------
O3-S1-O2=110.87                O4-S1-O2=112.88                O4-S1-O3=113.61                O5-S1-O2=106.38                
O5-S1-O3=103.72                O5-S1-O4=108.69                H21-O5-S1=107.36               H8-O6-H7=104.78                
H11-O9-H10=105.80              
 
 selected dihedral angles (degree)
 ---------------------------------
H21-O5-S1-O2=286.83           H21-O5-S1-O3=169.82           H21-O5-S1-O4= 48.64           
 
 CMA Distance (Angstroems)
 ---------------------------
R(CMA):  1.2558

========================================================================
 FINAL SINGLEPOINT CALCULATION ON OPTIMIZED GEOMETRY
========================================================================

 Ncao       : 65
 Nao        : 64
 Nshell     : 38
 Nel        : 80
 T(el)      :   300.0
 intcut     :    25.0
 scfconv/Eh :  0.100E-05
   qconv/e  :  0.100E-03
 intneglect :  0.100E-07
 broydamp   :      0.250
 iter      E             dE          RMSdq      gap      omega  full diag
   1    -50.7315459 -0.507315E+02  0.411E-05    9.24       0.0  T
   2    -50.7315459 -0.105160E-11  0.267E-05    9.24     735.0  T
   3    -50.7315459 -0.845546E-12  0.560E-06    9.24    3505.2  T
speedup  1.11
cpu  time for SCC    0.00 s
wall time for SCC    0.00 s

   *** convergence criteria satisfied after 3 iterations ***

          eigenvalues
 #    :          28         29         30         31         32         33         34         35
 occ. :        2.000      2.000      2.000      2.000      2.000      2.000      2.000      2.000
 eps  :       -13.482    -13.153    -12.646    -12.610    -12.412    -12.335    -12.151    -12.027
 #    :          36         37         38         39         40         41         42         43
 occ. :        2.000      2.000      2.000      2.000      2.000      0.000      0.000      0.000
 eps  :       -11.969    -11.926    -11.825    -11.780    -11.679     -2.442     -0.504     -0.243
 #    :          44         45         46         47         48         49         50         51
 occ. :        0.000      0.000      0.000      0.000      0.000      0.000      0.000      0.000
 eps  :         0.798      1.124      1.266      1.562      3.357      3.461      4.299      4.858


   #   Z            q   n(s)   n(p)   n(d)      C6AA      α(0)
   1  16 S      1.699  1.579  1.776  0.946    88.791    15.859
   2   8 O     -0.767  1.780  4.987  0.000    30.599     7.417
   3   8 O     -0.719  1.766  4.953  0.000    29.146     7.242
   4   8 O     -0.729  1.765  4.964  0.000    29.509     7.283
   5   8 O     -0.676  1.770  4.906  0.000    27.048     7.021
   6   8 O     -0.610  1.745  4.865  0.000    25.425     6.805
   7   1 H      0.299  0.701  0.000  0.000     0.723     1.335
   8   1 H      0.315  0.685  0.000  0.000     0.678     1.293
   9   8 O     -0.611  1.747  4.864  0.000    25.446     6.808
  10   1 H      0.296  0.704  0.000  0.000     0.733     1.345
  11   1 H      0.343  0.657  0.000  0.000     0.606     1.223
  12   8 O     -0.614  1.744  4.870  0.000    25.533     6.820
  13   1 H      0.326  0.674  0.000  0.000     0.649     1.265
  14   1 H      0.280  0.720  0.000  0.000     0.783     1.390
  15   8 O     -0.517  1.731  4.787  0.000    23.210     6.507
  16   1 H      0.388  0.612  0.000  0.000     0.499     1.106
  17   1 H      0.355  0.645  0.000  0.000     0.567     1.178
  18   1 H      0.375  0.625  0.000  0.000     0.534     1.148
  19   8 O     -0.617  1.764  4.853  0.000    25.584     6.828
  20   1 H      0.335  0.665  0.000  0.000     0.624     1.242
  21   1 H      0.382  0.618  0.000  0.000     0.515     1.125
  22   1 H      0.334  0.666  0.000  0.000     0.628     1.244
  23   7 N     -0.430  1.343  4.088  0.000    31.214     8.298
  24   1 H      0.174  0.826  0.000  0.000     1.247     1.749
  25   1 H      0.177  0.823  0.000  0.000     1.230     1.737
  26   1 H      0.213  0.787  0.000  0.000     1.042     1.599

 Mol. C6AA /au·bohr⁶  :       5473.596661
 Mol. C8AA /au·bohr⁸  :     118317.569146
 Mol. α(0) /au        :        106.867704

 
 Wiberg/Mayer (AO) data. WBOs > 0.1 written file <wbo>
 largest (>0.05) Wiberg bond orders for each atom
           total WBO             WBO to atom ...
     1  S   4.852    O    4 1.359    O    3 1.261    O    2 1.243    O    5 0.939
     2  O   1.721    S    1 1.243    O    4 0.101    O    3 0.100    H   11 0.086    O    5 0.079    H    8 0.053
     3  O   1.795    S    1 1.261    H   16 0.204    O    2 0.100    O    4 0.092    O    5 0.065    O   15 0.058
     4  O   1.734    S    1 1.359    O    2 0.101    O    3 0.092    O    5 0.084    H   13 0.055
     5  O   1.921    S    1 0.939    H   21 0.651    O    4 0.084    O    2 0.079    O    3 0.065    O   19 0.060
     6  O   1.881    H    7 0.905    H    8 0.844    H   20 0.069
     7  H   0.910    O    6 0.905
     8  H   0.901    O    6 0.844    O    2 0.053
     9  O   1.922    H   10 0.908    H   11 0.792    H   18 0.129
    10  H   0.912    O    9 0.908
    11  H   0.883    O    9 0.792    O    2 0.086
    12  O   1.847    H   14 0.916    H   13 0.835
    13  H   0.894    O   12 0.835    O    4 0.055
    14  H   0.921    O   12 0.916
    15  O   2.230    H   18 0.728    H   17 0.661    H   16 0.635    N   23 0.077    O    3 0.058
    16  H   0.849    O   15 0.635    O    3 0.204
    17  H   0.874    O   15 0.661    N   23 0.210
    18  H   0.860    O   15 0.728    O    9 0.129
    19  O   1.970    H   22 0.841    H   20 0.817    H   21 0.186    O    5 0.060
    20  H   0.888    O   19 0.817    O    6 0.069
    21  H   0.854    O    5 0.651    O   19 0.186
    22  H   0.889    O   19 0.841
    23  N   3.167    H   24 0.967    H   25 0.966    H   26 0.925    H   17 0.210    O   15 0.077
    24  H   0.970    N   23 0.967
    25  H   0.969    N   23 0.966
    26  H   0.955    N   23 0.925
 MOs/occ written to file <molden.input>
 
molecular dipole:
                 x           y           z       tot (Debye)
 q only:        1.878       1.127      -1.337
   full:        1.422       1.190      -1.101       5.483
molecular quadrupole (traceless):
                xx          xy          yy          xz          yz          zz
 q only:       -0.662       5.851       2.004      -6.832       5.827      -1.342
  q+dip:        3.320       6.834       5.323      -5.578      11.559      -8.643
   full:        3.151       6.773       5.338      -5.723      11.688      -8.489

SCC energy    :     -50.7315459
rep           :       0.2725111
ES            :       0.2477720
AES           :      -0.0689498
AXC           :      -0.0081904
disp          :      -0.0191280
XB            :       0.0000000
fix           :       0.0000000
total E       :     -50.4588204
atomizationE  :       4.9891245     3130.72
(atE without considering molecular charge,
 total energy contains solvation terms)
H-L gap (eV)  :          9.2378
optimized geometry written to: xtbopt.xyz


------------------------------------------------------------------------
 * finished run on 2019/09/16 at 12:04:27.708     
------------------------------------------------------------------------
 total:
 * wall-time:     0 d,  0 h,  0 min,  2.184 sec
 *  cpu-time:     0 d,  0 h,  0 min,  2.166 sec
 * ratio c/w:     0.991 speedup
 SCF:
 * wall-time:     0 d,  0 h,  0 min,  0.139 sec
 *  cpu-time:     0 d,  0 h,  0 min,  0.136 sec
 * ratio c/w:     0.978 speedup
 ANC optimizer:
 * wall-time:     0 d,  0 h,  0 min,  2.021 sec
 *  cpu-time:     0 d,  0 h,  0 min,  2.008 sec
 * ratio c/w:     0.993 speedup

