      -----------------------------------------------------------      
     |                   =====================                   |     
     |                           x T B                           |     
     |                   =====================                   |     
     |                         S. Grimme                         |     
     |          Mulliken Center for Theoretical Chemistry        |     
     |                    University of Bonn                     |     
     |                 Version 6.0.1 (SAW181210)                 |     
      -----------------------------------------------------------      

   This program is distributed in the hope that it will be useful,
   but WITHOUT ANY WARRANTY; without even the implied warranty of
   MERCHANTABILITY or FITNESS FOR A PARTICULAR PURPOSE.
   
   FOR NON-COMMERCIAL, ACADEMIA USE ONLY.
   
   Cite this work as:
   S. Grimme, C. Bannwarth, P. Shushkov, J. Comput. Theory Chem., 2017,
   13, 1989-2009.
   C. Bannwarth, S. Ehlert and S. Grimme., ChemRxiv, 2018, preprint.
   http://doi.org/10.26434/chemrxiv.7246238.v1
   
   for sTDA-xTB:
   S. Grimme and C. Bannwarth, J. Chem. Phys., 2016, 145, 054103.
   
   in the mass-spec context:
   V. Asgeirsson, C. Bauer and S. Grimme, Chem. Sci., 2017, 8, 4879.
   
   if GBSA is used:
   P. Shushkov, F. März and S. Grimme, unpublished.
   
   for ANC optimizer:
   S. Grimme, unpublished.
   Rational Function algorithm used in ANCopt:
   F. Eckert, P. Pulay, H.-J. Werner, J. Comput. Chem., 1997, 18, 1473.
   
   with help from (in alphabetical order)
   C. Bannwarth, F. Bohle, G. Brandenburg, E. Caldeweyher, M. Checinski,
   S. Dohm, S. Ehlert, S. Ehrlich, F. März, H. Neugebauer, J. Pisarek,
   P. Pracht, P. Shushkov, and S. Spicher.
   
 * started run on 2019/09/16 at 12:07:09.751     
========================================================================
 # omp threads = 1
========================================================================
number of atoms            : 26
number of electrons        : 80
charge                     : 0
spin                       : .0
first test random number   : .4303

########################################################################
# WARNING! Please study the warnings concerning your input carefully
#  - XTBPATH is not set, using XTBHOME instead
#  - the use of '-opt' is discouraged, please use '--opt' next time
#  - the use of '-chrg' is discouraged, please use '--chrg' next time
#  - the use of '-uhf' is discouraged, please use '--uhf' next time
########################################################################

           ------------------------------------------------- 
          |                 G F N 2 - x T B                 |
          | Geometry, Frequencies, Noncovalent interactions |
          |            JCTC 2018 parametrisation            |
           ------------------------------------------------- 
      method parameters     
 k(s)        :  1.8500
 k(p)        :  2.2300
 k(d)        :  2.2300
 k(f)        :  2.0000
 kEN (H0ij)  : -2.0000
 D4 a1       :  0.5200
 D4 a2       :  5.0000
 D4 s6       :  1.0000
 D4 s8       :  2.7000
 D4 s9       :  5.0000
 alphaj      :  2.0000


            Z     q(EN)     CN     RAES       Cart. coordinates
     1  S   6.0    0.64    4.27    4.19     0.49216    -4.19084     0.99816
     2  O   6.0   -0.31    1.21    1.80     0.57057    -4.09539    -1.81483
     3  O   6.0   -0.32    1.21    1.80     2.74467    -2.86509     2.04539
     4  O   6.0   -0.33    1.25    1.80    -1.85107    -2.92733     1.91518
     5  O   6.0   -0.25    2.08    1.84     0.50430    -6.83879     1.83526
     6  H   1.0    0.15    1.21    1.47     2.01377    -7.65364     1.24482
     7  O   6.0   -0.29    2.00    1.83     4.32402     4.81476    -0.87573
     8  H   1.0    0.16    1.04    1.43     4.23164     3.75395     0.60101
     9  H   1.0    0.15    0.97    1.43     6.05504     5.37243    -0.96040
    10  O   6.0   -0.29    2.01    1.83    -1.09895     2.17529     2.39938
    11  H   1.0    0.16    1.02    1.43     0.63437     2.24686     2.95174
    12  H   1.0    0.17    1.03    1.43    -1.57463     0.42295     2.53223
    13  O   6.0   -0.31    2.07    1.83     4.05879     1.79934     3.21440
    14  H   1.0    0.18    1.05    1.44     3.74952     0.08588     2.68239
    15  H   1.0    0.15    0.97    1.43     4.90961     1.65946     4.81788
    16  O   6.0   -0.29    2.02    1.83    -6.01989    -1.40118    -0.50873
    17  H   1.0    0.15    0.97    1.43    -7.37871    -0.98043     0.62758
    18  H   1.0    0.17    1.04    1.43    -4.68906    -2.04918     0.55127
    19  O   6.0   -0.29    2.05    1.83    -0.48738     4.09062    -2.23041
    20  H   1.0    0.17    1.03    1.43     1.24498     4.63845    -2.11442
    21  H   1.0    0.16    1.03    1.43    -1.01473     3.79464    -0.51317
    22  N   5.0   -0.14    3.94    2.71    -2.28380    -0.37055    -3.87980
    23  H   1.0    0.09    0.99    1.43    -2.67084    -0.47312    -5.78351
    24  H   1.0    0.11    1.05    1.44    -3.92565    -0.63085    -2.86933
    25  H   1.0    0.12    1.07    1.44    -1.00263    -1.75466    -3.40306
    26  H   1.0    0.11    1.07    1.44    -1.53610     1.37642    -3.46329

  Z AO/shell   Hii/eV     exponent
  1     Wed Apr 25 08:07:45 CEST 2018   EN: 2.200 GM2: 0.406  GM3: 0.0800  RAES: 1.40
     1s    -10.707211    1.230000
  7     Wed Apr 25 08:07:45 CEST 2018   EN: 3.040 GM2: 0.461  GM3:-0.0640  RAES: 1.90
     2s    -16.686243    2.339881
     2p    -12.523956    2.014332
  8     Wed Apr 25 08:07:45 CEST 2018   EN: 3.440 GM2: 0.452  GM3:-0.0517  RAES: 1.80
     2s    -20.229985    2.439742
     2p    -15.503117    2.137023
 16     Tue Apr 24 11:44:34 CEST 2018   EN: 2.580 GM2: 0.340  GM3:-0.0502  RAES: 3.10
     3s    -20.029654    1.981333
     3p    -11.377694    2.025643
     3d     -0.420282    1.702555
 no old-style atom pair restraining (fixing) potential

molecular fragmentation (1/2 indicates fragments):
11111122222222222222222222
# atoms in fragment 1/2:     6    20
 fragment masses (1/2) :       97.07      108.11
CMA distance (Bohr)    :   6.203
constraining FC (au)   :  0.0500
           ------------------------------------------------- 
          |        Self-Consistent Charge Iterations        |
           ------------------------------------------------- 

 Ncao       : 65
 Nao        : 64
 Nshell     : 38
 Nel        : 80
 T(el)      :   300.0
 intcut     :    25.0
 scfconv/Eh :  0.100E-05
   qconv/e  :  0.100E-03
 intneglect :  0.100E-07
 broydamp   :      0.250
 iter      E             dE          RMSdq      gap      omega  full diag
   1    -50.6531628 -0.506532E+02  0.701E+00   10.42       0.0  T
   2    -50.7045707 -0.514079E-01  0.506E+00    9.96       1.0  T
   3    -50.7434762 -0.389055E-01  0.136E+00    8.65       1.0  T
   4    -50.7485860 -0.510973E-02  0.576E-01    9.08       1.0  T
   5    -50.7492747 -0.688752E-03  0.313E-01    9.04       1.0  T
   6    -50.7497217 -0.446975E-03  0.137E-01    9.03       1.0  T
   7    -50.7498244 -0.102702E-03  0.512E-02    9.05       1.0  T
   8    -50.7498368 -0.124013E-04  0.306E-02    9.04       1.0  T
   9    -50.7498419 -0.510939E-05  0.127E-02    9.04       1.5  T
  10    -50.7498430 -0.103734E-05  0.248E-03    9.03       7.9  T
  11    -50.7498430 -0.218712E-07  0.122E-03    9.03      16.1  T
  12    -50.7498430 -0.798475E-08  0.358E-04    9.03      54.7  T
  13    -50.7498430 -0.566992E-09  0.127E-04    9.03     153.9  T
speedup  1.03
cpu  time for SCC    0.02 s
wall time for SCC    0.02 s

   *** convergence criteria satisfied after 13 iterations ***

          eigenvalues
 #    :          28         29         30         31         32         33         34         35
 occ. :        2.000      2.000      2.000      2.000      2.000      2.000      2.000      2.000
 eps  :       -12.780    -12.676    -11.978    -11.879    -11.814    -11.604    -11.594    -11.536
 #    :          36         37         38         39         40         41         42         43
 occ. :        2.000      2.000      2.000      2.000      2.000      0.000      0.000      0.000
 eps  :       -11.327    -11.162    -11.039    -10.966    -10.843     -1.808     -0.577     -0.019
 #    :          44         45         46         47         48         49         50         51
 occ. :        0.000      0.000      0.000      0.000      0.000      0.000      0.000      0.000
 eps  :         0.891      1.118      1.438      2.502      3.171      3.805      4.135      5.066


   #   Z            q   n(s)   n(p)   n(d)      C6AA      α(0)
   1  16 S      1.606  1.584  1.835  0.975    90.931    16.049
   2   8 O     -0.759  1.773  4.986  0.000    30.358     7.387
   3   8 O     -0.760  1.776  4.984  0.000    30.403     7.393
   4   8 O     -0.742  1.770  4.972  0.000    29.879     7.329
   5   8 O     -0.546  1.719  4.827  0.000    23.896     6.599
   6   1 H      0.360  0.640  0.000  0.000     0.556     1.167
   7   8 O     -0.611  1.741  4.871  0.000    25.460     6.810
   8   1 H      0.329  0.671  0.000  0.000     0.639     1.256
   9   1 H      0.274  0.726  0.000  0.000     0.806     1.410
  10   8 O     -0.636  1.745  4.892  0.000    26.072     6.892
  11   1 H      0.310  0.690  0.000  0.000     0.691     1.305
  12   1 H      0.309  0.691  0.000  0.000     0.696     1.310
  13   8 O     -0.614  1.739  4.876  0.000    25.535     6.820
  14   1 H      0.344  0.656  0.000  0.000     0.603     1.220
  15   1 H      0.287  0.713  0.000  0.000     0.762     1.371
  16   8 O     -0.614  1.731  4.883  0.000    25.531     6.820
  17   1 H      0.289  0.711  0.000  0.000     0.756     1.366
  18   1 H      0.332  0.668  0.000  0.000     0.633     1.250
  19   8 O     -0.640  1.742  4.899  0.000    26.170     6.904
  20   1 H      0.326  0.674  0.000  0.000     0.648     1.265
  21   1 H      0.326  0.674  0.000  0.000     0.646     1.263
  22   7 N     -0.310  1.253  4.057  0.000    27.953     7.853
  23   1 H      0.236  0.764  0.000  0.000     0.941     1.520
  24   1 H      0.301  0.699  0.000  0.000     0.710     1.320
  25   1 H      0.298  0.702  0.000  0.000     0.719     1.328
  26   1 H      0.307  0.693  0.000  0.000     0.693     1.304

 Mol. C6AA /au·bohr⁶  :       5440.279884
 Mol. C8AA /au·bohr⁸  :     117916.986801
 Mol. α(0) /au        :        106.509950

 
 Wiberg/Mayer (AO) data. WBOs > 0.1 written file <wbo>
 largest (>0.05) Wiberg bond orders for each atom
           total WBO             WBO to atom ...
     1  S   4.911    O    4 1.302    O    3 1.297    O    2 1.281    O    5 0.992
     2  O   1.685    S    1 1.281    O    3 0.113    O    4 0.113    O    5 0.072    H   25 0.072
     3  O   1.671    S    1 1.297    O    2 0.113    O    4 0.110    O    5 0.074    H   14 0.054
     4  O   1.709    S    1 1.302    O    2 0.113    O    3 0.110    O    5 0.053
     5  O   2.044    S    1 0.992    H    6 0.846    O    3 0.074    O    2 0.072    O    4 0.053
     6  H   0.870    O    5 0.846
     7  O   1.831    H    9 0.915    H    8 0.845
     8  H   0.892    O    7 0.845
     9  H   0.925    O    7 0.915
    10  O   1.842    H   11 0.865    H   12 0.863
    11  H   0.904    O   10 0.865
    12  H   0.905    O   10 0.863
    13  O   1.873    H   15 0.907    H   14 0.821
    14  H   0.882    O   13 0.821    O    3 0.054
    15  H   0.918    O   13 0.907
    16  O   1.852    H   17 0.905    H   18 0.838    H   24 0.057
    17  H   0.917    O   16 0.905
    18  H   0.890    O   16 0.838
    19  O   1.878    H   20 0.853    H   21 0.843    H   26 0.090
    20  H   0.894    O   19 0.853
    21  H   0.893    O   19 0.843
    22  N   3.552    H   23 0.941    H   24 0.847    H   25 0.833    H   26 0.811
    23  H   0.944    N   22 0.941
    24  H   0.909    N   22 0.847    O   16 0.057
    25  H   0.911    N   22 0.833    O    2 0.072
    26  H   0.906    N   22 0.811    O   19 0.090
 MOs/occ written to file <molden.input>
 
molecular dipole:
                 x           y           z       tot (Debye)
 q only:       -0.362       0.049      -1.435
   full:        0.279      -0.956      -0.565       2.909
molecular quadrupole (traceless):
                xx          xy          yy          xz          yz          zz
 q only:        4.501       0.779      -9.403       9.944       2.329       4.902
  q+dip:        5.616       1.385      -8.153       9.956       1.529       2.537
   full:        5.748       1.368      -8.087      10.075       1.208       2.339

SCC energy    :     -50.7498430
rep           :       0.3086795
ES            :       0.2893542
AES           :      -0.0736361
AXC           :      -0.0093519
disp          :      -0.0175001
XB            :       0.0000000
fix           :       0.0000000
total E       :     -50.4408230
atomizationE  :       4.9711271     3119.43
(atE without considering molecular charge,
 total energy contains solvation terms)
H-L gap (eV)  :          9.0345
           ------------------------------------------------- 
          |                 ===============                 |
          |                   A N C O P T                   |
          |                 ===============                 |
          |          Approximate Normal Coordinate          |
          |           Rational Function Optimizer           |
           ------------------------------------------------- 
dumping coords to <xtbopt.coord> and <xtbopt.log>
 optlevel               2
 Maxcycle             520
 Maxmicro              25
 Econv         1.000000000000000E-007
 Gconv         2.000000000000000E-004
 Maxdispl       1.00000000000000     
 Hlow          5.000000000000000E-003
 S6             20.0000000000000     
 Nvar               72

generating ANC from model Hessian ...
 Shifting diagonal of input Hessian by   5.114396753298738E-003
 Lowest  eigenvalues of input Hessian
    0.005000   -0.000000   -0.000000   -0.000000   -0.000000    0.000000
    0.000000    0.005214    0.005386    0.005523    0.005960    0.006311
    0.007562    0.007952    0.008648    0.009032    0.010322    0.010926
 Highest eigenvalues
    1.428960    1.433101    1.454666    3.144620    3.218310    3.316639
 
cpu  time for ANC gen    0.01 s
wall time for ANC gen    0.01 s
................................................................................
.............................. CYCLE    1 ......................................
................................................................................
   1    -50.7498430 -0.507498E+02  0.838E-05    9.03       0.0  T
   2    -50.7498430 -0.135785E-10  0.665E-05    9.03     294.9  T
   3    -50.7498430 -0.174651E-10  0.302E-05    9.03     649.8  T
speedup  1.03
cpu  time for SCC    0.00 s
wall time for SCC    0.00 s
speedup  1.07
cpu  time for grad    0.01 s
wall time for grad    0.01 s
 E :    -50.44082293  G :  0.166396    pred/act E change:  0.000D+00  0.497D-07
Maxdispl :   0.1706   ||displ|| :   0.3336   Lambda : -0.157D-01
Largest |displ|/coords:  0.1706 (  30)  0.1081 (  19)  0.0887 (  25)
................................................................................
.............................. CYCLE    2 ......................................
................................................................................
   1    -50.7497347 -0.507497E+02  0.321E-01    9.12       0.0  T
   2    -50.7499160 -0.181369E-03  0.243E-01    9.15       1.0  T
   3    -50.7499798 -0.637184E-04  0.876E-02    9.20       1.0  T
   4    -50.7499979 -0.181482E-04  0.202E-02    9.19       1.0  T
   5    -50.7499987 -0.772105E-06  0.518E-03    9.19       3.8  T
   6    -50.7499987 -0.412058E-07  0.250E-03    9.19       7.8  T
speedup  1.11
cpu  time for SCC    0.01 s
wall time for SCC    0.01 s
speedup  1.00
cpu  time for grad    0.01 s
wall time for grad    0.01 s
 E :    -50.45289695  G :  0.106243    pred/act E change:  0.000D+00 -0.121D-01
Maxdispl :   0.0983   ||displ|| :   0.2909   Lambda : -0.815D-02
Largest |displ|/coords:  0.0983 (  23)  0.0962 (  27)  0.0869 (  25)
................................................................................
.............................. CYCLE    3 ......................................
................................................................................
   1    -50.7539102 -0.507539E+02  0.211E-01    9.25       0.0  T
   2    -50.7540537 -0.143551E-03  0.162E-01    9.26       1.0  T
   3    -50.7540992 -0.454565E-04  0.863E-02    9.26       1.0  T
   4    -50.7541034 -0.425605E-05  0.165E-02    9.25       1.2  T
   5    -50.7541038 -0.371235E-06  0.509E-03    9.25       3.9  T
   6    -50.7541038 -0.395678E-07  0.194E-03    9.25      10.1  T
speedup  0.93
cpu  time for SCC    0.01 s
wall time for SCC    0.01 s
speedup  0.99
cpu  time for grad    0.01 s
wall time for grad    0.01 s
 E :    -50.45924607  G :  0.063270    pred/act E change: -0.873D-02 -0.635D-02
Maxdispl :   0.0667   ||displ|| :   0.2363   Lambda : -0.385D-02
Largest |displ|/coords:  0.0667 (  25)  0.0658 (   1)  0.0626 (  10)
................................................................................
.............................. CYCLE    4 ......................................
................................................................................
   1    -50.7556839 -0.507557E+02  0.191E-01    9.24       0.0  T
   2    -50.7557641 -0.801525E-04  0.148E-01    9.24       1.0  T
   3    -50.7557882 -0.241157E-04  0.658E-02    9.24       1.0  T
   4    -50.7557933 -0.506131E-05  0.145E-02    9.24       1.4  T
   5    -50.7557935 -0.256796E-06  0.386E-03    9.24       5.1  T
   6    -50.7557936 -0.232544E-07  0.142E-03    9.24      13.8  T
speedup  1.07
cpu  time for SCC    0.01 s
wall time for SCC    0.01 s
speedup  0.98
cpu  time for grad    0.01 s
wall time for grad    0.01 s
 E :    -50.46206488  G :  0.033347    pred/act E change: -0.442D-02 -0.282D-02
Maxdispl :   0.1544   ||displ|| :   0.2992   Lambda : -0.240D-02
Largest |displ|/coords:  0.1544 (   1)  0.0933 (   4)  0.0927 (  10)
................................................................................
.............................. CYCLE    5 ......................................
................................................................................
   1    -50.7588544 -0.507589E+02  0.229E-01    9.14       0.0  T
   2    -50.7589212 -0.667665E-04  0.178E-01    9.15       1.0  T
   3    -50.7589426 -0.214653E-04  0.577E-02    9.17       1.0  T
   4    -50.7589513 -0.864886E-05  0.166E-02    9.17       1.2  T
   5    -50.7589516 -0.323893E-06  0.299E-03    9.17       6.6  T
   6    -50.7589516 -0.176260E-07  0.145E-03    9.17      13.6  T
speedup  0.94
cpu  time for SCC    0.00 s
wall time for SCC    0.01 s
speedup  1.00
cpu  time for grad    0.01 s
wall time for grad    0.01 s
 E :    -50.46329127  G :  0.015875    pred/act E change: -0.203D-02 -0.123D-02
Maxdispl :   0.1459   ||displ|| :   0.3685   Lambda : -0.164D-02
Largest |displ|/coords:  0.1459 (  20)  0.1398 (   1)  0.1211 (   5)
................................................................................
.............................. CYCLE    6 ......................................
................................................................................
   1    -50.7521783 -0.507522E+02  0.385E-01    9.07       0.0  T
   2    -50.7522497 -0.713888E-04  0.291E-01    9.08       1.0  T
   3    -50.7522926 -0.428984E-04  0.478E-02    9.10       1.0  T
   4    -50.7523036 -0.110019E-04  0.184E-02    9.10       1.1  T
   5    -50.7523040 -0.427597E-06  0.364E-03    9.10       5.4  T
   6    -50.7523040 -0.149222E-07  0.224E-03    9.10       8.8  T
   7    -50.7523041 -0.941750E-08  0.623E-04    9.10      31.5  T
speedup  0.97
cpu  time for SCC    0.01 s
wall time for SCC    0.01 s
speedup  1.00
cpu  time for grad    0.01 s
wall time for grad    0.01 s
 E :    -50.46298214  G :  0.043211    pred/act E change: -0.131D-02  0.309D-03
Maxdispl :   0.1001   ||displ|| :   0.1663   Lambda : -0.242D-02
Largest |displ|/coords:  0.1001 (  20)  0.0536 (  11)  0.0511 (   3)
................................................................................
.............................. CYCLE    7 ......................................
................................................................................
   1    -50.7581791 -0.507582E+02  0.227E-01    9.08       0.0  T
   2    -50.7582186 -0.395179E-04  0.171E-01    9.09       1.0  T
   3    -50.7582415 -0.229668E-04  0.366E-02    9.10       1.0  T
   4    -50.7582468 -0.524050E-05  0.112E-02    9.09       1.8  T
   5    -50.7582470 -0.235267E-06  0.336E-03    9.09       5.8  T
   6    -50.7582470 -0.607179E-08  0.171E-03    9.09      11.5  T
speedup  0.94
cpu  time for SCC    0.01 s
wall time for SCC    0.01 s
speedup  1.00
cpu  time for grad    0.01 s
wall time for grad    0.01 s
 E :    -50.46403908  G :  0.012527    pred/act E change: -0.929D-03 -0.106D-02
Maxdispl :   0.1523   ||displ|| :   0.2362   Lambda : -0.521D-03
Largest |displ|/coords:  0.1523 (   1)  0.1368 (   4)  0.0726 (  10)
................................................................................
.............................. CYCLE    8 ......................................
................................................................................
   1    -50.7549089 -0.507549E+02  0.238E-01    9.09       0.0  T
   2    -50.7549229 -0.140020E-04  0.181E-01    9.09       1.0  T
   3    -50.7549344 -0.114506E-04  0.192E-02    9.10       1.0  T
   4    -50.7549363 -0.191486E-05  0.458E-03    9.10       4.3  T
   5    -50.7549363 -0.190143E-07  0.212E-03    9.10       9.2  T
   6    -50.7549363 -0.333441E-08  0.913E-04    9.10      21.5  T
speedup  0.93
cpu  time for SCC    0.00 s
wall time for SCC    0.01 s
speedup  0.98
cpu  time for grad    0.01 s
wall time for grad    0.01 s
 E :    -50.46414391  G :  0.021656    pred/act E change: -0.125D-02 -0.105D-03
Maxdispl :   0.1921   ||displ|| :   0.2927   Lambda : -0.921D-03
Largest |displ|/coords:  0.1921 (   1)  0.0982 (   5)  0.0928 (   4)
................................................................................
.............................. CYCLE    9 ......................................
................................................................................
   1    -50.7572037 -0.507572E+02  0.183E-01    9.05       0.0  T
   2    -50.7572166 -0.128645E-04  0.137E-01    9.05       1.0  T
   3    -50.7572251 -0.852065E-05  0.210E-02    9.06       1.0  T
   4    -50.7572269 -0.183034E-05  0.690E-03    9.06       2.8  T
   5    -50.7572270 -0.946396E-07  0.220E-03    9.06       8.9  T
   6    -50.7572270 -0.286661E-08  0.128E-03    9.06      15.3  T
speedup  1.11
cpu  time for SCC    0.01 s
wall time for SCC    0.01 s
speedup  0.99
cpu  time for grad    0.01 s
wall time for grad    0.01 s
 E :    -50.46463905  G :  0.011801    pred/act E change: -0.275D-03 -0.495D-03
Maxdispl :   0.2317   ||displ|| :   0.4098   Lambda : -0.802D-03
Largest |displ|/coords:  0.2317 (   1)  0.1766 (   5)  0.1176 (  10)
................................................................................
.............................. CYCLE   10 ......................................
................................................................................
   1    -50.7541998 -0.507542E+02  0.226E-01    9.00       0.0  T
   2    -50.7542119 -0.120964E-04  0.171E-01    9.01       1.0  T
   3    -50.7542231 -0.112888E-04  0.207E-02    9.03       1.0  T
   4    -50.7542245 -0.130144E-05  0.655E-03    9.03       3.0  T
   5    -50.7542245 -0.556367E-07  0.228E-03    9.03       8.6  T
   6    -50.7542245 -0.528442E-08  0.121E-03    9.03      16.2  T
speedup  0.93
cpu  time for SCC    0.00 s
wall time for SCC    0.01 s
speedup  0.98
cpu  time for grad    0.01 s
wall time for grad    0.01 s
 E :    -50.46494674  G :  0.016376    pred/act E change: -0.500D-03 -0.308D-03
Maxdispl :   0.2197   ||displ|| :   0.3010   Lambda : -0.590D-03
Largest |displ|/coords:  0.2197 (   1)  0.1199 (  10)  0.0836 (   3)
................................................................................
.............................. CYCLE   11 ......................................
................................................................................
   1    -50.7545210 -0.507545E+02  0.133E-01    9.04       0.0  T
   2    -50.7545250 -0.398963E-05  0.100E-01    9.05       1.0  T
   3    -50.7545278 -0.278251E-05  0.136E-02    9.05       1.4  T
   4    -50.7545284 -0.628729E-06  0.488E-03    9.05       4.0  T
   5    -50.7545284 -0.252697E-07  0.135E-03    9.05      14.6  T
   6    -50.7545284 -0.239646E-08  0.805E-04    9.05      24.4  T
speedup  0.94
cpu  time for SCC    0.00 s
wall time for SCC    0.01 s
speedup  0.88
cpu  time for grad    0.01 s
wall time for grad    0.01 s
 E :    -50.46535876  G :  0.012832    pred/act E change: -0.469D-03 -0.412D-03
Maxdispl :   0.2633   ||displ|| :   0.3584   Lambda : -0.561D-03
Largest |displ|/coords:  0.2633 (   1)  0.1166 (  10)  0.0913 (   5)
................................................................................
.............................. CYCLE   12 ......................................
................................................................................
   1    -50.7580498 -0.507580E+02  0.155E-01    9.16       0.0  T
   2    -50.7580589 -0.908683E-05  0.116E-01    9.16       1.0  T
   3    -50.7580642 -0.531719E-05  0.220E-02    9.14       1.0  T
   4    -50.7580655 -0.126241E-05  0.696E-03    9.15       2.8  T
   5    -50.7580656 -0.648241E-07  0.157E-03    9.15      12.5  T
   6    -50.7580656 -0.272395E-08  0.892E-04    9.15      22.0  T
speedup  1.11
cpu  time for SCC    0.01 s
wall time for SCC    0.01 s
speedup  1.05
cpu  time for grad    0.01 s
wall time for grad    0.01 s
 E :    -50.46564745  G :  0.009775    pred/act E change: -0.322D-03 -0.289D-03
Maxdispl :   0.2082   ||displ|| :   0.3671   Lambda : -0.375D-03
Largest |displ|/coords:  0.2082 (   1)  0.1440 (  10)  0.1137 (   5)
................................................................................
.............................. CYCLE   13 ......................................
................................................................................
   1    -50.7545374 -0.507545E+02  0.182E-01    9.15       0.0  T
   2    -50.7545440 -0.660370E-05  0.137E-01    9.15       1.0  T
   3    -50.7545500 -0.608044E-05  0.171E-02    9.16       1.1  T
   4    -50.7545507 -0.703138E-06  0.471E-03    9.16       4.2  T
   5    -50.7545508 -0.370467E-07  0.180E-03    9.16      10.9  T
   6    -50.7545508 -0.489161E-08  0.100E-03    9.16      19.6  T
speedup  1.11
cpu  time for SCC    0.01 s
wall time for SCC    0.01 s
speedup  1.05
cpu  time for grad    0.01 s
wall time for grad    0.01 s
 E :    -50.46579616  G :  0.012111    pred/act E change: -0.317D-03 -0.149D-03
Maxdispl :   0.1044   ||displ|| :   0.1770   Lambda : -0.311D-03
Largest |displ|/coords:  0.1044 (   1)  0.0653 (   5)  0.0455 (   6)
................................................................................
.............................. CYCLE   14 ......................................
................................................................................
   1    -50.7566116 -0.507566E+02  0.102E-01    9.15       0.0  T
   2    -50.7566149 -0.337555E-05  0.762E-02    9.15       1.0  T
   3    -50.7566178 -0.291602E-05  0.114E-02    9.16       1.7  T
   4    -50.7566182 -0.375056E-06  0.362E-03    9.15       5.4  T
   5    -50.7566182 -0.156308E-07  0.116E-03    9.15      17.0  T
   6    -50.7566182 -0.153721E-08  0.671E-04    9.15      29.2  T
speedup  1.11
cpu  time for SCC    0.01 s
wall time for SCC    0.01 s
speedup  0.98
cpu  time for grad    0.01 s
wall time for grad    0.01 s
 E :    -50.46591354  G :  0.008146    pred/act E change: -0.213D-03 -0.117D-03
Maxdispl :   0.0295   ||displ|| :   0.0670   Lambda : -0.147D-03
Largest |displ|/coords:  0.0295 (  16)  0.0218 (  30)  0.0190 (   3)
................................................................................
.............................. CYCLE   15 ......................................
................................................................................
   1    -50.7583621 -0.507584E+02  0.564E-02    9.20       0.0  T
   2    -50.7583635 -0.144752E-05  0.425E-02    9.19       1.0  T
   3    -50.7583646 -0.110383E-05  0.664E-03    9.18       3.0  T
   4    -50.7583648 -0.200485E-06  0.192E-03    9.19      10.2  T
   5    -50.7583648 -0.656759E-08  0.675E-04    9.19      29.1  T
speedup  1.06
cpu  time for SCC    0.01 s
wall time for SCC    0.00 s
speedup  0.95
cpu  time for grad    0.01 s
wall time for grad    0.01 s
 E :    -50.46599552  G :  0.004421    pred/act E change: -0.160D-03 -0.820D-04
Maxdispl :   0.0817   ||displ|| :   0.1399   Lambda : -0.893D-04
Largest |displ|/coords:  0.0817 (   1)  0.0437 (  16)  0.0390 (   3)
................................................................................
.............................. CYCLE   16 ......................................
................................................................................
   1    -50.7571905 -0.507572E+02  0.913E-02    9.20       0.0  T
   2    -50.7571924 -0.184679E-05  0.689E-02    9.20       1.0  T
   3    -50.7571939 -0.154764E-05  0.790E-03    9.20       2.5  T
   4    -50.7571942 -0.239557E-06  0.180E-03    9.20      10.9  T
   5    -50.7571942 -0.530500E-08  0.855E-04    9.20      22.9  T
speedup  1.09
cpu  time for SCC    0.00 s
wall time for SCC    0.00 s
speedup  0.96
cpu  time for grad    0.01 s
wall time for grad    0.01 s
 E :    -50.46604628  G :  0.006167    pred/act E change: -0.738D-04 -0.508D-04
Maxdispl :   0.0453   ||displ|| :   0.1088   Lambda : -0.861D-04
Largest |displ|/coords:  0.0453 (   3)  0.0347 (   7)  0.0315 (   6)
................................................................................
.............................. CYCLE   17 ......................................
................................................................................
   1    -50.7586541 -0.507587E+02  0.678E-02    9.25       0.0  T
   2    -50.7586549 -0.807161E-06  0.504E-02    9.25       1.0  T
   3    -50.7586557 -0.792063E-06  0.730E-03    9.24       2.7  T
   4    -50.7586558 -0.749607E-07  0.169E-03    9.24      11.6  T
   5    -50.7586558 -0.546802E-08  0.640E-04    9.24      30.6  T
speedup  1.11
cpu  time for SCC    0.01 s
wall time for SCC    0.00 s
speedup  0.97
cpu  time for grad    0.01 s
wall time for grad    0.01 s
 E :    -50.46609794  G :  0.005148    pred/act E change: -0.455D-04 -0.517D-04
Maxdispl :   0.1225   ||displ|| :   0.2233   Lambda : -0.113D-03
Largest |displ|/coords:  0.1225 (   1)  0.0766 (  14)  0.0701 (   7)
................................................................................
.............................. CYCLE   18 ......................................
................................................................................
   1    -50.7576099 -0.507576E+02  0.140E-01    9.20       0.0  T
   2    -50.7576130 -0.315470E-05  0.106E-01    9.20       1.0  T
   3    -50.7576164 -0.340610E-05  0.115E-02    9.20       1.7  T
   4    -50.7576167 -0.253559E-06  0.335E-03    9.20       5.9  T
   5    -50.7576167 -0.124409E-07  0.111E-03    9.20      17.6  T
   6    -50.7576167 -0.154989E-08  0.626E-04    9.20      31.3  T
speedup  0.93
cpu  time for SCC    0.00 s
wall time for SCC    0.01 s
speedup  0.98
cpu  time for grad    0.01 s
wall time for grad    0.01 s
 E :    -50.46614713  G :  0.006574    pred/act E change: -0.436D-04 -0.492D-04
Maxdispl :   0.0343   ||displ|| :   0.0792   Lambda : -0.786D-04
Largest |displ|/coords:  0.0343 (   2)  0.0299 (   5)  0.0296 (   1)
................................................................................
.............................. CYCLE   19 ......................................
................................................................................
   1    -50.7591804 -0.507592E+02  0.427E-02    9.23       0.0  T
   2    -50.7591809 -0.561467E-06  0.314E-02    9.23       1.0  T
   3    -50.7591812 -0.311530E-06  0.569E-03    9.23       3.4  T
   4    -50.7591813 -0.739589E-07  0.242E-03    9.23       8.1  T
   5    -50.7591813 -0.534952E-08  0.461E-04    9.23      42.5  T
speedup  0.87
cpu  time for SCC    0.00 s
wall time for SCC    0.00 s
speedup  0.96
cpu  time for grad    0.01 s
wall time for grad    0.01 s
 E :    -50.46619642  G :  0.004577    pred/act E change: -0.592D-04 -0.493D-04
Maxdispl :   0.0323   ||displ|| :   0.0846   Lambda : -0.611D-04
Largest |displ|/coords:  0.0323 (  14)  0.0307 (   2)  0.0278 (   7)
................................................................................
.............................. CYCLE   20 ......................................
................................................................................
   1    -50.7592394 -0.507592E+02  0.666E-02    9.22       0.0  T
   2    -50.7592404 -0.100460E-05  0.496E-02    9.22       1.0  T
   3    -50.7592410 -0.586458E-06  0.716E-03    9.22       2.7  T
   4    -50.7592412 -0.154621E-06  0.292E-03    9.22       6.7  T
   5    -50.7592412 -0.641973E-08  0.476E-04    9.22      41.2  T
speedup  1.11
cpu  time for SCC    0.00 s
wall time for SCC    0.00 s
speedup  0.96
cpu  time for grad    0.01 s
wall time for grad    0.01 s
 E :    -50.46624053  G :  0.003454    pred/act E change: -0.396D-04 -0.441D-04
Maxdispl :   0.0846   ||displ|| :   0.1672   Lambda : -0.865D-04
Largest |displ|/coords:  0.0846 (   7)  0.0636 (   2)  0.0578 (  14)
................................................................................
.............................. CYCLE   21 ......................................
................................................................................
   1    -50.7581609 -0.507582E+02  0.132E-01    9.21       0.0  T
   2    -50.7581640 -0.305439E-05  0.985E-02    9.20       1.0  T
   3    -50.7581660 -0.204528E-05  0.125E-02    9.20       1.6  T
   4    -50.7581665 -0.442042E-06  0.498E-03    9.20       3.9  T
   5    -50.7581665 -0.180258E-07  0.863E-04    9.20      22.7  T
   6    -50.7581665 -0.122344E-08  0.528E-04    9.20      37.2  T
speedup  0.93
cpu  time for SCC    0.00 s
wall time for SCC    0.01 s
speedup  1.00
cpu  time for grad    0.01 s
wall time for grad    0.01 s
 E :    -50.46627741  G :  0.004994    pred/act E change: -0.308D-04 -0.369D-04
Maxdispl :   0.0374   ||displ|| :   0.0735   Lambda : -0.500D-04
Largest |displ|/coords:  0.0374 (  18)  0.0276 (   2)  0.0226 (   4)
................................................................................
.............................. CYCLE   22 ......................................
................................................................................
   1    -50.7578890 -0.507579E+02  0.620E-02    9.19       0.0  T
   2    -50.7578898 -0.824519E-06  0.463E-02    9.19       1.0  T
   3    -50.7578905 -0.739016E-06  0.636E-03    9.19       3.1  T
   4    -50.7578906 -0.823943E-07  0.164E-03    9.19      11.9  T
   5    -50.7578906 -0.408786E-08  0.513E-04    9.19      38.2  T
speedup  1.11
cpu  time for SCC    0.00 s
wall time for SCC    0.00 s
speedup  1.06
cpu  time for grad    0.01 s
wall time for grad    0.01 s
 E :    -50.46630269  G :  0.004265    pred/act E change: -0.445D-04 -0.253D-04
Maxdispl :   0.0176   ||displ|| :   0.0449   Lambda : -0.319D-04
Largest |displ|/coords:  0.0176 (   1)  0.0136 (  15)  0.0123 (   8)
................................................................................
.............................. CYCLE   23 ......................................
................................................................................
   1    -50.7584685 -0.507585E+02  0.282E-02    9.20       0.0  T
   2    -50.7584689 -0.404895E-06  0.208E-02    9.20       1.0  T
   3    -50.7584691 -0.161345E-06  0.419E-03    9.20       4.7  T
   4    -50.7584691 -0.560559E-07  0.136E-03    9.20      14.4  T
   5    -50.7584691 -0.264305E-08  0.282E-04    9.20      69.5  T
speedup  1.11
cpu  time for SCC    0.00 s
wall time for SCC    0.00 s
speedup  1.05
cpu  time for grad    0.01 s
wall time for grad    0.01 s
 E :    -50.46632265  G :  0.002501    pred/act E change: -0.251D-04 -0.200D-04
Maxdispl :   0.0477   ||displ|| :   0.1234   Lambda : -0.636D-04
Largest |displ|/coords:  0.0477 (   4)  0.0403 (  18)  0.0387 (   7)
................................................................................
.............................. CYCLE   24 ......................................
................................................................................
   1    -50.7585149 -0.507585E+02  0.874E-02    9.22       0.0  T
   2    -50.7585162 -0.131964E-05  0.652E-02    9.22       1.0  T
   3    -50.7585173 -0.107546E-05  0.855E-03    9.22       2.3  T
   4    -50.7585174 -0.165612E-06  0.335E-03    9.22       5.9  T
   5    -50.7585175 -0.116205E-07  0.757E-04    9.22      25.9  T
   6    -50.7585175 -0.559311E-09  0.501E-04    9.22      39.2  T
speedup  0.91
cpu  time for SCC    0.00 s
wall time for SCC    0.01 s
speedup  0.93
cpu  time for grad    0.01 s
wall time for grad    0.01 s
 E :    -50.46635373  G :  0.004234    pred/act E change: -0.160D-04 -0.311D-04
Maxdispl :   0.0555   ||displ|| :   0.1200   Lambda : -0.433D-04
Largest |displ|/coords:  0.0555 (   2)  0.0494 (   7)  0.0395 (   4)
................................................................................
.............................. CYCLE   25 ......................................
................................................................................
   1    -50.7581215 -0.507581E+02  0.865E-02    9.26       0.0  T
   2    -50.7581224 -0.936725E-06  0.651E-02    9.26       1.0  T
   3    -50.7581232 -0.857158E-06  0.598E-03    9.26       3.3  T
   4    -50.7581233 -0.100432E-06  0.211E-03    9.26       9.3  T
   5    -50.7581234 -0.525546E-08  0.628E-04    9.26      31.2  T
speedup  1.11
cpu  time for SCC    0.00 s
wall time for SCC    0.00 s
speedup  0.97
cpu  time for grad    0.01 s
wall time for grad    0.01 s
 E :    -50.46637672  G :  0.004231    pred/act E change: -0.323D-04 -0.230D-04
Maxdispl :   0.0575   ||displ|| :   0.1279   Lambda : -0.428D-04
Largest |displ|/coords:  0.0575 (   2)  0.0537 (   7)  0.0421 (  18)

generating ANC from model Hessian ...
 Shifting diagonal of input Hessian by   4.975496590890888E-003
 Lowest  eigenvalues of input Hessian
   -0.000000    0.000000    0.000000    0.000000    0.000000    0.000000
    0.005000    0.005124    0.005508    0.006240    0.006378    0.006921
    0.008015    0.008762    0.009641    0.010154    0.011258    0.011896
 Highest eigenvalues
    1.410338    1.416738    1.441605    2.579909    3.524126    3.637123
 
cpu  time for ANC gen    0.02 s
wall time for ANC gen    0.02 s
................................................................................
.............................. CYCLE   26 ......................................
................................................................................
   1    -50.7582069 -0.507582E+02  0.758E-02    9.25       0.0  T
   2    -50.7582078 -0.915688E-06  0.568E-02    9.24       1.0  T
   3    -50.7582087 -0.844654E-06  0.645E-03    9.24       3.0  T
   4    -50.7582088 -0.933798E-07  0.209E-03    9.24       9.4  T
   5    -50.7582088 -0.541936E-08  0.550E-04    9.24      35.7  T
   6    -50.7582088 -0.395964E-09  0.336E-04    9.24      58.3  T
speedup  1.11
cpu  time for SCC    0.01 s
wall time for SCC    0.01 s
speedup  1.01
cpu  time for grad    0.01 s
wall time for grad    0.01 s
 E :    -50.46640202  G :  0.003458    pred/act E change:  0.000D+00 -0.253D-04
Maxdispl :   0.0222   ||displ|| :   0.0432   Lambda : -0.326D-04
Largest |displ|/coords:  0.0222 (  14)  0.0180 (  10)  0.0159 (   3)
................................................................................
.............................. CYCLE   27 ......................................
................................................................................
   1    -50.7586628 -0.507587E+02  0.427E-02    9.24       0.0  T
   2    -50.7586630 -0.164058E-06  0.319E-02    9.24       1.0  T
   3    -50.7586631 -0.133497E-06  0.334E-03    9.24       5.9  T
   4    -50.7586631 -0.216370E-07  0.949E-04    9.24      20.7  T
   5    -50.7586631 -0.117320E-08  0.317E-04    9.24      61.8  T
speedup  1.11
cpu  time for SCC    0.00 s
wall time for SCC    0.00 s
speedup  0.98
cpu  time for grad    0.01 s
wall time for grad    0.01 s
 E :    -50.46642682  G :  0.001679    pred/act E change:  0.000D+00 -0.248D-04
Maxdispl :   0.0548   ||displ|| :   0.1116   Lambda : -0.489D-04
Largest |displ|/coords:  0.0548 (  14)  0.0454 (   2)  0.0453 (  10)
................................................................................
.............................. CYCLE   28 ......................................
................................................................................
   1    -50.7589269 -0.507589E+02  0.116E-01    9.24       0.0  T
   2    -50.7589280 -0.111444E-05  0.872E-02    9.24       1.0  T
   3    -50.7589291 -0.108665E-05  0.802E-03    9.24       2.4  T
   4    -50.7589292 -0.112826E-06  0.243E-03    9.24       8.1  T
   5    -50.7589292 -0.747207E-08  0.865E-04    9.24      22.7  T
   6    -50.7589292 -0.658062E-09  0.462E-04    9.24      42.5  T
speedup  1.11
cpu  time for SCC    0.01 s
wall time for SCC    0.01 s
speedup  1.01
cpu  time for grad    0.01 s
wall time for grad    0.01 s
 E :    -50.46645707  G :  0.003483    pred/act E change: -0.163D-04 -0.302D-04
Maxdispl :   0.0351   ||displ|| :   0.0668   Lambda : -0.197D-04
Largest |displ|/coords:  0.0351 (   2)  0.0299 (  14)  0.0250 (   1)
................................................................................
.............................. CYCLE   29 ......................................
................................................................................
   1    -50.7587846 -0.507588E+02  0.603E-02    9.24       0.0  T
   2    -50.7587849 -0.226294E-06  0.452E-02    9.24       1.0  T
   3    -50.7587851 -0.227848E-06  0.348E-03    9.24       5.6  T
   4    -50.7587851 -0.203812E-07  0.896E-04    9.24      21.9  T
   5    -50.7587851 -0.969791E-09  0.416E-04    9.24      47.1  T
speedup  0.89
cpu  time for SCC    0.00 s
wall time for SCC    0.00 s
speedup  1.00
cpu  time for grad    0.01 s
wall time for grad    0.01 s
 E :    -50.46647279  G :  0.003810    pred/act E change: -0.248D-04 -0.157D-04
Maxdispl :   0.0738   ||displ|| :   0.1321   Lambda : -0.439D-04
Largest |displ|/coords:  0.0738 (   2)  0.0548 (   1)  0.0507 (   3)
................................................................................
.............................. CYCLE   30 ......................................
................................................................................
   1    -50.7584067 -0.507584E+02  0.104E-01    9.24       0.0  T
   2    -50.7584074 -0.691702E-06  0.780E-02    9.24       1.0  T
   3    -50.7584081 -0.714213E-06  0.567E-03    9.23       3.5  T
   4    -50.7584082 -0.572659E-07  0.175E-03    9.23      11.2  T
   5    -50.7584082 -0.430411E-08  0.709E-04    9.23      27.7  T
   6    -50.7584082 -0.752102E-09  0.397E-04    9.23      49.4  T
speedup  0.93
cpu  time for SCC    0.00 s
wall time for SCC    0.01 s
speedup  1.00
cpu  time for grad    0.01 s
wall time for grad    0.01 s
 E :    -50.46650189  G :  0.002376    pred/act E change: -0.987D-05 -0.291D-04
Maxdispl :   0.0559   ||displ|| :   0.1025   Lambda : -0.220D-04
Largest |displ|/coords:  0.0559 (   2)  0.0463 (   3)  0.0451 (   1)
................................................................................
.............................. CYCLE   31 ......................................
................................................................................
   1    -50.7581511 -0.507582E+02  0.802E-02    9.24       0.0  T
   2    -50.7581516 -0.538869E-06  0.606E-02    9.24       1.0  T
   3    -50.7581523 -0.638028E-06  0.404E-03    9.24       4.9  T
   4    -50.7581523 -0.344787E-07  0.170E-03    9.24      11.6  T
   5    -50.7581523 -0.251651E-08  0.572E-04    9.24      34.3  T
   6    -50.7581523 -0.378620E-09  0.337E-04    9.24      58.3  T
speedup  1.11
cpu  time for SCC    0.01 s
wall time for SCC    0.01 s
speedup  1.01
cpu  time for grad    0.01 s
wall time for grad    0.01 s
 E :    -50.46651769  G :  0.002564    pred/act E change: -0.223D-04 -0.158D-04
Maxdispl :   0.0608   ||displ|| :   0.1175   Lambda : -0.303D-04
Largest |displ|/coords:  0.0608 (   2)  0.0573 (   3)  0.0540 (   1)
................................................................................
.............................. CYCLE   32 ......................................
................................................................................
   1    -50.7585268 -0.507585E+02  0.697E-02    9.25       0.0  T
   2    -50.7585273 -0.535420E-06  0.525E-02    9.25       1.0  T
   3    -50.7585278 -0.456638E-06  0.453E-03    9.25       4.3  T
   4    -50.7585279 -0.648290E-07  0.205E-03    9.25       9.5  T
   5    -50.7585279 -0.397385E-08  0.505E-04    9.25      38.9  T
   6    -50.7585279 -0.201787E-09  0.314E-04    9.25      62.4  T
speedup  0.93
cpu  time for SCC    0.01 s
wall time for SCC    0.01 s
speedup  1.01
cpu  time for grad    0.01 s
wall time for grad    0.01 s
 E :    -50.46653108  G :  0.002781    pred/act E change: -0.111D-04 -0.134D-04
Maxdispl :   0.1270   ||displ|| :   0.2396   Lambda : -0.386D-04
Largest |displ|/coords:  0.1270 (   1)  0.1074 (   2)  0.1046 (   3)
................................................................................
.............................. CYCLE   33 ......................................
................................................................................
   1    -50.7569934 -0.507570E+02  0.181E-01    9.25       0.0  T
   2    -50.7569967 -0.329374E-05  0.136E-01    9.25       1.0  T
   3    -50.7570004 -0.367711E-05  0.981E-03    9.25       2.0  T
   4    -50.7570006 -0.279793E-06  0.348E-03    9.25       5.6  T
   5    -50.7570007 -0.111470E-07  0.154E-03    9.25      12.7  T
   6    -50.7570007 -0.372991E-08  0.756E-04    9.25      25.9  T
   7    -50.7570007 -0.109620E-08  0.162E-04    9.25     121.0  T
speedup  0.97
cpu  time for SCC    0.01 s
wall time for SCC    0.01 s
speedup  0.95
cpu  time for grad    0.01 s
wall time for grad    0.01 s
 E :    -50.46650495  G :  0.008156    pred/act E change: -0.154D-04  0.261D-04
Maxdispl :   0.0873   ||displ|| :   0.1727   Lambda : -0.114D-03
Largest |displ|/coords:  0.0873 (   1)  0.0841 (   2)  0.0704 (   3)
................................................................................
.............................. CYCLE   34 ......................................
................................................................................
   1    -50.7586554 -0.507587E+02  0.133E-01    9.25       0.0  T
   2    -50.7586580 -0.264153E-05  0.100E-01    9.25       1.0  T
   3    -50.7586604 -0.234434E-05  0.921E-03    9.25       2.1  T
   4    -50.7586607 -0.330132E-06  0.305E-03    9.25       6.4  T
   5    -50.7586607 -0.103659E-07  0.128E-03    9.25      15.4  T
   6    -50.7586607 -0.184100E-08  0.679E-04    9.25      28.9  T
speedup  0.93
cpu  time for SCC    0.00 s
wall time for SCC    0.01 s
speedup  0.98
cpu  time for grad    0.01 s
wall time for grad    0.01 s
 E :    -50.46654627  G :  0.001218    pred/act E change: -0.204D-04 -0.413D-04
Maxdispl :   0.0210   ||displ|| :   0.0390   Lambda : -0.655D-05
Largest |displ|/coords:  0.0210 (   3)  0.0193 (   1)  0.0140 (   2)
................................................................................
.............................. CYCLE   35 ......................................
................................................................................
   1    -50.7586639 -0.507587E+02  0.268E-02    9.25       0.0  T
   2    -50.7586639 -0.413881E-07  0.202E-02    9.25       1.0  T
   3    -50.7586640 -0.519323E-07  0.138E-03    9.25      14.3  T
   4    -50.7586640 -0.195030E-08  0.374E-04    9.25      52.4  T
   5    -50.7586640 -0.156142E-09  0.178E-04    9.25     109.9  T
speedup  0.87
cpu  time for SCC    0.00 s
wall time for SCC    0.00 s
speedup  0.99
cpu  time for grad    0.01 s
wall time for grad    0.01 s
 E :    -50.46655218  G :  0.000991    pred/act E change: -0.587D-04 -0.591D-05
Maxdispl :   0.1127   ||displ|| :   0.2154   Lambda : -0.308D-04
Largest |displ|/coords:  0.1127 (   3)  0.1117 (   1)  0.0779 (   2)
................................................................................
.............................. CYCLE   36 ......................................
................................................................................
   1    -50.7580985 -0.507581E+02  0.146E-01    9.25       0.0  T
   2    -50.7580998 -0.136869E-05  0.110E-01    9.25       1.0  T
   3    -50.7581015 -0.168103E-05  0.814E-03    9.25       2.4  T
   4    -50.7581016 -0.726494E-07  0.229E-03    9.25       8.6  T
   5    -50.7581016 -0.598219E-08  0.103E-03    9.25      19.1  T
   6    -50.7581016 -0.117050E-08  0.490E-04    9.25      40.0  T
   7    -50.7581016 -0.326828E-09  0.872E-05    9.25     225.0  T
speedup  0.95
cpu  time for SCC    0.01 s
wall time for SCC    0.01 s
speedup  0.95
cpu  time for grad    0.01 s
wall time for grad    0.01 s
 E :    -50.46656306  G :  0.003810    pred/act E change: -0.328D-05 -0.109D-04
Maxdispl :   0.0308   ||displ|| :   0.0558   Lambda : -0.150D-04
Largest |displ|/coords:  0.0308 (   1)  0.0247 (   3)  0.0225 (   2)
................................................................................
.............................. CYCLE   37 ......................................
................................................................................
   1    -50.7586371 -0.507586E+02  0.413E-02    9.25       0.0  T
   2    -50.7586373 -0.224383E-06  0.311E-02    9.25       1.0  T
   3    -50.7586376 -0.220882E-06  0.257E-03    9.25       7.6  T
   4    -50.7586376 -0.250835E-07  0.902E-04    9.25      21.7  T
   5    -50.7586376 -0.793484E-09  0.386E-04    9.25      50.9  T
speedup  1.09
cpu  time for SCC    0.01 s
wall time for SCC    0.00 s
speedup  0.99
cpu  time for grad    0.01 s
wall time for grad    0.01 s
 E :    -50.46657040  G :  0.000972    pred/act E change: -0.161D-04 -0.733D-05
Maxdispl :   0.0265   ||displ|| :   0.0454   Lambda : -0.511D-05
Largest |displ|/coords:  0.0265 (   3)  0.0195 (   2)  0.0183 (   1)
................................................................................
.............................. CYCLE   38 ......................................
................................................................................
   1    -50.7586426 -0.507586E+02  0.302E-02    9.25       0.0  T
   2    -50.7586427 -0.671207E-07  0.226E-02    9.25       1.0  T
   3    -50.7586428 -0.697866E-07  0.221E-03    9.25       8.9  T
   4    -50.7586428 -0.491435E-08  0.635E-04    9.25      30.9  T
   5    -50.7586428 -0.539849E-09  0.176E-04    9.25     111.7  T
speedup  1.06
cpu  time for SCC    0.00 s
wall time for SCC    0.00 s
speedup  1.06
cpu  time for grad    0.01 s
wall time for grad    0.01 s
 E :    -50.46657471  G :  0.000753    pred/act E change: -0.751D-05 -0.431D-05
Maxdispl :   0.0711   ||displ|| :   0.1265   Lambda : -0.114D-04
Largest |displ|/coords:  0.0711 (   3)  0.0583 (   2)  0.0507 (   1)
................................................................................
.............................. CYCLE   39 ......................................
................................................................................
   1    -50.7584476 -0.507584E+02  0.853E-02    9.25       0.0  T
   2    -50.7584482 -0.587724E-06  0.640E-02    9.25       1.0  T
   3    -50.7584487 -0.592441E-06  0.604E-03    9.25       3.2  T
   4    -50.7584488 -0.501020E-07  0.193E-03    9.25      10.2  T
   5    -50.7584488 -0.428915E-08  0.522E-04    9.25      37.6  T
   6    -50.7584488 -0.239027E-09  0.326E-04    9.25      60.1  T
speedup  1.09
cpu  time for SCC    0.01 s
wall time for SCC    0.01 s
speedup  1.01
cpu  time for grad    0.01 s
wall time for grad    0.01 s
 E :    -50.46658165  G :  0.001080    pred/act E change: -0.256D-05 -0.694D-05
Maxdispl :   0.0179   ||displ|| :   0.0325   Lambda : -0.286D-05
Largest |displ|/coords:  0.0179 (   2)  0.0169 (   3)  0.0094 (  14)
................................................................................
.............................. CYCLE   40 ......................................
................................................................................
   1    -50.7585693 -0.507586E+02  0.221E-02    9.25       0.0  T
   2    -50.7585693 -0.606479E-07  0.166E-02    9.25       1.2  T
   3    -50.7585694 -0.476460E-07  0.184E-03    9.25      10.7  T
   4    -50.7585694 -0.793316E-08  0.742E-04    9.25      26.4  T
   5    -50.7585694 -0.409152E-09  0.147E-04    9.25     133.4  T
speedup  1.09
cpu  time for SCC    0.00 s
wall time for SCC    0.00 s
speedup  0.98
cpu  time for grad    0.01 s
wall time for grad    0.01 s
 E :    -50.46658387  G :  0.000639    pred/act E change: -0.578D-05 -0.222D-05
Maxdispl :   0.0272   ||displ|| :   0.0496   Lambda : -0.338D-05
Largest |displ|/coords:  0.0272 (   2)  0.0237 (   3)  0.0167 (  14)
................................................................................
.............................. CYCLE   41 ......................................
................................................................................
   1    -50.7586779 -0.507587E+02  0.355E-02    9.25       0.0  T
   2    -50.7586780 -0.150296E-06  0.267E-02    9.25       1.0  T
   3    -50.7586782 -0.123385E-06  0.288E-03    9.25       6.8  T
   4    -50.7586782 -0.188168E-07  0.113E-03    9.25      17.4  T
   5    -50.7586782 -0.961933E-09  0.236E-04    9.25      83.2  T
   6    -50.7586782 -0.424762E-10  0.149E-04    9.25     131.7  T
speedup  1.07
cpu  time for SCC    0.01 s
wall time for SCC    0.01 s
speedup  1.00
cpu  time for grad    0.01 s
wall time for grad    0.01 s
 E :    -50.46658619  G :  0.000428    pred/act E change: -0.143D-05 -0.232D-05
Maxdispl :   0.0121   ||displ|| :   0.0275   Lambda : -0.208D-05
Largest |displ|/coords:  0.0121 (   2)  0.0113 (  14)  0.0101 (   4)
................................................................................
.............................. CYCLE   42 ......................................
................................................................................
   1    -50.7588234 -0.507588E+02  0.192E-02    9.25       0.0  T
   2    -50.7588235 -0.592940E-07  0.144E-02    9.25       1.4  T
   3    -50.7588235 -0.454827E-07  0.188E-03    9.25      10.4  T
   4    -50.7588235 -0.767582E-08  0.731E-04    9.25      26.8  T
   5    -50.7588235 -0.405763E-09  0.134E-04    9.25     146.7  T
speedup  1.09
cpu  time for SCC    0.00 s
wall time for SCC    0.00 s
speedup  0.99
cpu  time for grad    0.01 s
wall time for grad    0.01 s
 E :    -50.46658769  G :  0.000616    pred/act E change: -0.169D-05 -0.151D-05
Maxdispl :   0.0207   ||displ|| :   0.0451   Lambda : -0.228D-05
Largest |displ|/coords:  0.0207 (   2)  0.0177 (   3)  0.0160 (  14)
................................................................................
.............................. CYCLE   43 ......................................
................................................................................
   1    -50.7587328 -0.507587E+02  0.366E-02    9.25       0.0  T
   2    -50.7587330 -0.168114E-06  0.275E-02    9.25       1.0  T
   3    -50.7587331 -0.152672E-06  0.316E-03    9.25       6.2  T
   4    -50.7587332 -0.178053E-07  0.116E-03    9.25      16.8  T
   5    -50.7587332 -0.114325E-08  0.233E-04    9.25      84.2  T
   6    -50.7587332 -0.372538E-10  0.156E-04    9.25     125.6  T
speedup  1.11
cpu  time for SCC    0.01 s
wall time for SCC    0.01 s
speedup  1.08
cpu  time for grad    0.01 s
wall time for grad    0.01 s
 E :    -50.46658909  G :  0.000609    pred/act E change: -0.104D-05 -0.140D-05
Maxdispl :   0.0150   ||displ|| :   0.0299   Lambda : -0.217D-05
Largest |displ|/coords:  0.0150 (   1)  0.0124 (   9)  0.0108 (   3)
................................................................................
.............................. CYCLE   44 ......................................
................................................................................
   1    -50.7588973 -0.507589E+02  0.120E-02    9.25       0.0  T
   2    -50.7588974 -0.554372E-07  0.879E-03    9.25       2.2  T
   3    -50.7588974 -0.335346E-07  0.197E-03    9.25      10.0  T
   4    -50.7588974 -0.650153E-08  0.668E-04    9.25      29.4  T
   5    -50.7588974 -0.498147E-09  0.113E-04    9.25     174.1  T
speedup  1.11
cpu  time for SCC    0.00 s
wall time for SCC    0.00 s
speedup  1.00
cpu  time for grad    0.01 s
wall time for grad    0.01 s
 E :    -50.46659034  G :  0.000815    pred/act E change: -0.114D-05 -0.125D-05
Maxdispl :   0.0073   ||displ|| :   0.0160   Lambda : -0.146D-05
Largest |displ|/coords:  0.0073 (   9)  0.0053 (  29)  0.0046 (  38)
................................................................................
.............................. CYCLE   45 ......................................
................................................................................
   1    -50.7587809 -0.507588E+02  0.132E-02    9.25       0.0  T
   2    -50.7587809 -0.420962E-07  0.978E-03    9.25       2.0  T
   3    -50.7587809 -0.309272E-07  0.174E-03    9.25      11.2  T
   4    -50.7587809 -0.493348E-08  0.580E-04    9.25      33.8  T
   5    -50.7587809 -0.329990E-09  0.954E-05    9.25     205.5  T
speedup  1.09
cpu  time for SCC    0.00 s
wall time for SCC    0.00 s
speedup  1.00
cpu  time for grad    0.01 s
wall time for grad    0.01 s
 E :    -50.46659143  G :  0.000553    pred/act E change: -0.109D-05 -0.110D-05
Maxdispl :   0.0096   ||displ|| :   0.0201   Lambda : -0.182D-05
Largest |displ|/coords:  0.0096 (   9)  0.0080 (   2)  0.0050 (  29)
................................................................................
.............................. CYCLE   46 ......................................
................................................................................
   1    -50.7586950 -0.507587E+02  0.121E-02    9.25       0.0  T
   2    -50.7586951 -0.528396E-07  0.883E-03    9.25       2.2  T
   3    -50.7586951 -0.312951E-07  0.202E-03    9.25       9.7  T
   4    -50.7586951 -0.554974E-08  0.627E-04    9.25      31.3  T
   5    -50.7586951 -0.405244E-09  0.932E-05    9.25     210.4  T
speedup  0.89
cpu  time for SCC    0.00 s
wall time for SCC    0.00 s
speedup  1.00
cpu  time for grad    0.01 s
wall time for grad    0.01 s
 E :    -50.46659256  G :  0.000460    pred/act E change: -0.729D-06 -0.113D-05
Maxdispl :   0.0040   ||displ|| :   0.0106   Lambda : -0.810D-06
Largest |displ|/coords:  0.0040 (   9)  0.0035 (   1)  0.0032 (   2)
................................................................................
.............................. CYCLE   47 ......................................
................................................................................
   1    -50.7586494 -0.507586E+02  0.746E-03    9.25       0.0  T
   2    -50.7586494 -0.132383E-07  0.547E-03    9.25       3.6  T
   3    -50.7586494 -0.884859E-08  0.106E-03    9.25      18.6  T
   4    -50.7586494 -0.132886E-08  0.338E-04    9.25      58.1  T
   5    -50.7586494 -0.110845E-09  0.399E-05    9.25     491.7  T
speedup  1.11
cpu  time for SCC    0.00 s
wall time for SCC    0.00 s
speedup  1.00
cpu  time for grad    0.01 s
wall time for grad    0.01 s
 E :    -50.46659314  G :  0.000575    pred/act E change: -0.909D-06 -0.581D-06
Maxdispl :   0.0066   ||displ|| :   0.0185   Lambda : -0.127D-05
Largest |displ|/coords:  0.0066 (   6)  0.0064 (  38)  0.0061 (   2)
................................................................................
.............................. CYCLE   48 ......................................
................................................................................
   1    -50.7586819 -0.507587E+02  0.138E-02    9.25       0.0  T
   2    -50.7586819 -0.475800E-07  0.102E-02    9.25       1.9  T
   3    -50.7586819 -0.284284E-07  0.200E-03    9.25       9.8  T
   4    -50.7586819 -0.555470E-08  0.653E-04    9.25      30.0  T
   5    -50.7586819 -0.360359E-09  0.802E-05    9.25     244.4  T
speedup  1.09
cpu  time for SCC    0.00 s
wall time for SCC    0.00 s
speedup  1.00
cpu  time for grad    0.01 s
wall time for grad    0.01 s
 E :    -50.46659404  G :  0.000559    pred/act E change: -0.405D-06 -0.895D-06
Maxdispl :   0.0083   ||displ|| :   0.0198   Lambda : -0.130D-05
Largest |displ|/coords:  0.0083 (   6)  0.0076 (  38)  0.0058 (  29)
................................................................................
.............................. CYCLE   49 ......................................
................................................................................
   1    -50.7587310 -0.507587E+02  0.155E-02    9.25       0.0  T
   2    -50.7587310 -0.619932E-07  0.115E-02    9.25       1.7  T
   3    -50.7587311 -0.346505E-07  0.219E-03    9.25       8.9  T
   4    -50.7587311 -0.821894E-08  0.726E-04    9.25      27.0  T
   5    -50.7587311 -0.411816E-09  0.104E-04    9.25     189.0  T
speedup  0.89
cpu  time for SCC    0.00 s
wall time for SCC    0.00 s
speedup  1.00
cpu  time for grad    0.01 s
wall time for grad    0.01 s
 E :    -50.46659499  G :  0.000537    pred/act E change: -0.637D-06 -0.956D-06
Maxdispl :   0.0111   ||displ|| :   0.0237   Lambda : -0.140D-05
Largest |displ|/coords:  0.0111 (   6)  0.0091 (   5)  0.0088 (  38)
................................................................................
.............................. CYCLE   50 ......................................
................................................................................
   1    -50.7588072 -0.507588E+02  0.174E-02    9.25       0.0  T
   2    -50.7588072 -0.728550E-07  0.129E-02    9.25       1.5  T
   3    -50.7588073 -0.389922E-07  0.233E-03    9.25       8.4  T
   4    -50.7588073 -0.104313E-07  0.762E-04    9.25      25.7  T
   5    -50.7588073 -0.443073E-09  0.117E-04    9.25     168.2  T
speedup  0.89
cpu  time for SCC    0.00 s
wall time for SCC    0.00 s
speedup  1.01
cpu  time for grad    0.01 s
wall time for grad    0.01 s
 E :    -50.46659601  G :  0.000547    pred/act E change: -0.651D-06 -0.101D-05
Maxdispl :   0.0102   ||displ|| :   0.0239   Lambda : -0.130D-05
Largest |displ|/coords:  0.0102 (   5)  0.0096 (   6)  0.0087 (  38)
................................................................................
.............................. CYCLE   51 ......................................
................................................................................
   1    -50.7588281 -0.507588E+02  0.174E-02    9.25       0.0  T
   2    -50.7588282 -0.708448E-07  0.130E-02    9.25       1.5  T
   3    -50.7588282 -0.362466E-07  0.231E-03    9.25       8.5  T
   4    -50.7588283 -0.107700E-07  0.713E-04    9.25      27.5  T
   5    -50.7588283 -0.361872E-09  0.100E-04    9.25     195.5  T
speedup  1.11
cpu  time for SCC    0.01 s
wall time for SCC    0.00 s
speedup  1.01
cpu  time for grad    0.01 s
wall time for grad    0.01 s
 E :    -50.46659695  G :  0.000532    pred/act E change: -0.700D-06 -0.946D-06
Maxdispl :   0.0102   ||displ|| :   0.0251   Lambda : -0.124D-05
Largest |displ|/coords:  0.0102 (   3)  0.0101 (   6)  0.0092 (   2)
................................................................................
.............................. CYCLE   52 ......................................
................................................................................
   1    -50.7588363 -0.507588E+02  0.180E-02    9.25       0.0  T
   2    -50.7588363 -0.487412E-07  0.135E-02    9.25       1.5  T
   3    -50.7588363 -0.272395E-07  0.177E-03    9.25      11.1  T
   4    -50.7588363 -0.831890E-08  0.527E-04    9.25      37.2  T
   5    -50.7588363 -0.211251E-09  0.101E-04    9.25     194.6  T
speedup  1.11
cpu  time for SCC    0.00 s
wall time for SCC    0.00 s
speedup  1.00
cpu  time for grad    0.01 s
wall time for grad    0.01 s
 E :    -50.46659782  G :  0.000427    pred/act E change: -0.649D-06 -0.869D-06
Maxdispl :   0.0081   ||displ|| :   0.0207   Lambda : -0.106D-05
Largest |displ|/coords:  0.0081 (   1)  0.0075 (  38)  0.0067 (  29)

generating ANC from model Hessian ...
 Shifting diagonal of input Hessian by   5.041328625763055E-003
 Lowest  eigenvalues of input Hessian
    0.005000   -0.000000   -0.000000   -0.000000   -0.000000   -0.000000
    0.000000    0.005187    0.005548    0.006322    0.006457    0.007180
    0.008174    0.008847    0.009643    0.010340    0.011151    0.011859
 Highest eigenvalues
    1.410850    1.412740    1.446467    2.575321    3.517428    3.640558
 
cpu  time for ANC gen    0.02 s
wall time for ANC gen    0.02 s
................................................................................
.............................. CYCLE   53 ......................................
................................................................................
   1    -50.7587408 -0.507587E+02  0.166E-02    9.24       0.0  T
   2    -50.7587409 -0.630701E-07  0.124E-02    9.24       1.6  T
   3    -50.7587409 -0.330527E-07  0.216E-03    9.24       9.1  T
   4    -50.7587409 -0.102199E-07  0.612E-04    9.24      32.1  T
   5    -50.7587409 -0.298577E-09  0.107E-04    9.24     183.5  T
speedup  1.11
cpu  time for SCC    0.01 s
wall time for SCC    0.00 s
speedup  1.00
cpu  time for grad    0.01 s
wall time for grad    0.01 s
 E :    -50.46659849  G :  0.000497    pred/act E change:  0.000D+00 -0.670D-06
Maxdispl :   0.0048   ||displ|| :   0.0073   Lambda : -0.586D-06
Largest |displ|/coords:  0.0048 (   1)  0.0043 (   5)  0.0015 (   9)
................................................................................
.............................. CYCLE   54 ......................................
................................................................................
   1    -50.7587657 -0.507588E+02  0.419E-03    9.24       0.0  T
   2    -50.7587657 -0.261424E-08  0.316E-03    9.24       6.2  T
   3    -50.7587657 -0.253514E-08  0.335E-04    9.24      58.5  T
   4    -50.7587657 -0.268301E-09  0.108E-04    9.24     182.0  T
speedup  1.08
cpu  time for SCC    0.00 s
wall time for SCC    0.00 s
speedup  0.99
cpu  time for grad    0.01 s
wall time for grad    0.01 s
 E :    -50.46659900  G :  0.000244    pred/act E change:  0.000D+00 -0.514D-06
Maxdispl :   0.0217   ||displ|| :   0.0321   Lambda : -0.181D-05
Largest |displ|/coords:  0.0217 (   1)  0.0172 (   5)  0.0086 (   6)
................................................................................
.............................. CYCLE   55 ......................................
................................................................................
   1    -50.7588009 -0.507588E+02  0.174E-02    9.24       0.0  T
   2    -50.7588010 -0.386940E-07  0.131E-02    9.24       1.5  T
   3    -50.7588010 -0.377073E-07  0.124E-03    9.24      15.8  T
   4    -50.7588010 -0.423054E-08  0.496E-04    9.24      39.6  T
   5    -50.7588010 -0.251312E-09  0.124E-04    9.24     157.5  T
speedup  1.11
cpu  time for SCC    0.00 s
wall time for SCC    0.00 s
speedup  1.01
cpu  time for grad    0.01 s
wall time for grad    0.01 s
 E :    -50.46660012  G :  0.000493    pred/act E change: -0.293D-06 -0.112D-05
Maxdispl :   0.0143   ||displ|| :   0.0198   Lambda : -0.574D-06
Largest |displ|/coords:  0.0143 (   1)  0.0093 (   5)  0.0052 (   9)
................................................................................
.............................. CYCLE   56 ......................................
................................................................................
   1    -50.7587910 -0.507588E+02  0.108E-02    9.24       0.0  T
   2    -50.7587910 -0.152514E-07  0.813E-03    9.24       2.4  T
   3    -50.7587910 -0.164709E-07  0.705E-04    9.24      27.8  T
   4    -50.7587910 -0.148783E-08  0.335E-04    9.24      58.5  T
speedup  1.08
cpu  time for SCC    0.00 s
wall time for SCC    0.00 s
speedup  0.99
cpu  time for grad    0.01 s
wall time for grad    0.01 s
 E :    -50.46660058  G :  0.000489    pred/act E change: -0.906D-06 -0.451D-06
Maxdispl :   0.0196   ||displ|| :   0.0268   Lambda : -0.708D-06
Largest |displ|/coords:  0.0196 (   1)  0.0105 (   5)  0.0078 (   6)
................................................................................
.............................. CYCLE   57 ......................................
................................................................................
   1    -50.7587670 -0.507588E+02  0.143E-02    9.24       0.0  T
   2    -50.7587671 -0.282054E-07  0.108E-02    9.24       1.8  T
   3    -50.7587671 -0.308601E-07  0.103E-03    9.24      19.0  T
   4    -50.7587671 -0.267925E-08  0.478E-04    9.24      41.0  T
   5    -50.7587671 -0.226407E-09  0.116E-04    9.24     168.5  T
speedup  1.11
cpu  time for SCC    0.00 s
wall time for SCC    0.00 s
speedup  1.00
cpu  time for grad    0.01 s
wall time for grad    0.01 s
 E :    -50.46660106  G :  0.000302    pred/act E change: -0.287D-06 -0.485D-06
Maxdispl :   0.0127   ||displ|| :   0.0161   Lambda : -0.341D-06
Largest |displ|/coords:  0.0127 (   1)  0.0054 (   9)  0.0038 (   5)
................................................................................
.............................. CYCLE   58 ......................................
................................................................................
   1    -50.7587609 -0.507588E+02  0.863E-03    9.25       0.0  T
   2    -50.7587609 -0.108901E-07  0.649E-03    9.25       3.0  T
   3    -50.7587609 -0.124580E-07  0.709E-04    9.25      27.7  T
   4    -50.7587609 -0.868461E-09  0.266E-04    9.25      73.7  T
speedup  1.05
cpu  time for SCC    0.00 s
wall time for SCC    0.00 s
speedup  0.98
cpu  time for grad    0.01 s
wall time for grad    0.01 s
 E :    -50.46660128  G :  0.000201    pred/act E change: -0.354D-06 -0.217D-06
Maxdispl :   0.0035   ||displ|| :   0.0056   Lambda : -0.148D-06
Largest |displ|/coords:  0.0035 (   1)  0.0019 (   9)  0.0017 (   6)
................................................................................
.............................. CYCLE   59 ......................................
................................................................................
   1    -50.7587716 -0.507588E+02  0.306E-03    9.25       0.0  T
   2    -50.7587716 -0.192028E-08  0.228E-03    9.25       8.6  T
   3    -50.7587716 -0.192266E-08  0.348E-04    9.25      56.3  T
   4    -50.7587716 -0.161535E-09  0.917E-05    9.25     213.8  T
speedup  1.08
cpu  time for SCC    0.00 s
wall time for SCC    0.00 s
speedup  0.98
cpu  time for grad    0.01 s
wall time for grad    0.01 s
 E :    -50.46660138  G :  0.000159    pred/act E change: -0.170D-06 -0.106D-06
Maxdispl :   0.0032   ||displ|| :   0.0056   Lambda : -0.112D-06
Largest |displ|/coords:  0.0032 (   1)  0.0023 (   5)  0.0021 (   9)
................................................................................
.............................. CYCLE   60 ......................................
................................................................................
   1    -50.7587854 -0.507588E+02  0.310E-03    9.25       0.0  T
   2    -50.7587854 -0.206153E-08  0.231E-03    9.25       8.5  T
   3    -50.7587854 -0.181507E-08  0.362E-04    9.25      54.2  T
   4    -50.7587854 -0.195854E-09  0.109E-04    9.25     179.4  T
speedup  1.11
cpu  time for SCC    0.00 s
wall time for SCC    0.00 s
speedup  1.07
cpu  time for grad    0.01 s
wall time for grad    0.01 s
 E :    -50.46660146  G :  0.000127    pred/act E change: -0.738D-07 -0.765D-07
Maxdispl :   0.0022   ||displ|| :   0.0037   Lambda : -0.647D-07
Largest |displ|/coords:  0.0022 (   5)  0.0011 (  12)  0.0010 (   7)

   *** GEOMETRY OPTIMIZATION CONVERGED AFTER 60 ITERATIONS ***

------------------------------------------------------------------------
 total energy gain (kcal):     -0.0019
------------------------------------------------------------------------
================
 final structure:
================
$coord
        0.59483460531448       -3.73074067469510        1.18640380634480      S 
        1.22749052865683       -3.12579830947100       -1.42169826212577      O 
        2.67860633408892       -3.28007471513166        2.90012486538859      O 
       -1.76386373533529       -2.55924767113736        1.95901198540110      O 
        0.08354305261112       -6.68558264052788        1.26840327328792      O 
        1.75998349497219       -7.32584155737993        1.17657114222963      H 
        4.12516603249784        3.92869785457336       -1.55622794605452      O 
        4.16588203544350        2.86665227422233       -0.04908479075592      H 
        5.05029595656163        5.43175147849195       -1.14948844855974      H 
       -1.17464571435509        2.44419513673276        2.73927542690816      O 
        0.60750667062082        2.48611984658450        3.15496024951791      H 
       -1.57436624798134        0.65067202163198        2.61584781769842      H 
        3.99354701674377        1.43425696827543        2.98135413473455      O 
        3.53636341092438       -0.38084218072008        2.88237038102089      H 
        5.27036862346750        1.54271913096675        4.26245773441128      H 
       -5.84538945858160       -1.84129094050450       -0.79586826929975      O 
       -6.77751083130273       -0.59562319158382        0.13561785489065      H 
       -4.48413666372493       -2.39532347328791        0.34231288486065      H 
       -0.95961160516211        4.21207666101031       -1.96404280383533      O 
        0.88417949901928        4.29578087322099       -2.08719572150870      H 
       -1.27870945795411        3.82221222462111       -0.16806451507538      H 
       -2.03893525168274       -0.23962842730469       -3.73853034853135      N 
       -2.05847666261948       -0.43231390701622       -5.64368984570855      H 
       -3.75788108503713       -0.78684169291983       -2.93022669928218      H 
       -0.63517652031626       -1.41662733182668       -2.92329921709837      H 
       -1.62906400795411        1.68064226206390       -3.17729470774287      H 
$end
 
 Bond Distances (Angstroems)
 ---------------------------
S1-O2=1.4558         S1-O3=1.4475         S1-O4=1.4524         S1-O5=1.5875         O2-S1=1.4558         O3-S1=1.4475         
O4-S1=1.4524         O5-S1=1.5875         O5-H6=0.9509         H6-O5=0.9509         O7-H8=0.9759         O7-H9=0.9584         
H8-O7=0.9759         H9-O7=0.9584         O10-H11=0.9686       O10-H12=0.9746       H11-O10=0.9686       H12-O10=0.9746       
O13-H14=0.9919       O13-H15=0.9589       H14-O13=0.9919       H15-O13=0.9589       O16-H17=0.9596       O16-H18=0.9837       
H17-O16=0.9596       H18-O16=0.9837       O19-H20=0.9789       O19-H21=0.9871       H20-O19=0.9789       H21-O19=0.9871       
N22-H23=1.0134       N22-H24=1.0461       N22-H25=1.0611       N22-H26=1.0807       H23-N22=1.0134       H24-N22=1.0461       
H25-N22=1.0611       H26-N22=1.0807       
 N  H  Rav=1.0503 sigma=0.0246  Rmin=1.0134  Rmax=1.0807     4
 O  H  Rav=0.9717 sigma=0.0128  Rmin=0.9509  Rmax=0.9919    11
 S  O  Rav=1.4858 sigma=0.0588  Rmin=1.4475  Rmax=1.5875     4
 
 selected bond angles (degree)
 --------------------
O3-S1-O2=112.49                O4-S1-O2=111.76                O4-S1-O3=114.08                O5-S1-O2=106.36                
O5-S1-O3=105.96                O5-S1-O4=105.44                H6-O5-S1=100.99                H9-O7-H8=106.45                
H12-O10-H11=104.41             
 
 selected dihedral angles (degree)
 ---------------------------------
H6-O5-S1-O2= 75.34            H6-O5-S1-O3=315.43            H6-O5-S1-O4=194.15            
 
 CMA Distance (Angstroems)
 ---------------------------
R(CMA):  3.0600

========================================================================
 FINAL SINGLEPOINT CALCULATION ON OPTIMIZED GEOMETRY
========================================================================

 Ncao       : 65
 Nao        : 64
 Nshell     : 38
 Nel        : 80
 T(el)      :   300.0
 intcut     :    25.0
 scfconv/Eh :  0.100E-05
   qconv/e  :  0.100E-03
 intneglect :  0.100E-07
 broydamp   :      0.250
 iter      E             dE          RMSdq      gap      omega  full diag
   1    -50.7587854 -0.507588E+02  0.513E-05    9.25       0.0  T
   2    -50.7587854 -0.980549E-12  0.328E-05    9.25     597.0  T
   3    -50.7587854 -0.703437E-12  0.447E-06    9.25    4385.6  T
speedup  1.11
cpu  time for SCC    0.00 s
wall time for SCC    0.00 s

   *** convergence criteria satisfied after 3 iterations ***

          eigenvalues
 #    :          28         29         30         31         32         33         34         35
 occ. :        2.000      2.000      2.000      2.000      2.000      2.000      2.000      2.000
 eps  :       -13.412    -13.310    -12.404    -12.320    -12.219    -12.189    -12.138    -12.012
 #    :          36         37         38         39         40         41         42         43
 occ. :        2.000      2.000      2.000      2.000      2.000      0.000      0.000      0.000
 eps  :       -11.995    -11.918    -11.828    -11.681    -11.579     -2.333     -0.524     -0.349
 #    :          44         45         46         47         48         49         50         51
 occ. :        0.000      0.000      0.000      0.000      0.000      0.000      0.000      0.000
 eps  :         0.731      1.007      1.380      2.673      3.158      3.390      4.134      5.188


   #   Z            q   n(s)   n(p)   n(d)      C6AA      α(0)
   1  16 S      1.663  1.582  1.797  0.958    89.613    15.933
   2   8 O     -0.730  1.765  4.965  0.000    29.536     7.287
   3   8 O     -0.732  1.771  4.961  0.000    29.591     7.293
   4   8 O     -0.730  1.762  4.969  0.000    29.552     7.289
   5   8 O     -0.587  1.751  4.836  0.000    24.853     6.730
   6   1 H      0.343  0.657  0.000  0.000     0.596     1.208
   7   8 O     -0.603  1.745  4.858  0.000    25.264     6.784
   8   1 H      0.327  0.673  0.000  0.000     0.644     1.261
   9   1 H      0.283  0.717  0.000  0.000     0.776     1.383
  10   8 O     -0.629  1.752  4.877  0.000    25.884     6.867
  11   1 H      0.310  0.690  0.000  0.000     0.692     1.306
  12   1 H      0.312  0.688  0.000  0.000     0.686     1.301
  13   8 O     -0.631  1.745  4.886  0.000    25.942     6.874
  14   1 H      0.333  0.667  0.000  0.000     0.631     1.248
  15   1 H      0.289  0.711  0.000  0.000     0.755     1.365
  16   8 O     -0.604  1.744  4.860  0.000    25.284     6.787
  17   1 H      0.293  0.707  0.000  0.000     0.741     1.352
  18   1 H      0.332  0.668  0.000  0.000     0.631     1.248
  19   8 O     -0.624  1.763  4.862  0.000    25.773     6.852
  20   1 H      0.325  0.675  0.000  0.000     0.652     1.268
  21   1 H      0.331  0.669  0.000  0.000     0.636     1.253
  22   7 N     -0.357  1.281  4.076  0.000    29.189     8.024
  23   1 H      0.222  0.778  0.000  0.000     1.000     1.566
  24   1 H      0.278  0.722  0.000  0.000     0.783     1.387
  25   1 H      0.289  0.711  0.000  0.000     0.746     1.353
  26   1 H      0.299  0.701  0.000  0.000     0.717     1.326

 Mol. C6AA /au·bohr⁶  :       5442.092157
 Mol. C8AA /au·bohr⁸  :     117778.055670
 Mol. α(0) /au        :        106.544191

 
 Wiberg/Mayer (AO) data. WBOs > 0.1 written file <wbo>
 largest (>0.05) Wiberg bond orders for each atom
           total WBO             WBO to atom ...
     1  S   4.878    O    3 1.330    O    4 1.315    O    2 1.301    O    5 0.890
     2  O   1.748    S    1 1.301    O    4 0.112    H   25 0.109    O    3 0.107    O    5 0.074
     3  O   1.740    S    1 1.330    O    2 0.107    O    4 0.105    H   14 0.082    O    5 0.075
     4  O   1.745    S    1 1.315    O    2 0.112    O    3 0.105    O    5 0.061    H   18 0.059
     5  O   1.972    S    1 0.890    H    6 0.866    O    3 0.075    O    2 0.074    O    4 0.061
     6  H   0.882    O    5 0.866
     7  O   1.867    H    9 0.917    H    8 0.846    H   20 0.053
     8  H   0.893    O    7 0.846
     9  H   0.920    O    7 0.917
    10  O   1.868    H   11 0.871    H   12 0.852    H   21 0.069
    11  H   0.904    O   10 0.871
    12  H   0.903    O   10 0.852
    13  O   1.859    H   15 0.908    H   14 0.802
    14  H   0.889    O   13 0.802    O    3 0.082
    15  H   0.916    O   13 0.908
    16  O   1.898    H   17 0.910    H   18 0.827    H   24 0.084
    17  H   0.914    O   16 0.910
    18  H   0.889    O   16 0.827    O    4 0.059
    19  O   1.950    H   20 0.839    H   21 0.820    H   26 0.155    N   22 0.072
    20  H   0.895    O   19 0.839    O    7 0.053
    21  H   0.891    O   19 0.820    O   10 0.069
    22  N   3.514    H   23 0.947    H   24 0.835    H   25 0.801    H   26 0.753    O   19 0.072
    23  H   0.951    N   22 0.947
    24  H   0.923    N   22 0.835    O   16 0.084
    25  H   0.916    N   22 0.801    O    2 0.109
    26  H   0.911    N   22 0.753    O   19 0.155
 MOs/occ written to file <molden.input>
 
molecular dipole:
                 x           y           z       tot (Debye)
 q only:       -0.036       0.752      -1.304
   full:        0.659       0.127      -0.547       2.202
molecular quadrupole (traceless):
                xx          xy          yy          xz          yz          zz
 q only:        2.748       1.445      -5.588       8.253       4.261       2.840
  q+dip:        3.180       1.582      -4.716       9.240       4.036       1.535
   full:        3.176       1.586      -4.250       9.577       4.011       1.074

SCC energy    :     -50.7587854
rep           :       0.2918359
ES            :       0.2609575
AES           :      -0.0713903
AXC           :      -0.0085482
disp          :      -0.0185547
XB            :       0.0000000
fix           :       0.0000000
total E       :     -50.4666015
atomizationE  :       4.9969056     3135.61
(atE without considering molecular charge,
 total energy contains solvation terms)
H-L gap (eV)  :          9.2457
optimized geometry written to: xtbopt.xyz


------------------------------------------------------------------------
 * finished run on 2019/09/16 at 12:07:11.253     
------------------------------------------------------------------------
 total:
 * wall-time:     0 d,  0 h,  0 min,  1.500 sec
 *  cpu-time:     0 d,  0 h,  0 min,  1.481 sec
 * ratio c/w:     0.987 speedup
 SCF:
 * wall-time:     0 d,  0 h,  0 min,  0.152 sec
 *  cpu-time:     0 d,  0 h,  0 min,  0.148 sec
 * ratio c/w:     0.976 speedup
 ANC optimizer:
 * wall-time:     0 d,  0 h,  0 min,  1.319 sec
 *  cpu-time:     0 d,  0 h,  0 min,  1.308 sec
 * ratio c/w:     0.992 speedup

