      -----------------------------------------------------------      
     |                   =====================                   |     
     |                           x T B                           |     
     |                   =====================                   |     
     |                         S. Grimme                         |     
     |          Mulliken Center for Theoretical Chemistry        |     
     |                    University of Bonn                     |     
     |                 Version 6.0.1 (SAW181210)                 |     
      -----------------------------------------------------------      

   This program is distributed in the hope that it will be useful,
   but WITHOUT ANY WARRANTY; without even the implied warranty of
   MERCHANTABILITY or FITNESS FOR A PARTICULAR PURPOSE.
   
   FOR NON-COMMERCIAL, ACADEMIA USE ONLY.
   
   Cite this work as:
   S. Grimme, C. Bannwarth, P. Shushkov, J. Comput. Theory Chem., 2017,
   13, 1989-2009.
   C. Bannwarth, S. Ehlert and S. Grimme., ChemRxiv, 2018, preprint.
   http://doi.org/10.26434/chemrxiv.7246238.v1
   
   for sTDA-xTB:
   S. Grimme and C. Bannwarth, J. Chem. Phys., 2016, 145, 054103.
   
   in the mass-spec context:
   V. Asgeirsson, C. Bauer and S. Grimme, Chem. Sci., 2017, 8, 4879.
   
   if GBSA is used:
   P. Shushkov, F. März and S. Grimme, unpublished.
   
   for ANC optimizer:
   S. Grimme, unpublished.
   Rational Function algorithm used in ANCopt:
   F. Eckert, P. Pulay, H.-J. Werner, J. Comput. Chem., 1997, 18, 1473.
   
   with help from (in alphabetical order)
   C. Bannwarth, F. Bohle, G. Brandenburg, E. Caldeweyher, M. Checinski,
   S. Dohm, S. Ehlert, S. Ehrlich, F. März, H. Neugebauer, J. Pisarek,
   P. Pracht, P. Shushkov, and S. Spicher.
   
 * started run on 2019/09/16 at 11:59:56.049     
========================================================================
 # omp threads = 1
========================================================================
number of atoms            : 26
number of electrons        : 80
charge                     : 0
spin                       : .0
first test random number   : .1677

########################################################################
# WARNING! Please study the warnings concerning your input carefully
#  - XTBPATH is not set, using XTBHOME instead
#  - the use of '-opt' is discouraged, please use '--opt' next time
#  - the use of '-chrg' is discouraged, please use '--chrg' next time
#  - the use of '-uhf' is discouraged, please use '--uhf' next time
########################################################################

           ------------------------------------------------- 
          |                 G F N 2 - x T B                 |
          | Geometry, Frequencies, Noncovalent interactions |
          |            JCTC 2018 parametrisation            |
           ------------------------------------------------- 
      method parameters     
 k(s)        :  1.8500
 k(p)        :  2.2300
 k(d)        :  2.2300
 k(f)        :  2.0000
 kEN (H0ij)  : -2.0000
 D4 a1       :  0.5200
 D4 a2       :  5.0000
 D4 s6       :  1.0000
 D4 s8       :  2.7000
 D4 s9       :  5.0000
 alphaj      :  2.0000


            Z     q(EN)     CN     RAES       Cart. coordinates
     1  S   6.0    0.64    4.28    4.19    -3.25138     1.08098    -1.52173
     2  O   6.0   -0.33    1.21    1.80    -2.42688    -1.09185    -3.11144
     3  O   6.0   -0.32    1.22    1.80    -4.11310     0.13517     0.98645
     4  O   6.0   -0.33    1.23    1.80    -1.09411     2.85501    -1.16524
     5  O   6.0   -0.25    2.08    1.84    -5.34241     2.40716    -2.77925
     6  H   1.0    0.15    1.21    1.47    -6.73281     1.26482    -3.00934
     7  O   6.0   -0.39    1.68    1.81     2.75322    -2.21032     1.90738
     8  H   1.0    0.17    0.95    1.42     4.03758    -3.37440     2.59954
     9  O   6.0   -0.27    1.97    1.82     0.54536    -5.07319    -1.19726
    10  H   1.0    0.17    1.10    1.44     1.40968    -4.17328     0.12853
    11  H   1.0    0.17    1.01    1.43    -0.83655    -3.99488    -1.68942
    12  O   6.0   -0.28    2.04    1.83     1.94327    -2.39064    -5.46614
    13  H   1.0    0.15    0.98    1.43     2.12456    -4.12028    -4.92754
    14  H   1.0    0.17    1.02    1.43     0.18335    -1.99272    -5.22333
    15  O   6.0   -0.23    2.92    2.59     3.24821     0.50002    -1.69436
    16  H   1.0    0.14    1.04    1.44     3.15834    -0.49241    -3.27450
    17  H   1.0    0.15    1.05    1.44     1.88318     1.77091    -1.58691
    18  H   1.0    0.16    1.21    1.47     3.30285    -0.59631    -0.18222
    19  O   6.0   -0.22    2.92    2.59    -0.60257    -0.43159     4.36959
    20  H   1.0    0.15    1.06    1.44    -2.19209    -0.56722     3.39755
    21  H   1.0    0.16    1.21    1.47     0.80369    -1.34228     3.54310
    22  H   1.0    0.13    1.05    1.44    -0.16075     1.34516     4.74304
    23  N   5.0   -0.22    3.02    1.93     0.30565     4.63100     4.06159
    24  H   1.0    0.12    1.01    1.43    -0.15638     4.48914     2.19680
    25  H   1.0    0.10    0.99    1.43     2.07388     5.39419     4.10584
    26  H   1.0    0.11    0.99    1.43    -0.86378     5.97784     4.78928

  Z AO/shell   Hii/eV     exponent
  1     Wed Apr 25 08:07:45 CEST 2018   EN: 2.200 GM2: 0.406  GM3: 0.0800  RAES: 1.40
     1s    -10.707211    1.230000
  7     Wed Apr 25 08:07:45 CEST 2018   EN: 3.040 GM2: 0.461  GM3:-0.0640  RAES: 1.90
     2s    -16.686243    2.339881
     2p    -12.523956    2.014332
  8     Wed Apr 25 08:07:45 CEST 2018   EN: 3.440 GM2: 0.452  GM3:-0.0517  RAES: 1.80
     2s    -20.229985    2.439742
     2p    -15.503117    2.137023
 16     Tue Apr 24 11:44:34 CEST 2018   EN: 2.580 GM2: 0.340  GM3:-0.0502  RAES: 3.10
     3s    -20.029654    1.981333
     3p    -11.377694    2.025643
     3d     -0.420282    1.702555
 no old-style atom pair restraining (fixing) potential

molecular fragmentation (1/2 indicates fragments):
11111122222222222222222222
# atoms in fragment 1/2:     6    20
 fragment masses (1/2) :       97.07      108.11
CMA distance (Bohr)    :   5.333
constraining FC (au)   :  0.0500
           ------------------------------------------------- 
          |        Self-Consistent Charge Iterations        |
           ------------------------------------------------- 

 Ncao       : 65
 Nao        : 64
 Nshell     : 38
 Nel        : 80
 T(el)      :   300.0
 intcut     :    25.0
 scfconv/Eh :  0.100E-05
   qconv/e  :  0.100E-03
 intneglect :  0.100E-07
 broydamp   :      0.250
 iter      E             dE          RMSdq      gap      omega  full diag
   1    -50.5867038 -0.505867E+02  0.702E+00   10.14       0.0  T
   2    -50.6364133 -0.497095E-01  0.505E+00    9.61       1.0  T
   3    -50.6740674 -0.376541E-01  0.132E+00    7.26       1.0  T
   4    -50.6794838 -0.541639E-02  0.562E-01    7.65       1.0  T
   5    -50.6801454 -0.661582E-03  0.308E-01    7.64       1.0  T
   6    -50.6805877 -0.442311E-03  0.135E-01    7.72       1.0  T
   7    -50.6806923 -0.104614E-03  0.489E-02    7.72       1.0  T
   8    -50.6807037 -0.114080E-04  0.307E-02    7.71       1.0  T
   9    -50.6807091 -0.543693E-05  0.128E-02    7.72       1.5  T
  10    -50.6807102 -0.102938E-05  0.225E-03    7.72       8.7  T
  11    -50.6807102 -0.144125E-07  0.125E-03    7.72      15.7  T
  12    -50.6807102 -0.667672E-08  0.508E-04    7.72      38.6  T
  13    -50.6807102 -0.155595E-08  0.142E-04    7.72     138.5  T
speedup  1.04
cpu  time for SCC    0.02 s
wall time for SCC    0.02 s

   *** convergence criteria satisfied after 13 iterations ***

          eigenvalues
 #    :          28         29         30         31         32         33         34         35
 occ. :        2.000      2.000      2.000      2.000      2.000      2.000      2.000      2.000
 eps  :       -12.837    -12.410    -12.327    -12.076    -11.877    -11.734    -11.619    -11.520
 #    :          36         37         38         39         40         41         42         43
 occ. :        2.000      2.000      2.000      2.000      2.000      0.000      0.000      0.000
 eps  :       -11.400    -11.170    -10.607    -10.207     -9.900     -2.177     -0.440     -0.205
 #    :          44         45         46         47         48         49         50         51
 occ. :        0.000      0.000      0.000      0.000      0.000      0.000      0.000      0.000
 eps  :         0.576      0.813      1.085      2.195      3.486      3.784      4.214      4.772


   #   Z            q   n(s)   n(p)   n(d)      C6AA      α(0)
   1  16 S      1.625  1.583  1.825  0.967    90.495    16.011
   2   8 O     -0.762  1.779  4.984  0.000    30.467     7.401
   3   8 O     -0.761  1.776  4.986  0.000    30.431     7.396
   4   8 O     -0.747  1.765  4.981  0.000    30.012     7.345
   5   8 O     -0.551  1.721  4.830  0.000    24.008     6.615
   6   1 H      0.363  0.637  0.000  0.000     0.549     1.160
   7   8 O     -0.852  1.828  5.024  0.000    33.125     7.719
   8   1 H      0.217  0.783  0.000  0.000     1.035     1.599
   9   8 O     -0.676  1.761  4.916  0.000    27.083     7.024
  10   1 H      0.311  0.689  0.000  0.000     0.688     1.302
  11   1 H      0.286  0.714  0.000  0.000     0.765     1.374
  12   8 O     -0.607  1.738  4.869  0.000    25.354     6.796
  13   1 H      0.318  0.682  0.000  0.000     0.670     1.286
  14   1 H      0.327  0.673  0.000  0.000     0.644     1.261
  15   8 O     -0.460  1.657  4.803  0.000    21.987     6.333
  16   1 H      0.396  0.604  0.000  0.000     0.493     1.103
  17   1 H      0.387  0.613  0.000  0.000     0.509     1.121
  18   1 H      0.408  0.592  0.000  0.000     0.464     1.066
  19   8 O     -0.450  1.653  4.797  0.000    21.792     6.305
  20   1 H      0.398  0.602  0.000  0.000     0.488     1.097
  21   1 H      0.407  0.593  0.000  0.000     0.465     1.068
  22   1 H      0.378  0.622  0.000  0.000     0.527     1.141
  23   7 N     -0.455  1.384  4.071  0.000    31.962     8.396
  24   1 H      0.192  0.808  0.000  0.000     1.146     1.677
  25   1 H      0.155  0.845  0.000  0.000     1.368     1.832
  26   1 H      0.152  0.848  0.000  0.000     1.386     1.844

 Mol. C6AA /au·bohr⁶  :       5519.487515
 Mol. C8AA /au·bohr⁸  :     119460.775939
 Mol. α(0) /au        :        107.270595

 
 Wiberg/Mayer (AO) data. WBOs > 0.1 written file <wbo>
 largest (>0.05) Wiberg bond orders for each atom
           total WBO             WBO to atom ...
     1  S   4.888    O    2 1.291    O    4 1.289    O    3 1.279    O    5 0.990
     2  O   1.670    S    1 1.291    O    4 0.113    O    3 0.112    O    5 0.075
     3  O   1.683    S    1 1.279    O    2 0.112    O    4 0.111    H   20 0.077    O    5 0.071
     4  O   1.706    S    1 1.289    O    2 0.113    O    3 0.111    H   17 0.072    O    5 0.053
     5  O   2.040    S    1 0.990    H    6 0.844    O    2 0.075    O    3 0.071    O    4 0.053
     6  H   0.867    O    5 0.844
     7  O   1.617    H    8 0.943    H   21 0.202    H   18 0.194    H   10 0.097    O   19 0.062    O   15 0.059
     8  H   0.953    O    7 0.943
     9  O   1.784    H   11 0.891    H   10 0.805
    10  H   0.903    O    9 0.805    O    7 0.097
    11  H   0.918    O    9 0.891
    12  O   1.908    H   13 0.884    H   14 0.857    H   16 0.098
    13  H   0.899    O   12 0.884
    14  H   0.893    O   12 0.857
    15  O   2.281    H   17 0.770    H   16 0.741    H   18 0.634    O    7 0.059
    16  H   0.843    O   15 0.741    O   12 0.098
    17  H   0.850    O   15 0.770    O    4 0.072
    18  H   0.833    O   15 0.634    O    7 0.194
    19  O   2.290    H   22 0.770    H   20 0.756    H   21 0.627    O    7 0.062
    20  H   0.841    O   19 0.756    O    3 0.077
    21  H   0.834    O   19 0.627    O    7 0.202
    22  H   0.857    O   19 0.770    N   23 0.081
    23  N   3.017    H   26 0.973    H   25 0.973    H   24 0.941    H   22 0.081
    24  H   0.963    N   23 0.941
    25  H   0.976    N   23 0.973
    26  H   0.977    N   23 0.973
 MOs/occ written to file <molden.input>
 
molecular dipole:
                 x           y           z       tot (Debye)
 q only:        0.444       1.571       1.161
   full:       -0.318       2.065       0.838       5.723
molecular quadrupole (traceless):
                xx          xy          yy          xz          yz          zz
 q only:        5.850       1.961     -10.561       1.953       3.551       4.711
  q+dip:        9.169      -0.248      -8.072       8.008       4.188      -1.097
   full:        9.759      -0.721      -8.279       8.516       4.224      -1.481

SCC energy    :     -50.6807102
rep           :       0.2894684
ES            :       0.2920139
AES           :      -0.0712367
AXC           :      -0.0073903
disp          :      -0.0193315
XB            :       0.0000000
fix           :       0.0000000
total E       :     -50.3909142
atomizationE  :       4.9212184     3088.11
(atE without considering molecular charge,
 total energy contains solvation terms)
H-L gap (eV)  :          7.7237
           ------------------------------------------------- 
          |                 ===============                 |
          |                   A N C O P T                   |
          |                 ===============                 |
          |          Approximate Normal Coordinate          |
          |           Rational Function Optimizer           |
           ------------------------------------------------- 
dumping coords to <xtbopt.coord> and <xtbopt.log>
 optlevel               2
 Maxcycle             520
 Maxmicro              25
 Econv         1.000000000000000E-007
 Gconv         2.000000000000000E-004
 Maxdispl       1.00000000000000     
 Hlow          5.000000000000000E-003
 S6             20.0000000000000     
 Nvar               72

generating ANC from model Hessian ...
 Shifting diagonal of input Hessian by   4.841021161150847E-003
 Lowest  eigenvalues of input Hessian
   -0.000000    0.000000    0.000000    0.000000    0.000000    0.000000
    0.005000    0.005117    0.005655    0.006030    0.006226    0.006540
    0.006917    0.007976    0.008223    0.009091    0.009737    0.009967
 Highest eigenvalues
    1.559017    1.585446    1.586105    3.142272    3.214229    3.315972
 
cpu  time for ANC gen    0.02 s
wall time for ANC gen    0.02 s
................................................................................
.............................. CYCLE    1 ......................................
................................................................................
   1    -50.6807102 -0.506807E+02  0.779E-05    7.72       0.0  T
   2    -50.6807102 -0.139551E-10  0.591E-05    7.72     331.7  T
   3    -50.6807102 -0.130598E-10  0.282E-05    7.72     695.3  T
speedup  1.25
cpu  time for SCC    0.00 s
wall time for SCC    0.00 s
speedup  1.06
cpu  time for grad    0.01 s
wall time for grad    0.01 s
 E :    -50.39091415  G :  0.206075    pred/act E change:  0.000D+00  0.494D-07
Maxdispl :   0.1240   ||displ|| :   0.3393   Lambda : -0.332D-01
Largest |displ|/coords:  0.1240 (  18)  0.1211 (  26)  0.1191 (  54)
................................................................................
.............................. CYCLE    2 ......................................
................................................................................
   1    -50.6912159 -0.506912E+02  0.321E-01    7.91       0.0  T
   2    -50.6914096 -0.193642E-03  0.243E-01    7.96       1.0  T
   3    -50.6914962 -0.866255E-04  0.793E-02    8.06       1.0  T
   4    -50.6915121 -0.158999E-04  0.195E-02    8.05       1.0  T
   5    -50.6915133 -0.124274E-05  0.559E-03    8.04       3.5  T
   6    -50.6915134 -0.466178E-07  0.300E-03    8.04       6.5  T
speedup  1.00
cpu  time for SCC    0.01 s
wall time for SCC    0.01 s
speedup  0.97
cpu  time for grad    0.01 s
wall time for grad    0.01 s
 E :    -50.41703740  G :  0.126592    pred/act E change:  0.000D+00 -0.261D-01
Maxdispl :   0.1418   ||displ|| :   0.3647   Lambda : -0.172D-01
Largest |displ|/coords:  0.1418 (  23)  0.1379 (  18)  0.1099 (  29)
................................................................................
.............................. CYCLE    3 ......................................
................................................................................
   1    -50.6966508 -0.506967E+02  0.294E-01    8.17       0.0  T
   2    -50.6969253 -0.274586E-03  0.219E-01    8.24       1.0  T
   3    -50.6970392 -0.113871E-03  0.860E-02    8.33       1.0  T
   4    -50.6970520 -0.128060E-04  0.176E-02    8.33       1.1  T
   5    -50.6970530 -0.999086E-06  0.516E-03    8.32       3.8  T
   6    -50.6970531 -0.390254E-07  0.277E-03    8.32       7.1  T
speedup  0.95
cpu  time for SCC    0.01 s
wall time for SCC    0.01 s
speedup  1.01
cpu  time for grad    0.01 s
wall time for grad    0.01 s
 E :    -50.43065195  G :  0.078990    pred/act E change: -0.185D-01 -0.136D-01
Maxdispl :   0.1680   ||displ|| :   0.3741   Lambda : -0.850D-02
Largest |displ|/coords:  0.1680 (  19)  0.1242 (  23)  0.1216 (   2)
................................................................................
.............................. CYCLE    4 ......................................
................................................................................
   1    -50.6983537 -0.506984E+02  0.299E-01    8.34       0.0  T
   2    -50.6986363 -0.282638E-03  0.216E-01    8.39       1.0  T
   3    -50.6987517 -0.115346E-03  0.819E-02    8.47       1.0  T
   4    -50.6987647 -0.130733E-04  0.168E-02    8.47       1.2  T
   5    -50.6987656 -0.854329E-06  0.519E-03    8.47       3.8  T
   6    -50.6987656 -0.350967E-07  0.287E-03    8.46       6.8  T
speedup  0.97
cpu  time for SCC    0.01 s
wall time for SCC    0.01 s
speedup  0.95
cpu  time for grad    0.01 s
wall time for grad    0.01 s
 E :    -50.43735132  G :  0.051102    pred/act E change: -0.974D-02 -0.670D-02
Maxdispl :   0.1565   ||displ|| :   0.3235   Lambda : -0.414D-02
Largest |displ|/coords:  0.1565 (  19)  0.1364 (   3)  0.1224 (   2)
................................................................................
.............................. CYCLE    5 ......................................
................................................................................
   1    -50.6991146 -0.506991E+02  0.244E-01    8.47       0.0  T
   2    -50.6992823 -0.167737E-03  0.176E-01    8.52       1.0  T
   3    -50.6993522 -0.698814E-04  0.623E-02    8.62       1.0  T
   4    -50.6993616 -0.940074E-05  0.145E-02    8.62       1.4  T
   5    -50.6993622 -0.626853E-06  0.438E-03    8.62       4.5  T
   6    -50.6993622 -0.240548E-07  0.246E-03    8.62       8.0  T
speedup  1.00
cpu  time for SCC    0.01 s
wall time for SCC    0.01 s
speedup  1.03
cpu  time for grad    0.01 s
wall time for grad    0.01 s
 E :    -50.44065340  G :  0.036970    pred/act E change: -0.484D-02 -0.330D-02
Maxdispl :   0.1964   ||displ|| :   0.3834   Lambda : -0.505D-02
Largest |displ|/coords:  0.1964 (   3)  0.1771 (  19)  0.1080 (  12)
................................................................................
.............................. CYCLE    6 ......................................
................................................................................
   1    -50.7077466 -0.507077E+02  0.280E-01    8.59       0.0  T
   2    -50.7081421 -0.395590E-03  0.198E-01    8.67       1.0  T
   3    -50.7083076 -0.165422E-03  0.840E-02    8.79       1.0  T
   4    -50.7083174 -0.979872E-05  0.201E-02    8.82       1.0  T
   5    -50.7083184 -0.991099E-06  0.579E-03    8.82       3.4  T
   6    -50.7083184 -0.440104E-07  0.305E-03    8.82       6.4  T
speedup  0.98
cpu  time for SCC    0.01 s
wall time for SCC    0.01 s
speedup  1.03
cpu  time for grad    0.01 s
wall time for grad    0.01 s
 E :    -50.44328800  G :  0.020697    pred/act E change: -0.229D-02 -0.263D-02
Maxdispl :   0.2483   ||displ|| :   0.4288   Lambda : -0.277D-02
Largest |displ|/coords:  0.2483 (  19)  0.1308 (   3)  0.1298 (  18)
................................................................................
.............................. CYCLE    7 ......................................
................................................................................
   1    -50.7001617 -0.507002E+02  0.386E-01    8.72       0.0  T
   2    -50.7004750 -0.313285E-03  0.277E-01    8.78       1.0  T
   3    -50.7006180 -0.142996E-03  0.881E-02    8.89       1.0  T
   4    -50.7006433 -0.252962E-04  0.195E-02    8.90       1.0  T
   5    -50.7006442 -0.867100E-06  0.760E-03    8.89       2.6  T
   6    -50.7006443 -0.165303E-06  0.430E-03    8.89       4.6  T
   7    -50.7006444 -0.210970E-07  0.950E-04    8.89      20.6  T
speedup  1.00
cpu  time for SCC    0.01 s
wall time for SCC    0.01 s
speedup  0.96
cpu  time for grad    0.01 s
wall time for grad    0.02 s
 E :    -50.44309140  G :  0.052826    pred/act E change: -0.289D-02  0.197D-03
Maxdispl :   0.1593   ||displ|| :   0.3487   Lambda : -0.598D-02
Largest |displ|/coords:  0.1593 (  19)  0.1238 (  14)  0.1203 (  18)
................................................................................
.............................. CYCLE    8 ......................................
................................................................................
   1    -50.7098607 -0.507099E+02  0.405E-01    8.93       0.0  T
   2    -50.7101491 -0.288358E-03  0.295E-01    8.94       1.0  T
   3    -50.7103014 -0.152262E-03  0.872E-02    8.90       1.0  T
   4    -50.7103279 -0.265386E-04  0.219E-02    8.89       1.0  T
   5    -50.7103289 -0.985341E-06  0.844E-03    8.89       2.3  T
   6    -50.7103289 -0.428415E-07  0.394E-03    8.89       5.0  T
   7    -50.7103290 -0.477076E-07  0.102E-03    8.89      19.2  T
speedup  0.96
cpu  time for SCC    0.01 s
wall time for SCC    0.01 s
speedup  0.99
cpu  time for grad    0.02 s
wall time for grad    0.02 s
 E :    -50.44301242  G :  0.045818    pred/act E change: -0.164D-02  0.790D-04
Maxdispl :   0.1453   ||displ|| :   0.2606   Lambda : -0.306D-02
Largest |displ|/coords:  0.1453 (   2)  0.1164 (  10)  0.0830 (  15)
................................................................................
.............................. CYCLE    9 ......................................
................................................................................
   1    -50.7122912 -0.507123E+02  0.251E-01    8.89       0.0  T
   2    -50.7123424 -0.511765E-04  0.187E-01    8.87       1.0  T
   3    -50.7123709 -0.285478E-04  0.395E-02    8.81       1.0  T
   4    -50.7123781 -0.713734E-05  0.795E-03    8.83       2.5  T
   5    -50.7123782 -0.115002E-06  0.394E-03    8.83       5.0  T
   6    -50.7123782 -0.184199E-07  0.193E-03    8.83      10.1  T
speedup  0.94
cpu  time for SCC    0.01 s
wall time for SCC    0.01 s
speedup  0.99
cpu  time for grad    0.01 s
wall time for grad    0.02 s
 E :    -50.44436435  G :  0.016375    pred/act E change: -0.335D-02 -0.135D-02
Maxdispl :   0.1500   ||displ|| :   0.3083   Lambda : -0.167D-02
Largest |displ|/coords:  0.1500 (   2)  0.1230 (   3)  0.0920 (   4)
................................................................................
.............................. CYCLE   10 ......................................
................................................................................
   1    -50.7036223 -0.507036E+02  0.264E-01    8.80       0.0  T
   2    -50.7037339 -0.111560E-03  0.194E-01    8.85       1.0  T
   3    -50.7037880 -0.541165E-04  0.549E-02    8.93       1.0  T
   4    -50.7037999 -0.119378E-04  0.113E-02    8.93       1.7  T
   5    -50.7038002 -0.272748E-06  0.498E-03    8.93       3.9  T
   6    -50.7038002 -0.373945E-07  0.262E-03    8.93       7.5  T
   7    -50.7038002 -0.811869E-08  0.526E-04    8.92      37.3  T
speedup  1.03
cpu  time for SCC    0.01 s
wall time for SCC    0.01 s
speedup  0.97
cpu  time for grad    0.01 s
wall time for grad    0.02 s
 E :    -50.44446178  G :  0.035058    pred/act E change: -0.164D-02 -0.974D-04
Maxdispl :   0.0920   ||displ|| :   0.1342   Lambda : -0.120D-02
Largest |displ|/coords:  0.0920 (   2)  0.0373 (   7)  0.0355 (   4)
................................................................................
.............................. CYCLE   11 ......................................
................................................................................
   1    -50.7096153 -0.507096E+02  0.111E-01    8.95       0.0  T
   2    -50.7096319 -0.165633E-04  0.817E-02    8.94       1.0  T
   3    -50.7096414 -0.951090E-05  0.215E-02    8.90       1.0  T
   4    -50.7096432 -0.179021E-05  0.591E-03    8.91       3.3  T
   5    -50.7096432 -0.588795E-07  0.223E-03    8.91       8.8  T
speedup  1.00
cpu  time for SCC    0.00 s
wall time for SCC    0.01 s
speedup  1.01
cpu  time for grad    0.01 s
wall time for grad    0.01 s
 E :    -50.44509635  G :  0.013008    pred/act E change: -0.914D-03 -0.635D-03
Maxdispl :   0.0679   ||displ|| :   0.1327   Lambda : -0.342D-03
Largest |displ|/coords:  0.0679 (   3)  0.0622 (   6)  0.0479 (  10)
................................................................................
.............................. CYCLE   12 ......................................
................................................................................
   1    -50.7101957 -0.507102E+02  0.803E-02    8.90       0.0  T
   2    -50.7101997 -0.396063E-05  0.603E-02    8.90       1.0  T
   3    -50.7102018 -0.214706E-05  0.985E-03    8.92       2.0  T
   4    -50.7102025 -0.646424E-06  0.313E-03    8.91       6.3  T
   5    -50.7102025 -0.106982E-07  0.941E-04    8.91      20.8  T
   6    -50.7102025 -0.818915E-09  0.493E-04    8.91      39.8  T
speedup  1.15
cpu  time for SCC    0.01 s
wall time for SCC    0.01 s
speedup  1.01
cpu  time for grad    0.01 s
wall time for grad    0.01 s
 E :    -50.44529062  G :  0.008643    pred/act E change: -0.610D-03 -0.194D-03
Maxdispl :   0.1247   ||displ|| :   0.2727   Lambda : -0.670D-03
Largest |displ|/coords:  0.1247 (   3)  0.0996 (   2)  0.0844 (  19)
................................................................................
.............................. CYCLE   13 ......................................
................................................................................
   1    -50.7122680 -0.507123E+02  0.165E-01    8.93       0.0  T
   2    -50.7123082 -0.401621E-04  0.121E-01    8.94       1.0  T
   3    -50.7123254 -0.172490E-04  0.308E-02    8.95       1.0  T
   4    -50.7123303 -0.493084E-05  0.734E-03    8.95       2.7  T
   5    -50.7123304 -0.904186E-07  0.283E-03    8.95       6.9  T
   6    -50.7123305 -0.112824E-07  0.144E-03    8.95      13.6  T
speedup  1.00
cpu  time for SCC    0.01 s
wall time for SCC    0.01 s
speedup  0.96
cpu  time for grad    0.01 s
wall time for grad    0.01 s
 E :    -50.44578537  G :  0.007789    pred/act E change: -0.174D-03 -0.495D-03
Maxdispl :   0.1502   ||displ|| :   0.3390   Lambda : -0.591D-03
Largest |displ|/coords:  0.1502 (   3)  0.1169 (  19)  0.0871 (   2)
................................................................................
.............................. CYCLE   14 ......................................
................................................................................
   1    -50.7116974 -0.507117E+02  0.202E-01    8.96       0.0  T
   2    -50.7117625 -0.650802E-04  0.148E-01    8.97       1.0  T
   3    -50.7117912 -0.287310E-04  0.402E-02    8.95       1.0  T
   4    -50.7117987 -0.745108E-05  0.926E-03    8.96       2.1  T
   5    -50.7117988 -0.155617E-06  0.373E-03    8.96       5.3  T
   6    -50.7117989 -0.232054E-07  0.196E-03    8.96      10.0  T
   7    -50.7117989 -0.631723E-08  0.616E-04    8.96      31.9  T
speedup  1.00
cpu  time for SCC    0.01 s
wall time for SCC    0.01 s
speedup  1.03
cpu  time for grad    0.02 s
wall time for grad    0.02 s
 E :    -50.44609462  G :  0.009919    pred/act E change: -0.360D-03 -0.309D-03
Maxdispl :   0.0464   ||displ|| :   0.1215   Lambda : -0.202D-03
Largest |displ|/coords:  0.0464 (  11)  0.0444 (  21)  0.0389 (  13)
................................................................................
.............................. CYCLE   15 ......................................
................................................................................
   1    -50.7125702 -0.507126E+02  0.767E-02    8.97       0.0  T
   2    -50.7125717 -0.142554E-05  0.577E-02    8.96       1.0  T
   3    -50.7125728 -0.113095E-05  0.629E-03    8.96       3.1  T
   4    -50.7125730 -0.198238E-06  0.236E-03    8.96       8.3  T
   5    -50.7125730 -0.544272E-08  0.736E-04    8.96      26.6  T
speedup  1.11
cpu  time for SCC    0.01 s
wall time for SCC    0.01 s
speedup  0.99
cpu  time for grad    0.01 s
wall time for grad    0.01 s
 E :    -50.44621182  G :  0.008303    pred/act E change: -0.329D-03 -0.117D-03
Maxdispl :   0.0454   ||displ|| :   0.1112   Lambda : -0.144D-03
Largest |displ|/coords:  0.0454 (   6)  0.0361 (  13)  0.0320 (  12)
................................................................................
.............................. CYCLE   16 ......................................
................................................................................
   1    -50.7143657 -0.507144E+02  0.599E-02    8.97       0.0  T
   2    -50.7143668 -0.103155E-05  0.447E-02    8.97       1.0  T
   3    -50.7143676 -0.831338E-06  0.616E-03    8.96       3.2  T
   4    -50.7143677 -0.130676E-06  0.176E-03    8.97      11.2  T
   5    -50.7143677 -0.467330E-08  0.731E-04    8.97      26.8  T
speedup  0.98
cpu  time for SCC    0.00 s
wall time for SCC    0.01 s
speedup  1.01
cpu  time for grad    0.01 s
wall time for grad    0.01 s
 E :    -50.44631293  G :  0.005789    pred/act E change: -0.102D-03 -0.101D-03
Maxdispl :   0.1078   ||displ|| :   0.2878   Lambda : -0.262D-03
Largest |displ|/coords:  0.1078 (  11)  0.0909 (  19)  0.0899 (   2)
................................................................................
.............................. CYCLE   17 ......................................
................................................................................
   1    -50.7148389 -0.507148E+02  0.185E-01    8.97       0.0  T
   2    -50.7148466 -0.774474E-05  0.139E-01    8.97       1.0  T
   3    -50.7148529 -0.626867E-05  0.163E-02    8.96       1.2  T
   4    -50.7148540 -0.108376E-05  0.536E-03    8.97       3.7  T
   5    -50.7148540 -0.374900E-07  0.201E-03    8.97       9.7  T
   6    -50.7148540 -0.529894E-08  0.104E-03    8.97      18.8  T
speedup  1.00
cpu  time for SCC    0.01 s
wall time for SCC    0.01 s
speedup  0.95
cpu  time for grad    0.01 s
wall time for grad    0.01 s
 E :    -50.44638126  G :  0.009920    pred/act E change: -0.730D-04 -0.683D-04
Maxdispl :   0.0752   ||displ|| :   0.1383   Lambda : -0.237D-03
Largest |displ|/coords:  0.0752 (   6)  0.0514 (  14)  0.0468 (   8)
................................................................................
.............................. CYCLE   18 ......................................
................................................................................
   1    -50.7140607 -0.507141E+02  0.108E-01    8.94       0.0  T
   2    -50.7140649 -0.421104E-05  0.816E-02    8.94       1.0  T
   3    -50.7140680 -0.316468E-05  0.116E-02    8.95       1.7  T
   4    -50.7140687 -0.634177E-06  0.289E-03    8.95       6.8  T
   5    -50.7140687 -0.849442E-08  0.138E-03    8.95      14.3  T
speedup  0.98
cpu  time for SCC    0.00 s
wall time for SCC    0.01 s
speedup  1.02
cpu  time for grad    0.01 s
wall time for grad    0.01 s
 E :    -50.44649358  G :  0.006893    pred/act E change: -0.142D-03 -0.112D-03
Maxdispl :   0.0390   ||displ|| :   0.0871   Lambda : -0.119D-03
Largest |displ|/coords:  0.0390 (   3)  0.0347 (   4)  0.0346 (   9)
................................................................................
.............................. CYCLE   19 ......................................
................................................................................
   1    -50.7152522 -0.507153E+02  0.509E-02    8.96       0.0  T
   2    -50.7152554 -0.314863E-05  0.374E-02    8.97       1.0  T
   3    -50.7152569 -0.150575E-05  0.955E-03    8.98       2.1  T
   4    -50.7152572 -0.379215E-06  0.233E-03    8.97       8.4  T
   5    -50.7152573 -0.748530E-08  0.774E-04    8.97      25.3  T
speedup  1.00
cpu  time for SCC    0.01 s
wall time for SCC    0.00 s
speedup  1.02
cpu  time for grad    0.01 s
wall time for grad    0.01 s
 E :    -50.44654143  G :  0.005293    pred/act E change: -0.121D-03 -0.478D-04
Maxdispl :   0.0369   ||displ|| :   0.0962   Lambda : -0.108D-03
Largest |displ|/coords:  0.0369 (   1)  0.0347 (   6)  0.0261 (  13)
................................................................................
.............................. CYCLE   20 ......................................
................................................................................
   1    -50.7153651 -0.507154E+02  0.610E-02    8.99       0.0  T
   2    -50.7153665 -0.139534E-05  0.456E-02    8.99       1.0  T
   3    -50.7153674 -0.828154E-06  0.748E-03    9.00       2.6  T
   4    -50.7153676 -0.218964E-06  0.229E-03    9.00       8.6  T
   5    -50.7153676 -0.771605E-08  0.664E-04    9.00      29.5  T
speedup  0.98
cpu  time for SCC    0.00 s
wall time for SCC    0.01 s
speedup  0.96
cpu  time for grad    0.01 s
wall time for grad    0.01 s
 E :    -50.44662272  G :  0.005668    pred/act E change: -0.600D-04 -0.813D-04
Maxdispl :   0.1420   ||displ|| :   0.3374   Lambda : -0.231D-03
Largest |displ|/coords:  0.1420 (   6)  0.1135 (  19)  0.1086 (   1)
................................................................................
.............................. CYCLE   21 ......................................
................................................................................
   1    -50.7126483 -0.507126E+02  0.225E-01    8.94       0.0  T
   2    -50.7126705 -0.222292E-04  0.168E-01    8.94       1.0  T
   3    -50.7126847 -0.141998E-04  0.278E-02    8.95       1.0  T
   4    -50.7126882 -0.346953E-05  0.778E-03    8.94       2.5  T
   5    -50.7126883 -0.104405E-06  0.302E-03    8.94       6.5  T
   6    -50.7126883 -0.101559E-07  0.158E-03    8.94      12.4  T
   7    -50.7126883 -0.565964E-08  0.401E-04    8.94      48.9  T
speedup  1.03
cpu  time for SCC    0.01 s
wall time for SCC    0.01 s
speedup  0.98
cpu  time for grad    0.01 s
wall time for grad    0.02 s
 E :    -50.44672002  G :  0.011666    pred/act E change: -0.545D-04 -0.973D-04
Maxdispl :   0.0376   ||displ|| :   0.0979   Lambda : -0.180D-03
Largest |displ|/coords:  0.0376 (   3)  0.0361 (   6)  0.0356 (   2)
................................................................................
.............................. CYCLE   22 ......................................
................................................................................
   1    -50.7145068 -0.507145E+02  0.704E-02    8.97       0.0  T
   2    -50.7145128 -0.603583E-05  0.511E-02    8.97       1.0  T
   3    -50.7145156 -0.279331E-05  0.135E-02    8.97       1.5  T
   4    -50.7145162 -0.637193E-06  0.269E-03    8.97       7.3  T
   5    -50.7145162 -0.116900E-07  0.990E-04    8.97      19.8  T
speedup  1.00
cpu  time for SCC    0.00 s
wall time for SCC    0.01 s
speedup  0.97
cpu  time for grad    0.01 s
wall time for grad    0.01 s
 E :    -50.44685195  G :  0.009191    pred/act E change: -0.129D-03 -0.132D-03
Maxdispl :   0.1626   ||displ|| :   0.2940   Lambda : -0.329D-03
Largest |displ|/coords:  0.1626 (   6)  0.0839 (   1)  0.0832 (  19)
................................................................................
.............................. CYCLE   23 ......................................
................................................................................
   1    -50.7158742 -0.507159E+02  0.208E-01    8.97       0.0  T
   2    -50.7159033 -0.291181E-04  0.154E-01    8.97       1.0  T
   3    -50.7159203 -0.169667E-04  0.327E-02    8.97       1.0  T
   4    -50.7159242 -0.391020E-05  0.749E-03    8.97       2.6  T
   5    -50.7159243 -0.740537E-07  0.298E-03    8.97       6.6  T
   6    -50.7159243 -0.124337E-07  0.145E-03    8.97      13.5  T
speedup  1.00
cpu  time for SCC    0.01 s
wall time for SCC    0.01 s
speedup  0.97
cpu  time for grad    0.01 s
wall time for grad    0.01 s
 E :    -50.44713834  G :  0.013807    pred/act E change: -0.910D-04 -0.286D-03
Maxdispl :   0.3285   ||displ|| :   0.6786   Lambda : -0.111D-02
Largest |displ|/coords:  0.3285 (   6)  0.2271 (  19)  0.1669 (  25)
................................................................................
.............................. CYCLE   24 ......................................
................................................................................
   1    -50.7232160 -0.507232E+02  0.491E-01    8.99       0.0  T
   2    -50.7234204 -0.204383E-03  0.363E-01    8.97       1.0  T
   3    -50.7235455 -0.125143E-03  0.846E-02    8.94       1.0  T
   4    -50.7235708 -0.252810E-04  0.197E-02    8.94       1.0  T
   5    -50.7235713 -0.519150E-06  0.807E-03    8.94       2.4  T
   6    -50.7235714 -0.856551E-07  0.376E-03    8.94       5.2  T
   7    -50.7235714 -0.182324E-07  0.123E-03    8.94      15.9  T
   8    -50.7235714 -0.315720E-08  0.197E-04    8.94      99.4  T
speedup  0.91
cpu  time for SCC    0.01 s
wall time for SCC    0.01 s
speedup  0.99
cpu  time for grad    0.02 s
wall time for grad    0.02 s
 E :    -50.44814066  G :  0.027098    pred/act E change: -0.179D-03 -0.100D-02
Maxdispl :   0.2694   ||displ|| :   0.6571   Lambda : -0.162D-02
Largest |displ|/coords:  0.2694 (   6)  0.2470 (  19)  0.1672 (  30)
................................................................................
.............................. CYCLE   25 ......................................
................................................................................
   1    -50.7319078 -0.507319E+02  0.505E-01    8.88       0.0  T
   2    -50.7320928 -0.185010E-03  0.375E-01    8.85       1.0  T
   3    -50.7322275 -0.134660E-03  0.835E-02    8.73       1.0  T
   4    -50.7322494 -0.218768E-04  0.224E-02    8.74       1.0  T
   5    -50.7322500 -0.670479E-06  0.857E-03    8.74       2.3  T
   6    -50.7322501 -0.872687E-07  0.429E-03    8.74       4.6  T
   7    -50.7322501 -0.201483E-07  0.126E-03    8.74      15.6  T
speedup  0.87
cpu  time for SCC    0.01 s
wall time for SCC    0.01 s
speedup  0.97
cpu  time for grad    0.01 s
wall time for grad    0.02 s
 E :    -50.44880049  G :  0.030662    pred/act E change: -0.811D-03 -0.660D-03
Maxdispl :   0.1593   ||displ|| :   0.2948   Lambda : -0.173D-02
Largest |displ|/coords:  0.1593 (   6)  0.0733 (   4)  0.0726 (   9)

generating ANC from model Hessian ...
 Shifting diagonal of input Hessian by   5.063122161247656E-003
 Lowest  eigenvalues of input Hessian
    0.005000   -0.000000   -0.000000   -0.000000   -0.000000    0.000000
    0.000000    0.005155    0.005473    0.005942    0.006406    0.006972
    0.007395    0.007836    0.009155    0.010156    0.010374    0.011768
 Highest eigenvalues
    1.412468    1.442112    1.446177    2.769007    3.565674    3.845754
 
cpu  time for ANC gen    0.02 s
wall time for ANC gen    0.02 s
................................................................................
.............................. CYCLE   26 ......................................
................................................................................
   1    -50.7404130 -0.507404E+02  0.229E-01    9.21       0.0  T
   2    -50.7404459 -0.328578E-04  0.167E-01    9.21       1.0  T
   3    -50.7404633 -0.174607E-04  0.407E-02    9.20       1.0  T
   4    -50.7404668 -0.349268E-05  0.124E-02    9.20       1.6  T
   5    -50.7404670 -0.211599E-06  0.312E-03    9.20       6.3  T
   6    -50.7404671 -0.136337E-07  0.181E-03    9.20      10.8  T
   7    -50.7404671 -0.826342E-08  0.709E-04    9.20      27.7  T
   8    -50.7404671 -0.167249E-08  0.236E-04    9.20      83.1  T
speedup  1.03
cpu  time for SCC    0.01 s
wall time for SCC    0.01 s
speedup  1.01
cpu  time for grad    0.02 s
wall time for grad    0.02 s
 E :    -50.44901683  G :  0.041327    pred/act E change:  0.000D+00 -0.216D-03
Maxdispl :   0.1236   ||displ|| :   0.2770   Lambda : -0.309D-02
Largest |displ|/coords:  0.1236 (  10)  0.1089 (  15)  0.0811 (   1)
................................................................................
.............................. CYCLE   27 ......................................
................................................................................
   1    -50.7322234 -0.507322E+02  0.249E-01    9.06       0.0  T
   2    -50.7322453 -0.219287E-04  0.189E-01    9.06       1.0  T
   3    -50.7322593 -0.139807E-04  0.249E-02    9.05       1.0  T
   4    -50.7322630 -0.372232E-05  0.550E-03    9.05       3.6  T
   5    -50.7322631 -0.470431E-07  0.273E-03    9.05       7.2  T
speedup  0.96
cpu  time for SCC    0.01 s
wall time for SCC    0.01 s
speedup  0.96
cpu  time for grad    0.01 s
wall time for grad    0.01 s
 E :    -50.45101775  G :  0.020394    pred/act E change:  0.000D+00 -0.200D-02
Maxdispl :   0.1399   ||displ|| :   0.2558   Lambda : -0.145D-02
Largest |displ|/coords:  0.1399 (   2)  0.0793 (  14)  0.0693 (   1)
................................................................................
.............................. CYCLE   28 ......................................
................................................................................
   1    -50.7258302 -0.507258E+02  0.207E-01    8.86       0.0  T
   2    -50.7258414 -0.112659E-04  0.155E-01    8.86       1.0  T
   3    -50.7258503 -0.885864E-05  0.189E-02    8.86       1.0  T
   4    -50.7258519 -0.156962E-05  0.523E-03    8.85       3.7  T
   5    -50.7258519 -0.342540E-07  0.261E-03    8.85       7.5  T
speedup  1.00
cpu  time for SCC    0.01 s
wall time for SCC    0.00 s
speedup  0.97
cpu  time for grad    0.01 s
wall time for grad    0.01 s
 E :    -50.45177752  G :  0.021582    pred/act E change: -0.166D-02 -0.760D-03
Maxdispl :   0.0518   ||displ|| :   0.1444   Lambda : -0.641D-03
Largest |displ|/coords:  0.0518 (   5)  0.0503 (   2)  0.0453 (   6)
................................................................................
.............................. CYCLE   29 ......................................
................................................................................
   1    -50.7284245 -0.507284E+02  0.116E-01    8.77       0.0  T
   2    -50.7284307 -0.617526E-05  0.871E-02    8.77       1.0  T
   3    -50.7284350 -0.428154E-05  0.144E-02    8.75       1.4  T
   4    -50.7284358 -0.875060E-06  0.296E-03    8.75       6.6  T
   5    -50.7284359 -0.153033E-07  0.146E-03    8.75      13.4  T
speedup  1.00
cpu  time for SCC    0.00 s
wall time for SCC    0.01 s
speedup  1.04
cpu  time for grad    0.01 s
wall time for grad    0.01 s
 E :    -50.45218256  G :  0.016001    pred/act E change: -0.772D-03 -0.405D-03
Maxdispl :   0.1136   ||displ|| :   0.2312   Lambda : -0.739D-03
Largest |displ|/coords:  0.1136 (   5)  0.0920 (   2)  0.0764 (   1)
................................................................................
.............................. CYCLE   30 ......................................
................................................................................
   1    -50.7317079 -0.507317E+02  0.134E-01    8.68       0.0  T
   2    -50.7317159 -0.806422E-05  0.101E-01    8.68       1.0  T
   3    -50.7317224 -0.649063E-05  0.167E-02    8.66       1.2  T
   4    -50.7317235 -0.106232E-05  0.430E-03    8.66       4.6  T
   5    -50.7317235 -0.298164E-07  0.201E-03    8.66       9.8  T
   6    -50.7317235 -0.485124E-08  0.907E-04    8.66      21.6  T
speedup  1.02
cpu  time for SCC    0.01 s
wall time for SCC    0.01 s
speedup  1.05
cpu  time for grad    0.01 s
wall time for grad    0.01 s
 E :    -50.45264493  G :  0.010834    pred/act E change: -0.327D-03 -0.462D-03
Maxdispl :   0.1508   ||displ|| :   0.2574   Lambda : -0.473D-03
Largest |displ|/coords:  0.1508 (   2)  0.0970 (   5)  0.0658 (   3)
................................................................................
.............................. CYCLE   31 ......................................
................................................................................
   1    -50.7329211 -0.507329E+02  0.159E-01    8.65       0.0  T
   2    -50.7329270 -0.590424E-05  0.120E-01    8.64       1.0  T
   3    -50.7329322 -0.518213E-05  0.170E-02    8.62       1.2  T
   4    -50.7329329 -0.719520E-06  0.445E-03    8.63       4.4  T
   5    -50.7329330 -0.257056E-07  0.191E-03    8.63      10.3  T
   6    -50.7329330 -0.420879E-08  0.883E-04    8.63      22.2  T
speedup  1.02
cpu  time for SCC    0.01 s
wall time for SCC    0.01 s
speedup  1.04
cpu  time for grad    0.01 s
wall time for grad    0.01 s
 E :    -50.45299621  G :  0.012665    pred/act E change: -0.389D-03 -0.351D-03
Maxdispl :   0.1339   ||displ|| :   0.3223   Lambda : -0.604D-03
Largest |displ|/coords:  0.1339 (   2)  0.1155 (  14)  0.0898 (   5)
................................................................................
.............................. CYCLE   32 ......................................
................................................................................
   1    -50.7357455 -0.507357E+02  0.197E-01    8.69       0.0  T
   2    -50.7357595 -0.139607E-04  0.146E-01    8.68       1.0  T
   3    -50.7357691 -0.965703E-05  0.269E-02    8.65       1.0  T
   4    -50.7357709 -0.181675E-05  0.695E-03    8.66       2.8  T
   5    -50.7357710 -0.748598E-07  0.267E-03    8.66       7.3  T
   6    -50.7357710 -0.877392E-08  0.141E-03    8.66      13.9  T
speedup  1.00
cpu  time for SCC    0.01 s
wall time for SCC    0.01 s
speedup  1.03
cpu  time for grad    0.01 s
wall time for grad    0.01 s
 E :    -50.45337427  G :  0.011941    pred/act E change: -0.252D-03 -0.378D-03
Maxdispl :   0.1281   ||displ|| :   0.3089   Lambda : -0.515D-03
Largest |displ|/coords:  0.1281 (   2)  0.1162 (  14)  0.1071 (   9)
................................................................................
.............................. CYCLE   33 ......................................
................................................................................
   1    -50.7364581 -0.507365E+02  0.184E-01    8.70       0.0  T
   2    -50.7364703 -0.122417E-04  0.138E-01    8.69       1.0  T
   3    -50.7364785 -0.817497E-05  0.242E-02    8.67       1.0  T
   4    -50.7364802 -0.173616E-05  0.657E-03    8.67       3.0  T
   5    -50.7364803 -0.531554E-07  0.222E-03    8.67       8.9  T
   6    -50.7364803 -0.596206E-08  0.116E-03    8.67      17.0  T
speedup  1.02
cpu  time for SCC    0.01 s
wall time for SCC    0.01 s
speedup  1.04
cpu  time for grad    0.01 s
wall time for grad    0.01 s
 E :    -50.45360686  G :  0.017378    pred/act E change: -0.333D-03 -0.233D-03
Maxdispl :   0.1510   ||displ|| :   0.2766   Lambda : -0.681D-03
Largest |displ|/coords:  0.1510 (   1)  0.1094 (  14)  0.0685 (  11)
................................................................................
.............................. CYCLE   34 ......................................
................................................................................
   1    -50.7377076 -0.507377E+02  0.161E-01    8.69       0.0  T
   2    -50.7377243 -0.166820E-04  0.120E-01    8.68       1.0  T
   3    -50.7377327 -0.834994E-05  0.243E-02    8.66       1.0  T
   4    -50.7377350 -0.234951E-05  0.732E-03    8.66       2.7  T
   5    -50.7377351 -0.886324E-07  0.218E-03    8.66       9.0  T
   6    -50.7377351 -0.639644E-08  0.120E-03    8.66      16.4  T
speedup  1.02
cpu  time for SCC    0.01 s
wall time for SCC    0.01 s
speedup  1.04
cpu  time for grad    0.01 s
wall time for grad    0.01 s
 E :    -50.45412300  G :  0.012159    pred/act E change: -0.282D-03 -0.516D-03
Maxdispl :   0.2842   ||displ|| :   0.5416   Lambda : -0.107D-02
Largest |displ|/coords:  0.2842 (   1)  0.2203 (  14)  0.1579 (   8)
................................................................................
.............................. CYCLE   35 ......................................
................................................................................
   1    -50.7324215 -0.507324E+02  0.333E-01    8.53       0.0  T
   2    -50.7324817 -0.601614E-04  0.248E-01    8.51       1.0  T
   3    -50.7325089 -0.272761E-04  0.454E-02    8.46       1.0  T
   4    -50.7325190 -0.100801E-04  0.134E-02    8.46       1.5  T
   5    -50.7325193 -0.260145E-06  0.401E-03    8.46       4.9  T
   6    -50.7325193 -0.240765E-07  0.214E-03    8.46       9.1  T
   7    -50.7325193 -0.100295E-07  0.867E-04    8.46      22.6  T
speedup  1.01
cpu  time for SCC    0.01 s
wall time for SCC    0.01 s
speedup  1.04
cpu  time for grad    0.02 s
wall time for grad    0.02 s
 E :    -50.45475323  G :  0.020062    pred/act E change: -0.367D-03 -0.630D-03
Maxdispl :   0.1651   ||displ|| :   0.3898   Lambda : -0.138D-02
Largest |displ|/coords:  0.1651 (  14)  0.1481 (   5)  0.1163 (   2)
................................................................................
.............................. CYCLE   36 ......................................
................................................................................
   1    -50.7374651 -0.507375E+02  0.237E-01    8.38       0.0  T
   2    -50.7375090 -0.439676E-04  0.174E-01    8.38       1.0  T
   3    -50.7375294 -0.203540E-04  0.450E-02    8.37       1.0  T
   4    -50.7375343 -0.495282E-05  0.121E-02    8.37       1.6  T
   5    -50.7375346 -0.227911E-06  0.321E-03    8.37       6.1  T
   6    -50.7375346 -0.146715E-07  0.172E-03    8.37      11.4  T
speedup  1.00
cpu  time for SCC    0.01 s
wall time for SCC    0.01 s
speedup  1.03
cpu  time for grad    0.01 s
wall time for grad    0.01 s
 E :    -50.45459569  G :  0.033778    pred/act E change: -0.691D-03  0.158D-03
Maxdispl :   0.1210   ||displ|| :   0.2365   Lambda : -0.179D-02
Largest |displ|/coords:  0.1210 (   9)  0.0921 (   2)  0.0742 (   7)
................................................................................
.............................. CYCLE   37 ......................................
................................................................................
   1    -50.7358040 -0.507358E+02  0.146E-01    8.45       0.0  T
   2    -50.7358181 -0.140916E-04  0.109E-01    8.45       1.0  T
   3    -50.7358246 -0.652953E-05  0.212E-02    8.45       1.0  T
   4    -50.7358267 -0.203557E-05  0.462E-03    8.45       4.2  T
   5    -50.7358267 -0.480917E-07  0.202E-03    8.45       9.7  T
speedup  1.00
cpu  time for SCC    0.00 s
wall time for SCC    0.00 s
speedup  1.04
cpu  time for grad    0.01 s
wall time for grad    0.01 s
 E :    -50.45562357  G :  0.013851    pred/act E change: -0.794D-03 -0.103D-02
Maxdispl :   0.1702   ||displ|| :   0.3109   Lambda : -0.533D-03
Largest |displ|/coords:  0.1702 (  14)  0.1391 (   1)  0.0960 (   9)
................................................................................
.............................. CYCLE   38 ......................................
................................................................................
   1    -50.7328370 -0.507328E+02  0.171E-01    8.38       0.0  T
   2    -50.7328593 -0.222536E-04  0.128E-01    8.38       1.0  T
   3    -50.7328676 -0.835245E-05  0.265E-02    8.36       1.0  T
   4    -50.7328715 -0.384131E-05  0.653E-03    8.36       3.0  T
   5    -50.7328715 -0.719525E-07  0.243E-03    8.36       8.1  T
   6    -50.7328716 -0.751915E-08  0.112E-03    8.36      17.5  T
speedup  0.98
cpu  time for SCC    0.01 s
wall time for SCC    0.01 s
speedup  1.03
cpu  time for grad    0.01 s
wall time for grad    0.01 s
 E :    -50.45591716  G :  0.018524    pred/act E change: -0.943D-03 -0.294D-03
Maxdispl :   0.1201   ||displ|| :   0.2307   Lambda : -0.609D-03
Largest |displ|/coords:  0.1201 (  14)  0.1113 (   9)  0.0701 (   7)
................................................................................
.............................. CYCLE   39 ......................................
................................................................................
   1    -50.7355810 -0.507356E+02  0.117E-01    8.44       0.0  T
   2    -50.7355995 -0.184975E-04  0.833E-02    8.44       1.0  T
   3    -50.7356067 -0.715187E-05  0.259E-02    8.43       1.0  T
   4    -50.7356081 -0.147542E-05  0.525E-03    8.43       3.7  T
   5    -50.7356082 -0.579043E-07  0.173E-03    8.43      11.4  T
   6    -50.7356082 -0.397893E-08  0.886E-04    8.43      22.1  T
speedup  1.02
cpu  time for SCC    0.01 s
wall time for SCC    0.01 s
speedup  1.04
cpu  time for grad    0.01 s
wall time for grad    0.01 s
 E :    -50.45632557  G :  0.013985    pred/act E change: -0.292D-03 -0.408D-03
Maxdispl :   0.2759   ||displ|| :   0.4723   Lambda : -0.830D-03
Largest |displ|/coords:  0.2759 (  14)  0.1893 (   9)  0.1222 (   1)
................................................................................
.............................. CYCLE   40 ......................................
................................................................................
   1    -50.7367503 -0.507368E+02  0.267E-01    8.39       0.0  T
   2    -50.7368741 -0.123706E-03  0.195E-01    8.38       1.0  T
   3    -50.7369138 -0.397612E-04  0.616E-02    8.36       1.0  T
   4    -50.7369258 -0.120011E-04  0.122E-02    8.36       1.6  T
   5    -50.7369261 -0.293673E-06  0.400E-03    8.36       4.9  T
   6    -50.7369261 -0.245117E-07  0.178E-03    8.36      11.0  T
   7    -50.7369261 -0.532511E-08  0.719E-04    8.36      27.3  T
speedup  1.01
cpu  time for SCC    0.01 s
wall time for SCC    0.01 s
speedup  1.04
cpu  time for grad    0.02 s
wall time for grad    0.02 s
 E :    -50.45698255  G :  0.016514    pred/act E change: -0.320D-03 -0.657D-03
Maxdispl :   0.3347   ||displ|| :   0.5518   Lambda : -0.161D-02
Largest |displ|/coords:  0.3347 (  14)  0.1757 (   9)  0.1195 (  16)
................................................................................
.............................. CYCLE   41 ......................................
................................................................................
   1    -50.7445460 -0.507445E+02  0.361E-01    8.46       0.0  T
   2    -50.7447988 -0.252734E-03  0.264E-01    8.45       1.0  T
   3    -50.7448888 -0.900188E-04  0.866E-02    8.44       1.0  T
   4    -50.7449130 -0.242267E-04  0.182E-02    8.44       1.1  T
   5    -50.7449137 -0.682445E-06  0.673E-03    8.44       2.9  T
   6    -50.7449138 -0.670849E-07  0.300E-03    8.44       6.5  T
   7    -50.7449138 -0.150115E-07  0.126E-03    8.44      15.6  T
   8    -50.7449138 -0.244011E-08  0.324E-04    8.44      60.4  T
speedup  1.01
cpu  time for SCC    0.01 s
wall time for SCC    0.01 s
speedup  0.98
cpu  time for grad    0.02 s
wall time for grad    0.02 s
 E :    -50.45770940  G :  0.032366    pred/act E change: -0.508D-03 -0.727D-03
Maxdispl :   0.1180   ||displ|| :   0.2971   Lambda : -0.172D-02
Largest |displ|/coords:  0.1180 (  14)  0.0920 (   1)  0.0877 (  13)
................................................................................
.............................. CYCLE   42 ......................................
................................................................................
   1    -50.7496888 -0.507497E+02  0.164E-01    8.41       0.0  T
   2    -50.7497394 -0.505816E-04  0.120E-01    8.40       1.0  T
   3    -50.7497606 -0.211710E-04  0.382E-02    8.38       1.0  T
   4    -50.7497654 -0.480358E-05  0.992E-03    8.38       2.0  T
   5    -50.7497656 -0.192623E-06  0.286E-03    8.38       6.9  T
   6    -50.7497656 -0.108760E-07  0.149E-03    8.38      13.2  T
speedup  1.02
cpu  time for SCC    0.01 s
wall time for SCC    0.01 s
speedup  0.97
cpu  time for grad    0.01 s
wall time for grad    0.01 s
 E :    -50.45865858  G :  0.028572    pred/act E change: -0.105D-02 -0.949D-03
Maxdispl :   0.1408   ||displ|| :   0.3230   Lambda : -0.191D-02
Largest |displ|/coords:  0.1408 (  14)  0.0927 (  12)  0.0921 (   6)
................................................................................
.............................. CYCLE   43 ......................................
................................................................................
   1    -50.7433846 -0.507434E+02  0.228E-01    8.37       0.0  T
   2    -50.7434325 -0.478656E-04  0.171E-01    8.37       1.0  T
   3    -50.7434530 -0.205047E-04  0.391E-02    8.37       1.0  T
   4    -50.7434602 -0.719568E-05  0.102E-02    8.37       1.9  T
   5    -50.7434604 -0.228505E-06  0.331E-03    8.37       5.9  T
   6    -50.7434604 -0.108777E-07  0.175E-03    8.37      11.2  T
speedup  1.02
cpu  time for SCC    0.01 s
wall time for SCC    0.01 s
speedup  1.03
cpu  time for grad    0.01 s
wall time for grad    0.01 s
 E :    -50.45931924  G :  0.017950    pred/act E change: -0.937D-03 -0.661D-03
Maxdispl :   0.0817   ||displ|| :   0.2297   Lambda : -0.111D-02
Largest |displ|/coords:  0.0817 (  17)  0.0693 (  12)  0.0656 (   2)
................................................................................
.............................. CYCLE   44 ......................................
................................................................................
   1    -50.7488251 -0.507488E+02  0.157E-01    8.52       0.0  T
   2    -50.7488370 -0.119946E-04  0.115E-01    8.52       1.0  T
   3    -50.7488441 -0.709559E-05  0.236E-02    8.52       1.0  T
   4    -50.7488454 -0.126367E-05  0.686E-03    8.52       2.9  T
   5    -50.7488455 -0.858105E-07  0.210E-03    8.52       9.3  T
   6    -50.7488455 -0.420420E-08  0.118E-03    8.52      16.7  T
speedup  1.02
cpu  time for SCC    0.01 s
wall time for SCC    0.01 s
speedup  1.04
cpu  time for grad    0.01 s
wall time for grad    0.01 s
 E :    -50.45959079  G :  0.023266    pred/act E change: -0.105D-02 -0.272D-03
Maxdispl :   0.1365   ||displ|| :   0.2564   Lambda : -0.852D-03
Largest |displ|/coords:  0.1365 (  14)  0.0904 (   9)  0.0723 (   1)
................................................................................
.............................. CYCLE   45 ......................................
................................................................................
   1    -50.7506837 -0.507507E+02  0.166E-01    8.39       0.0  T
   2    -50.7507310 -0.472485E-04  0.120E-01    8.39       1.0  T
   3    -50.7507499 -0.189446E-04  0.394E-02    8.38       1.0  T
   4    -50.7507530 -0.313422E-05  0.909E-03    8.38       2.2  T
   5    -50.7507533 -0.287895E-06  0.285E-03    8.38       6.9  T
   6    -50.7507533 -0.113522E-07  0.147E-03    8.38      13.3  T
speedup  1.00
cpu  time for SCC    0.01 s
wall time for SCC    0.01 s
speedup  0.97
cpu  time for grad    0.01 s
wall time for grad    0.01 s
 E :    -50.45965336  G :  0.019102    pred/act E change: -0.582D-03 -0.626D-04
Maxdispl :   0.1579   ||displ|| :   0.2952   Lambda : -0.906D-03
Largest |displ|/coords:  0.1579 (  14)  0.1264 (   9)  0.0676 (  11)
................................................................................
.............................. CYCLE   46 ......................................
................................................................................
   1    -50.7489034 -0.507489E+02  0.157E-01    8.36       0.0  T
   2    -50.7489426 -0.392749E-04  0.116E-01    8.36       1.0  T
   3    -50.7489586 -0.160141E-04  0.332E-02    8.38       1.0  T
   4    -50.7489628 -0.412957E-05  0.781E-03    8.38       2.5  T
   5    -50.7489629 -0.172825E-06  0.282E-03    8.38       7.0  T
   6    -50.7489630 -0.910213E-08  0.151E-03    8.38      12.9  T
speedup  1.02
cpu  time for SCC    0.01 s
wall time for SCC    0.01 s
speedup  1.03
cpu  time for grad    0.01 s
wall time for grad    0.01 s
 E :    -50.45962015  G :  0.020613    pred/act E change: -0.454D-03  0.332D-04
Maxdispl :   0.1027   ||displ|| :   0.2101   Lambda : -0.103D-02
Largest |displ|/coords:  0.1027 (   8)  0.0764 (  16)  0.0571 (   7)
................................................................................
.............................. CYCLE   47 ......................................
................................................................................
   1    -50.7466757 -0.507467E+02  0.137E-01    8.43       0.0  T
   2    -50.7466884 -0.126157E-04  0.102E-01    8.43       1.0  T
   3    -50.7466961 -0.776862E-05  0.221E-02    8.43       1.0  T
   4    -50.7466979 -0.173700E-05  0.754E-03    8.43       2.6  T
   5    -50.7466979 -0.786516E-07  0.218E-03    8.43       9.0  T
   6    -50.7466980 -0.567654E-08  0.122E-03    8.43      16.1  T
speedup  1.00
cpu  time for SCC    0.01 s
wall time for SCC    0.01 s
speedup  0.96
cpu  time for grad    0.01 s
wall time for grad    0.01 s
 E :    -50.45986336  G :  0.016810    pred/act E change: -0.493D-03 -0.243D-03
Maxdispl :   0.0575   ||displ|| :   0.1112   Lambda : -0.520D-03
Largest |displ|/coords:  0.0575 (  17)  0.0339 (  16)  0.0325 (   8)
................................................................................
.............................. CYCLE   48 ......................................
................................................................................
   1    -50.7496069 -0.507496E+02  0.885E-02    8.45       0.0  T
   2    -50.7496144 -0.753773E-05  0.643E-02    8.45       1.0  T
   3    -50.7496180 -0.353135E-05  0.184E-02    8.44       1.1  T
   4    -50.7496186 -0.623729E-06  0.537E-03    8.44       3.7  T
   5    -50.7496187 -0.724997E-07  0.157E-03    8.44      12.5  T
   6    -50.7496187 -0.204965E-08  0.861E-04    8.44      22.8  T
speedup  1.02
cpu  time for SCC    0.01 s
wall time for SCC    0.01 s
speedup  0.97
cpu  time for grad    0.01 s
wall time for grad    0.01 s
 E :    -50.46007728  G :  0.009447    pred/act E change: -0.537D-03 -0.214D-03
Maxdispl :   0.0306   ||displ|| :   0.0717   Lambda : -0.162D-03
Largest |displ|/coords:  0.0306 (  21)  0.0270 (  20)  0.0221 (  11)
................................................................................
.............................. CYCLE   49 ......................................
................................................................................
   1    -50.7490862 -0.507491E+02  0.438E-02    8.40       0.0  T
   2    -50.7490874 -0.114057E-05  0.322E-02    8.40       1.0  T
   3    -50.7490881 -0.699856E-06  0.639E-03    8.40       3.1  T
   4    -50.7490882 -0.109801E-06  0.208E-03    8.40       9.4  T
   5    -50.7490882 -0.597728E-08  0.519E-04    8.40      37.8  T
speedup  1.00
cpu  time for SCC    0.00 s
wall time for SCC    0.01 s
speedup  1.04
cpu  time for grad    0.01 s
wall time for grad    0.01 s
 E :    -50.46015107  G :  0.006495    pred/act E change: -0.263D-03 -0.738D-04
Maxdispl :   0.0317   ||displ|| :   0.0889   Lambda : -0.138D-03
Largest |displ|/coords:  0.0317 (   9)  0.0298 (   5)  0.0263 (   1)
................................................................................
.............................. CYCLE   50 ......................................
................................................................................
   1    -50.7494310 -0.507494E+02  0.419E-02    8.39       0.0  T
   2    -50.7494325 -0.152991E-05  0.309E-02    8.39       1.0  T
   3    -50.7494330 -0.522677E-06  0.731E-03    8.39       2.7  T
   4    -50.7494332 -0.211976E-06  0.170E-03    8.39      11.6  T
   5    -50.7494333 -0.527184E-08  0.488E-04    8.39      40.2  T
speedup  1.02
cpu  time for SCC    0.00 s
wall time for SCC    0.00 s
speedup  1.04
cpu  time for grad    0.01 s
wall time for grad    0.01 s
 E :    -50.46023638  G :  0.005585    pred/act E change: -0.814D-04 -0.853D-04
Maxdispl :   0.0562   ||displ|| :   0.1718   Lambda : -0.198D-03
Largest |displ|/coords:  0.0562 (  13)  0.0542 (  20)  0.0520 (  10)
................................................................................
.............................. CYCLE   51 ......................................
................................................................................
   1    -50.7481525 -0.507482E+02  0.780E-02    8.38       0.0  T
   2    -50.7481546 -0.209399E-05  0.587E-02    8.38       1.0  T
   3    -50.7481559 -0.134354E-05  0.880E-03    8.38       2.2  T
   4    -50.7481563 -0.323629E-06  0.396E-03    8.38       5.0  T
   5    -50.7481563 -0.202309E-07  0.864E-04    8.38      22.7  T
   6    -50.7481563 -0.105992E-08  0.537E-04    8.38      36.5  T
speedup  1.03
cpu  time for SCC    0.01 s
wall time for SCC    0.01 s
speedup  0.98
cpu  time for grad    0.01 s
wall time for grad    0.01 s
 E :    -50.46036879  G :  0.004336    pred/act E change: -0.695D-04 -0.132D-03
Maxdispl :   0.0780   ||displ|| :   0.2161   Lambda : -0.179D-03
Largest |displ|/coords:  0.0780 (  20)  0.0758 (  14)  0.0675 (  17)
................................................................................
.............................. CYCLE   52 ......................................
................................................................................
   1    -50.7495360 -0.507495E+02  0.113E-01    8.41       0.0  T
   2    -50.7495405 -0.450881E-05  0.850E-02    8.40       1.0  T
   3    -50.7495433 -0.280881E-05  0.129E-02    8.40       1.5  T
   4    -50.7495441 -0.737898E-06  0.477E-03    8.40       4.1  T
   5    -50.7495441 -0.237923E-07  0.125E-03    8.40      15.7  T
   6    -50.7495441 -0.269896E-08  0.697E-04    8.40      28.1  T
speedup  1.02
cpu  time for SCC    0.01 s
wall time for SCC    0.01 s
speedup  0.97
cpu  time for grad    0.01 s
wall time for grad    0.01 s
 E :    -50.46046505  G :  0.005311    pred/act E change: -0.102D-03 -0.963D-04
Maxdispl :   0.0474   ||displ|| :   0.1259   Lambda : -0.836D-04
Largest |displ|/coords:  0.0474 (   9)  0.0456 (   3)  0.0420 (  20)

generating ANC from model Hessian ...
 Shifting diagonal of input Hessian by   4.412174632535487E-003
 Lowest  eigenvalues of input Hessian
   -0.000000   -0.000000   -0.000000    0.000000    0.000000    0.000000
    0.005000    0.005184    0.005695    0.006348    0.007064    0.007328
    0.007936    0.008314    0.008678    0.009735    0.010494    0.011362
 Highest eigenvalues
    1.394346    1.407089    1.435657    2.557723    3.456893    3.716015
 
cpu  time for ANC gen    0.02 s
wall time for ANC gen    0.02 s
................................................................................
.............................. CYCLE   53 ......................................
................................................................................
   1    -50.7488489 -0.507488E+02  0.652E-02    8.38       0.0  T
   2    -50.7488498 -0.869152E-06  0.486E-02    8.38       1.0  T
   3    -50.7488504 -0.670745E-06  0.661E-03    8.38       3.0  T
   4    -50.7488506 -0.117933E-06  0.254E-03    8.38       7.7  T
   5    -50.7488506 -0.857096E-08  0.653E-04    8.38      30.0  T
   6    -50.7488506 -0.543800E-09  0.411E-04    8.38      47.7  T
speedup  1.02
cpu  time for SCC    0.01 s
wall time for SCC    0.01 s
speedup  0.99
cpu  time for grad    0.01 s
wall time for grad    0.02 s
 E :    -50.46051674  G :  0.004825    pred/act E change:  0.000D+00 -0.517D-04
Maxdispl :   0.0417   ||displ|| :   0.0905   Lambda : -0.125D-03
Largest |displ|/coords:  0.0417 (   9)  0.0321 (  10)  0.0275 (   3)
................................................................................
.............................. CYCLE   54 ......................................
................................................................................
   1    -50.7494422 -0.507494E+02  0.859E-02    8.39       0.0  T
   2    -50.7494433 -0.111860E-05  0.656E-02    8.39       1.0  T
   3    -50.7494447 -0.139105E-05  0.426E-03    8.39       4.6  T
   4    -50.7494448 -0.567362E-07  0.180E-03    8.39      10.9  T
   5    -50.7494448 -0.207383E-08  0.630E-04    8.39      31.1  T
speedup  1.00
cpu  time for SCC    0.00 s
wall time for SCC    0.00 s
speedup  0.96
cpu  time for grad    0.01 s
wall time for grad    0.01 s
 E :    -50.46059189  G :  0.003498    pred/act E change:  0.000D+00 -0.751D-04
Maxdispl :   0.0627   ||displ|| :   0.1286   Lambda : -0.101D-03
Largest |displ|/coords:  0.0627 (   9)  0.0574 (  10)  0.0528 (   3)
................................................................................
.............................. CYCLE   55 ......................................
................................................................................
   1    -50.7498525 -0.507499E+02  0.862E-02    8.40       0.0  T
   2    -50.7498533 -0.831473E-06  0.649E-02    8.40       1.0  T
   3    -50.7498542 -0.926192E-06  0.494E-03    8.41       4.0  T
   4    -50.7498543 -0.642954E-07  0.225E-03    8.41       8.7  T
   5    -50.7498543 -0.455871E-08  0.712E-04    8.41      27.6  T
   6    -50.7498543 -0.543771E-09  0.411E-04    8.41      47.7  T
speedup  1.02
cpu  time for SCC    0.01 s
wall time for SCC    0.01 s
speedup  1.00
cpu  time for grad    0.01 s
wall time for grad    0.01 s
 E :    -50.46065813  G :  0.003293    pred/act E change: -0.632D-04 -0.662D-04
Maxdispl :   0.0820   ||displ|| :   0.1491   Lambda : -0.744D-04
Largest |displ|/coords:  0.0820 (   3)  0.0806 (   9)  0.0430 (  10)
................................................................................
.............................. CYCLE   56 ......................................
................................................................................
   1    -50.7496800 -0.507497E+02  0.866E-02    8.41       0.0  T
   2    -50.7496811 -0.108081E-05  0.649E-02    8.41       1.0  T
   3    -50.7496821 -0.940144E-06  0.650E-03    8.41       3.0  T
   4    -50.7496822 -0.130360E-06  0.259E-03    8.41       7.6  T
   5    -50.7496822 -0.692584E-08  0.733E-04    8.41      26.8  T
   6    -50.7496822 -0.594838E-09  0.441E-04    8.41      44.5  T
speedup  0.98
cpu  time for SCC    0.01 s
wall time for SCC    0.01 s
speedup  0.99
cpu  time for grad    0.01 s
wall time for grad    0.02 s
 E :    -50.46071393  G :  0.003495    pred/act E change: -0.512D-04 -0.558D-04
Maxdispl :   0.1472   ||displ|| :   0.2410   Lambda : -0.998D-04
Largest |displ|/coords:  0.1472 (   3)  0.1367 (   9)  0.0713 (   7)
................................................................................
.............................. CYCLE   57 ......................................
................................................................................
   1    -50.7492061 -0.507492E+02  0.117E-01    8.40       0.0  T
   2    -50.7492089 -0.286822E-05  0.868E-02    8.40       1.0  T
   3    -50.7492110 -0.209880E-05  0.111E-02    8.41       1.8  T
   4    -50.7492114 -0.398600E-06  0.406E-03    8.41       4.8  T
   5    -50.7492115 -0.237692E-07  0.118E-03    8.41      16.6  T
   6    -50.7492115 -0.200238E-08  0.725E-04    8.41      27.1  T
   7    -50.7492115 -0.984656E-09  0.214E-04    8.41      91.5  T
speedup  1.11
cpu  time for SCC    0.01 s
wall time for SCC    0.01 s
speedup  1.04
cpu  time for grad    0.02 s
wall time for grad    0.02 s
 E :    -50.46077743  G :  0.004179    pred/act E change: -0.380D-04 -0.635D-04
Maxdispl :   0.1286   ||displ|| :   0.2071   Lambda : -0.632D-04
Largest |displ|/coords:  0.1286 (   3)  0.1130 (   9)  0.0588 (   7)
................................................................................
.............................. CYCLE   58 ......................................
................................................................................
   1    -50.7483777 -0.507484E+02  0.104E-01    8.40       0.0  T
   2    -50.7483805 -0.272395E-05  0.779E-02    8.40       1.0  T
   3    -50.7483823 -0.180973E-05  0.112E-02    8.41       1.8  T
   4    -50.7483827 -0.415676E-06  0.387E-03    8.41       5.1  T
   5    -50.7483827 -0.201648E-07  0.108E-03    8.41      18.1  T
   6    -50.7483827 -0.154855E-08  0.663E-04    8.41      29.6  T
speedup  0.97
cpu  time for SCC    0.01 s
wall time for SCC    0.01 s
speedup  1.01
cpu  time for grad    0.01 s
wall time for grad    0.01 s
 E :    -50.46082208  G :  0.005719    pred/act E change: -0.528D-04 -0.447D-04
Maxdispl :   0.1778   ||displ|| :   0.2621   Lambda : -0.109D-03
Largest |displ|/coords:  0.1778 (   3)  0.1262 (   9)  0.0791 (   7)
................................................................................
.............................. CYCLE   59 ......................................
................................................................................
   1    -50.7488194 -0.507488E+02  0.115E-01    8.41       0.0  T
   2    -50.7488240 -0.460445E-05  0.854E-02    8.41       1.0  T
   3    -50.7488267 -0.275730E-05  0.150E-02    8.41       1.3  T
   4    -50.7488274 -0.701720E-06  0.521E-03    8.41       3.8  T
   5    -50.7488275 -0.382274E-07  0.139E-03    8.41      14.1  T
   6    -50.7488275 -0.291968E-08  0.875E-04    8.41      22.4  T
speedup  1.02
cpu  time for SCC    0.01 s
wall time for SCC    0.01 s
speedup  0.97
cpu  time for grad    0.01 s
wall time for grad    0.01 s
 E :    -50.46089449  G :  0.006689    pred/act E change: -0.329D-04 -0.724D-04
Maxdispl :   0.1918   ||displ|| :   0.2887   Lambda : -0.121D-03
Largest |displ|/coords:  0.1918 (   3)  0.1485 (   9)  0.0860 (   7)
................................................................................
.............................. CYCLE   60 ......................................
................................................................................
   1    -50.7481748 -0.507482E+02  0.143E-01    8.42       0.0  T
   2    -50.7481807 -0.586435E-05  0.107E-01    8.42       1.0  T
   3    -50.7481848 -0.411866E-05  0.167E-02    8.42       1.2  T
   4    -50.7481857 -0.877439E-06  0.616E-03    8.42       3.2  T
   5    -50.7481858 -0.484776E-07  0.166E-03    8.42      11.8  T
   6    -50.7481858 -0.375542E-08  0.105E-03    8.42      18.6  T
speedup  1.02
cpu  time for SCC    0.01 s
wall time for SCC    0.01 s
speedup  0.97
cpu  time for grad    0.01 s
wall time for grad    0.01 s
 E :    -50.46097159  G :  0.007245    pred/act E change: -0.582D-04 -0.771D-04
Maxdispl :   0.1344   ||displ|| :   0.1983   Lambda : -0.161D-03
Largest |displ|/coords:  0.1344 (   3)  0.0671 (   7)  0.0635 (   4)
................................................................................
.............................. CYCLE   61 ......................................
................................................................................
   1    -50.7513075 -0.507513E+02  0.993E-02    8.49       0.0  T
   2    -50.7513101 -0.262949E-05  0.746E-02    8.49       1.0  T
   3    -50.7513122 -0.210785E-05  0.100E-02    8.49       2.0  T
   4    -50.7513126 -0.337736E-06  0.497E-03    8.49       3.9  T
   5    -50.7513126 -0.274967E-07  0.110E-03    8.49      17.8  T
   6    -50.7513126 -0.160077E-08  0.705E-04    8.49      27.8  T
speedup  1.02
cpu  time for SCC    0.01 s
wall time for SCC    0.01 s
speedup  0.97
cpu  time for grad    0.01 s
wall time for grad    0.01 s
 E :    -50.46106199  G :  0.004717    pred/act E change: -0.655D-04 -0.904D-04
Maxdispl :   0.2995   ||displ|| :   0.4127   Lambda : -0.144D-03
Largest |displ|/coords:  0.2995 (   3)  0.1667 (   9)  0.1651 (   7)
................................................................................
.............................. CYCLE   62 ......................................
................................................................................
   1    -50.7478724 -0.507479E+02  0.193E-01    8.47       0.0  T
   2    -50.7478821 -0.970626E-05  0.143E-01    8.47       1.0  T
   3    -50.7478886 -0.658401E-05  0.215E-02    8.47       1.0  T
   4    -50.7478901 -0.147539E-05  0.802E-03    8.47       2.4  T
   5    -50.7478902 -0.771989E-07  0.221E-03    8.47       8.9  T
   6    -50.7478902 -0.756783E-08  0.139E-03    8.47      14.1  T
speedup  1.02
cpu  time for SCC    0.01 s
wall time for SCC    0.01 s
speedup  0.97
cpu  time for grad    0.01 s
wall time for grad    0.01 s
 E :    -50.46106079  G :  0.010997    pred/act E change: -0.839D-04  0.119D-05
Maxdispl :   0.0935   ||displ|| :   0.1436   Lambda : -0.222D-03
Largest |displ|/coords:  0.0935 (   3)  0.0700 (   9)  0.0364 (   7)
................................................................................
.............................. CYCLE   63 ......................................
................................................................................
   1    -50.7511194 -0.507511E+02  0.625E-02    8.53       0.0  T
   2    -50.7511218 -0.239336E-05  0.453E-02    8.53       1.0  T
   3    -50.7511227 -0.942208E-06  0.120E-02    8.53       1.6  T
   4    -50.7511230 -0.290703E-06  0.286E-03    8.53       6.9  T
   5    -50.7511230 -0.142022E-07  0.836E-04    8.53      23.5  T
speedup  1.00
cpu  time for SCC    0.00 s
wall time for SCC    0.01 s
speedup  0.96
cpu  time for grad    0.01 s
wall time for grad    0.01 s
 E :    -50.46116401  G :  0.003364    pred/act E change: -0.845D-04 -0.103D-03
Maxdispl :   0.0537   ||displ|| :   0.0966   Lambda : -0.621D-04
Largest |displ|/coords:  0.0537 (   7)  0.0472 (   9)  0.0368 (   3)
................................................................................
.............................. CYCLE   64 ......................................
................................................................................
   1    -50.7516259 -0.507516E+02  0.583E-02    8.55       0.0  T
   2    -50.7516267 -0.803544E-06  0.435E-02    8.55       1.0  T
   3    -50.7516274 -0.680772E-06  0.649E-03    8.55       3.0  T
   4    -50.7516275 -0.100121E-06  0.246E-03    8.55       8.0  T
   5    -50.7516275 -0.759600E-08  0.611E-04    8.55      32.1  T
   6    -50.7516275 -0.433381E-09  0.408E-04    8.55      48.1  T
speedup  0.98
cpu  time for SCC    0.01 s
wall time for SCC    0.01 s
speedup  0.99
cpu  time for grad    0.01 s
wall time for grad    0.02 s
 E :    -50.46120881  G :  0.002982    pred/act E change: -0.113D-03 -0.448D-04
Maxdispl :   0.1870   ||displ|| :   0.3228   Lambda : -0.123D-03
Largest |displ|/coords:  0.1870 (   7)  0.1620 (   3)  0.1412 (   9)
................................................................................
.............................. CYCLE   65 ......................................
................................................................................
   1    -50.7507216 -0.507507E+02  0.179E-01    8.54       0.0  T
   2    -50.7507292 -0.755126E-05  0.133E-01    8.55       1.0  T
   3    -50.7507354 -0.618583E-05  0.205E-02    8.55       1.0  T
   4    -50.7507363 -0.930461E-06  0.792E-03    8.55       2.5  T
   5    -50.7507364 -0.788898E-07  0.194E-03    8.55      10.1  T
   6    -50.7507364 -0.517071E-08  0.133E-03    8.55      14.8  T
   7    -50.7507364 -0.382074E-08  0.293E-04    8.55      66.8  T
   8    -50.7507364 -0.379437E-09  0.126E-04    8.55     155.7  T
speedup  1.01
cpu  time for SCC    0.01 s
wall time for SCC    0.01 s
speedup  1.00
cpu  time for grad    0.02 s
wall time for grad    0.02 s
 E :    -50.46128974  G :  0.006511    pred/act E change: -0.313D-04 -0.809D-04
[...]
................................................................................
   1    -50.7536669 -0.507537E+02  0.873E-03    8.65       0.0  T
   2    -50.7536669 -0.206366E-07  0.644E-03    8.65       3.0  T
   3    -50.7536669 -0.139030E-07  0.124E-03    8.65      15.8  T
   4    -50.7536669 -0.229726E-08  0.443E-04    8.65      44.2  T
   5    -50.7536669 -0.183064E-09  0.638E-05    8.65     307.2  T
speedup  0.98
cpu  time for SCC    0.00 s
wall time for SCC    0.01 s
speedup  0.99
cpu  time for grad    0.01 s
wall time for grad    0.01 s
 E :    -50.46182847  G :  0.000452    pred/act E change: -0.360D-06 -0.471D-06
Maxdispl :   0.0048   ||displ|| :   0.0127   Lambda : -0.726D-06
Largest |displ|/coords:  0.0048 (  38)  0.0047 (  11)  0.0036 (  21)
................................................................................
.............................. CYCLE  129 ......................................
................................................................................
   1    -50.7536506 -0.507537E+02  0.117E-02    8.65       0.0  T
   2    -50.7536506 -0.354333E-07  0.870E-03    8.65       2.3  T
   3    -50.7536506 -0.209337E-07  0.160E-03    8.65      12.3  T
   4    -50.7536506 -0.483094E-08  0.562E-04    8.65      34.9  T
   5    -50.7536506 -0.246203E-09  0.725E-05    8.65     270.6  T
speedup  1.00
cpu  time for SCC    0.00 s
wall time for SCC    0.00 s
speedup  0.99
cpu  time for grad    0.01 s
wall time for grad    0.01 s
 E :    -50.46182901  G :  0.000515    pred/act E change: -0.321D-06 -0.546D-06
Maxdispl :   0.0073   ||displ|| :   0.0177   Lambda : -0.936D-06
Largest |displ|/coords:  0.0073 (  38)  0.0056 (  11)  0.0051 (  37)
................................................................................
.............................. CYCLE  130 ......................................
................................................................................
   1    -50.7536362 -0.507536E+02  0.170E-02    8.65       0.0  T
   2    -50.7536363 -0.677703E-07  0.127E-02    8.65       1.5  T
   3    -50.7536363 -0.395239E-07  0.217E-03    8.65       9.0  T
   4    -50.7536364 -0.100373E-07  0.731E-04    8.65      26.8  T
   5    -50.7536364 -0.391985E-09  0.948E-05    8.65     206.9  T
speedup  1.00
cpu  time for SCC    0.00 s
wall time for SCC    0.01 s
speedup  0.99
cpu  time for grad    0.01 s
wall time for grad    0.01 s
 E :    -50.46182972  G :  0.000604    pred/act E change: -0.363D-06 -0.709D-06
Maxdispl :   0.0105   ||displ|| :   0.0244   Lambda : -0.119D-05
Largest |displ|/coords:  0.0105 (  38)  0.0072 (  37)  0.0065 (  21)
................................................................................
.............................. CYCLE  131 ......................................
................................................................................
   1    -50.7536232 -0.507536E+02  0.239E-02    8.65       0.0  T
   2    -50.7536233 -0.119368E-06  0.179E-02    8.65       1.1  T
   3    -50.7536234 -0.741351E-07  0.280E-03    8.65       7.0  T
   4    -50.7536234 -0.178469E-07  0.937E-04    8.65      20.9  T
   5    -50.7536234 -0.641755E-09  0.132E-04    8.65     148.3  T
speedup  1.00
cpu  time for SCC    0.00 s
wall time for SCC    0.00 s
speedup  0.98
cpu  time for grad    0.01 s
wall time for grad    0.01 s
 E :    -50.46183062  G :  0.000660    pred/act E change: -0.468D-06 -0.900D-06
Maxdispl :   0.0114   ||displ|| :   0.0281   Lambda : -0.131D-05
Largest |displ|/coords:  0.0114 (  38)  0.0081 (  11)  0.0079 (   1)
................................................................................
.............................. CYCLE  132 ......................................
................................................................................
   1    -50.7536455 -0.507536E+02  0.270E-02    8.65       0.0  T
   2    -50.7536457 -0.139110E-06  0.202E-02    8.65       1.0  T
   3    -50.7536458 -0.106604E-06  0.290E-03    8.65       6.8  T
   4    -50.7536458 -0.175843E-07  0.104E-03    8.65      18.8  T
   5    -50.7536458 -0.880441E-09  0.161E-04    8.65     121.8  T
   6    -50.7536458 -0.203073E-10  0.108E-04    8.65     182.4  T
speedup  1.02
cpu  time for SCC    0.01 s
wall time for SCC    0.01 s
speedup  1.00
cpu  time for grad    0.01 s
wall time for grad    0.01 s
 E :    -50.46183157  G :  0.000571    pred/act E change: -0.598D-06 -0.952D-06
Maxdispl :   0.0102   ||displ|| :   0.0248   Lambda : -0.982D-06
Largest |displ|/coords:  0.0102 (  38)  0.0099 (   1)  0.0070 (  16)
................................................................................
.............................. CYCLE  133 ......................................
................................................................................
   1    -50.7536673 -0.507537E+02  0.235E-02    8.66       0.0  T
   2    -50.7536674 -0.108128E-06  0.176E-02    8.66       1.1  T
   3    -50.7536674 -0.807220E-07  0.253E-03    8.66       7.8  T
   4    -50.7536675 -0.141214E-07  0.933E-04    8.66      21.0  T
   5    -50.7536675 -0.647809E-09  0.141E-04    8.66     138.7  T
speedup  1.00
cpu  time for SCC    0.00 s
wall time for SCC    0.01 s
speedup  0.99
cpu  time for grad    0.01 s
wall time for grad    0.01 s
 E :    -50.46183225  G :  0.000367    pred/act E change: -0.654D-06 -0.676D-06
Maxdispl :   0.0170   ||displ|| :   0.0232   Lambda : -0.638D-06
Largest |displ|/coords:  0.0170 (   1)  0.0066 (  11)  0.0055 (   3)
................................................................................
.............................. CYCLE  134 ......................................
................................................................................
   1    -50.7537869 -0.507538E+02  0.132E-02    8.66       0.0  T
   2    -50.7537869 -0.309077E-07  0.985E-03    8.66       2.0  T
   3    -50.7537869 -0.298826E-07  0.126E-03    8.66      15.5  T
   4    -50.7537869 -0.239562E-08  0.391E-04    8.66      50.2  T
   5    -50.7537869 -0.215337E-09  0.905E-05    8.66     216.7  T
speedup  1.00
cpu  time for SCC    0.00 s
wall time for SCC    0.01 s
speedup  0.99
cpu  time for grad    0.01 s
wall time for grad    0.01 s
 E :    -50.46183249  G :  0.000515    pred/act E change: -0.491D-06 -0.237D-06
Maxdispl :   0.0076   ||displ|| :   0.0149   Lambda : -0.538D-06
Largest |displ|/coords:  0.0076 (  38)  0.0052 (  33)  0.0045 (  37)
................................................................................
.............................. CYCLE  135 ......................................
................................................................................
   1    -50.7537342 -0.507537E+02  0.158E-02    8.66       0.0  T
   2    -50.7537343 -0.708222E-07  0.118E-02    8.66       1.7  T
   3    -50.7537343 -0.254473E-07  0.228E-03    8.66       8.6  T
   4    -50.7537344 -0.124699E-07  0.582E-04    8.66      33.7  T
   5    -50.7537344 -0.253166E-09  0.970E-05    8.66     202.3  T
speedup  1.02
cpu  time for SCC    0.00 s
wall time for SCC    0.00 s
speedup  0.99
cpu  time for grad    0.01 s
wall time for grad    0.01 s
 E :    -50.46183261  G :  0.000335    pred/act E change: -0.319D-06 -0.124D-06
Maxdispl :   0.0050   ||displ|| :   0.0100   Lambda : -0.244D-06
Largest |displ|/coords:  0.0050 (  38)  0.0030 (  33)  0.0029 (  37)
................................................................................
.............................. CYCLE  136 ......................................
................................................................................
   1    -50.7537543 -0.507538E+02  0.106E-02    8.66       0.0  T
   2    -50.7537543 -0.237606E-07  0.793E-03    8.66       2.5  T
   3    -50.7537543 -0.135058E-07  0.122E-03    8.66      16.0  T
   4    -50.7537544 -0.382313E-08  0.412E-04    8.66      47.5  T
   5    -50.7537544 -0.117211E-09  0.584E-05    8.66     335.6  T
speedup  1.00
cpu  time for SCC    0.00 s
wall time for SCC    0.01 s
speedup  0.99
cpu  time for grad    0.01 s
wall time for grad    0.01 s
 E :    -50.46183274  G :  0.000079    pred/act E change: -0.269D-06 -0.127D-06
Maxdispl :   0.0010   ||displ|| :   0.0019   Lambda : -0.258D-07
Largest |displ|/coords:  0.0010 (   1)  0.0007 (   2)  0.0005 (  12)
................................................................................
.............................. CYCLE  137 ......................................
................................................................................
   1    -50.7537515 -0.507538E+02  0.949E-04    8.66       0.0  T
   2    -50.7537515 -0.241883E-09  0.705E-04    8.66      27.8  T
   3    -50.7537515 -0.101124E-09  0.113E-04    8.66     173.8  T
speedup  0.94
cpu  time for SCC    0.00 s
wall time for SCC    0.00 s
speedup  0.98
cpu  time for grad    0.01 s
wall time for grad    0.01 s
 E :    -50.46183276  G :  0.000046    pred/act E change: -0.122D-06 -0.202D-07
Maxdispl :   0.0015   ||displ|| :   0.0024   Lambda : -0.206D-07
Largest |displ|/coords:  0.0015 (   1)  0.0012 (   2)  0.0006 (  30)

   *** GEOMETRY OPTIMIZATION CONVERGED AFTER 137 ITERATIONS ***

------------------------------------------------------------------------
 total energy gain (kcal):     -0.0125
------------------------------------------------------------------------
================
 final structure:
================
$coord
       -3.11161931775243        1.18821633782262       -1.82690599208164      S 
       -2.13447498799072        0.54026025292357       -4.27661154783176      O 
       -2.76248650742482       -0.72312613239637        0.10526910755572      O 
       -2.20953671663997        3.65532365962283       -0.93119517438085      O 
       -6.08172068469673        1.47990259882289       -2.15201818745888      O 
       -6.26866288457722        2.02369469609845       -3.85775360568491      H 
        3.39301028523072       -2.20628243642058        2.36923723855497      O 
        5.07584488376404       -2.81657110443671        2.09915007373513      H 
        0.06482373900762       -4.90066291917627       -0.89037030451824      O 
        1.23468912940096       -4.56927702602324        0.47357199432875      H 
       -1.23916958696921       -3.61939450293531       -0.70416264954936      H 
        2.23192111008262       -2.27154980515307       -4.72827116274560      O 
        1.61623833130088       -3.60918439769169       -3.60618016264745      H 
        0.70654729084564       -1.43078853878661       -5.29159002333847      H 
        2.48225345456408        1.22583596753278       -1.22792125948738      O 
        2.77464939144328        0.02192460592976       -2.64601554753488      H 
        0.81783504913236        1.88525718042945       -1.57638730788314      H 
        3.07494501797868       -0.94089016182342        1.03593772028643      H 
       -0.89575772835526       -0.64896606451872        4.75033257528571      O 
       -1.94213180027747       -0.90045620791488        3.23952335000709      H 
        0.60299217202542       -1.66084062368932        4.43975443890602      H 
       -0.01153480245611        1.97421239014422        4.05525598845753      H 
        0.54631627791038        3.71013608532428        3.09200770096917      N 
       -0.74163016142483        3.87249029577228        1.52716139242796      H 
        2.28977855919446        3.46467823633740        2.30522780993856      H 
        0.48688048667119        5.25605759526279        4.22295353467831      H 
$end
 
 Bond Distances (Angstroems)
 ---------------------------
S1-O2=1.4372         S1-O3=1.4500         S1-O4=1.4687         S1-O5=1.5886         O2-S1=1.4372         O3-S1=1.4500         
O4-S1=1.4687         O5-S1=1.5886         O5-H6=0.9525         H6-O5=0.9525         O7-H8=0.9580         O7-H18=0.9872        
H8-O7=0.9580         O9-H10=0.9669        O9-H11=0.9724        H10-O9=0.9669        H11-O9=0.9724        O12-H13=0.9797       
O12-H14=0.9687       H13-O12=0.9797       H14-O12=0.9687       O15-H16=0.9965       O15-H17=0.9652       H16-O15=0.9965       
H17-O15=0.9652       H18-O7=0.9872        O19-H20=0.9816       O19-H21=0.9710       H20-O19=0.9816       H21-O19=0.9710       
H22-N23=1.0912       N23-H22=1.0912       N23-H24=1.0759       N23-H25=1.0205       N23-H26=1.0141       H24-N23=1.0759       
H25-N23=1.0205       H26-N23=1.0141       
 N  H  Rav=1.0504 sigma=0.0337  Rmin=1.0141  Rmax=1.0912     4
 O  H  Rav=0.9727 sigma=0.0122  Rmin=0.9525  Rmax=0.9965    11
 S  O  Rav=1.4861 sigma=0.0602  Rmin=1.4372  Rmax=1.5886     4
 
 selected bond angles (degree)
 --------------------
O3-S1-O2=115.07                O4-S1-O2=112.72                O4-S1-O3=110.55                O5-S1-O2=106.35                
O5-S1-O3=105.68                O5-S1-O4=105.67                H6-O5-S1=103.58                H18-O7-H8=106.29               
H11-O9-H10=104.61              
 
 selected dihedral angles (degree)
 ---------------------------------
H6-O5-S1-O2=330.44            H6-O5-S1-O3=207.69            H6-O5-S1-O4= 90.47            
 
 CMA Distance (Angstroems)
 ---------------------------
R(CMA):  2.9301

========================================================================
 FINAL SINGLEPOINT CALCULATION ON OPTIMIZED GEOMETRY
========================================================================

 Ncao       : 65
 Nao        : 64
 Nshell     : 38
 Nel        : 80
 T(el)      :   300.0
 intcut     :    25.0
 scfconv/Eh :  0.100E-05
   qconv/e  :  0.100E-03
 intneglect :  0.100E-07
 broydamp   :      0.250
 iter      E             dE          RMSdq      gap      omega  full diag
   1    -50.7537515 -0.507538E+02  0.549E-05    8.66       0.0  T
   2    -50.7537515 -0.186873E-11  0.344E-05    8.66     570.0  T
   3    -50.7537515 -0.888178E-12  0.705E-06    8.66    2783.4  T
speedup  0.97
cpu  time for SCC    0.00 s
wall time for SCC    0.00 s

   *** convergence criteria satisfied after 3 iterations ***

          eigenvalues
 #    :          28         29         30         31         32         33         34         35
 occ. :        2.000      2.000      2.000      2.000      2.000      2.000      2.000      2.000
 eps  :       -13.392    -13.298    -12.689    -12.483    -12.417    -12.347    -12.278    -12.143
 #    :          36         37         38         39         40         41         42         43
 occ. :        2.000      2.000      2.000      2.000      2.000      0.000      0.000      0.000
 eps  :       -12.087    -12.043    -11.849    -11.457    -11.311     -2.651     -1.248     -0.735
 #    :          44         45         46         47         48         49         50         51
 occ. :        0.000      0.000      0.000      0.000      0.000      0.000      0.000      0.000
 eps  :         0.492      1.069      1.257      2.334      3.455      4.069      4.206      4.866


   #   Z            q   n(s)   n(p)   n(d)      C6AA      α(0)
   1  16 S      1.693  1.585  1.767  0.955    88.935    15.872
   2   8 O     -0.739  1.769  4.970  0.000    29.788     7.318
   3   8 O     -0.743  1.760  4.983  0.000    29.899     7.331
   4   8 O     -0.758  1.772  4.986  0.000    30.316     7.382
   5   8 O     -0.595  1.752  4.843  0.000    25.036     6.755
   6   1 H      0.346  0.654  0.000  0.000     0.590     1.203
   7   8 O     -0.635  1.750  4.886  0.000    26.053     6.889
   8   1 H      0.285  0.715  0.000  0.000     0.767     1.375
   9   8 O     -0.622  1.755  4.867  0.000    25.713     6.844
  10   1 H      0.303  0.697  0.000  0.000     0.712     1.325
  11   1 H      0.310  0.690  0.000  0.000     0.691     1.306
  12   8 O     -0.620  1.756  4.864  0.000    25.682     6.840
  13   1 H      0.321  0.679  0.000  0.000     0.661     1.278
  14   1 H      0.310  0.690  0.000  0.000     0.693     1.308
  15   8 O     -0.661  1.749  4.911  0.000    26.688     6.972
  16   1 H      0.340  0.660  0.000  0.000     0.613     1.230
  17   1 H      0.289  0.711  0.000  0.000     0.751     1.359
  18   1 H      0.335  0.665  0.000  0.000     0.625     1.242
  19   8 O     -0.595  1.751  4.844  0.000    25.058     6.757
  20   1 H      0.340  0.660  0.000  0.000     0.614     1.231
  21   1 H      0.333  0.667  0.000  0.000     0.629     1.246
  22   1 H      0.307  0.693  0.000  0.000     0.691     1.302
  23   7 N     -0.339  1.274  4.065  0.000    28.717     7.959
  24   1 H      0.304  0.696  0.000  0.000     0.700     1.310
  25   1 H      0.259  0.741  0.000  0.000     0.848     1.442
  26   1 H      0.231  0.769  0.000  0.000     0.960     1.535

 Mol. C6AA /au·bohr⁶  :       5453.644756
 Mol. C8AA /au·bohr⁸  :     118009.845084
 Mol. α(0) /au        :        106.610745

 
 Wiberg/Mayer (AO) data. WBOs > 0.1 written file <wbo>
 largest (>0.05) Wiberg bond orders for each atom
           total WBO             WBO to atom ...
     1  S   4.845    O    2 1.367    O    3 1.314    O    4 1.234    O    5 0.884
     2  O   1.715    S    1 1.367    O    3 0.110    O    4 0.105    O    5 0.080
     3  O   1.722    S    1 1.314    O    2 0.110    O    4 0.107    O    5 0.063
     4  O   1.738    S    1 1.234    H   24 0.129    O    3 0.107    O    2 0.105    O    5 0.068
     5  O   1.966    S    1 0.884    H    6 0.864    O    2 0.080    O    4 0.068    O    3 0.063
     6  H   0.880    O    5 0.864
     7  O   1.837    H    8 0.910    H   18 0.814
     8  H   0.919    O    7 0.910
     9  O   1.860    H   10 0.880    H   11 0.863    H   13 0.052
    10  H   0.908    O    9 0.880
    11  H   0.904    O    9 0.863
    12  O   1.893    H   14 0.878    H   13 0.843    H   16 0.088
    13  H   0.897    O   12 0.843    O    9 0.052
    14  H   0.904    O   12 0.878
    15  O   1.846    H   17 0.874    H   16 0.791    H   18 0.070
    16  H   0.884    O   15 0.791    O   12 0.088
    17  H   0.916    O   15 0.874
    18  H   0.888    O    7 0.814    O   15 0.070
    19  O   1.983    H   21 0.859    H   20 0.832    H   22 0.169    N   23 0.076
    20  H   0.885    O   19 0.832
    21  H   0.889    O   19 0.859
    22  H   0.905    N   23 0.732    O   19 0.169
    23  N   3.515    H   26 0.943    H   25 0.920    H   24 0.768    H   22 0.732    O   19 0.076
    24  H   0.907    N   23 0.768    O    4 0.129
    25  H   0.933    N   23 0.920
    26  H   0.947    N   23 0.943
 MOs/occ written to file <molden.input>
 
molecular dipole:
                 x           y           z       tot (Debye)
 q only:        1.016       1.740       2.143
   full:        0.569       1.947       1.601       6.569
molecular quadrupole (traceless):
                xx          xy          yy          xz          yz          zz
 q only:       -0.238       0.292       1.951       9.690       6.784      -1.712
  q+dip:        2.978      -1.128       1.200      14.520       4.689      -4.178
   full:        3.656      -1.721       0.711      15.009       4.578      -4.367

SCC energy    :     -50.7537515
rep           :       0.2915830
ES            :       0.2703393
AES           :      -0.0773245
AXC           :      -0.0077564
disp          :      -0.0203575
XB            :       0.0000000
fix           :       0.0000000
total E       :     -50.4618328
atomizationE  :       4.9921369     3132.61
(atE without considering molecular charge,
 total energy contains solvation terms)
H-L gap (eV)  :          8.6606
optimized geometry written to: xtbopt.xyz


------------------------------------------------------------------------
 * finished run on 2019/09/16 at 12:00:00.468     
------------------------------------------------------------------------
 total:
 * wall-time:     0 d,  0 h,  0 min,  4.414 sec
 *  cpu-time:     0 d,  0 h,  0 min,  4.389 sec
 * ratio c/w:     0.994 speedup
 SCF:
 * wall-time:     0 d,  0 h,  0 min,  0.524 sec
 *  cpu-time:     0 d,  0 h,  0 min,  0.520 sec
 * ratio c/w:     0.992 speedup
 ANC optimizer:
 * wall-time:     0 d,  0 h,  0 min,  3.833 sec
 *  cpu-time:     0 d,  0 h,  0 min,  3.814 sec
 * ratio c/w:     0.995 speedup

