      -----------------------------------------------------------      
     |                   =====================                   |     
     |                           x T B                           |     
     |                   =====================                   |     
     |                         S. Grimme                         |     
     |          Mulliken Center for Theoretical Chemistry        |     
     |                    University of Bonn                     |     
     |                 Version 6.0.1 (SAW181210)                 |     
      -----------------------------------------------------------      

   This program is distributed in the hope that it will be useful,
   but WITHOUT ANY WARRANTY; without even the implied warranty of
   MERCHANTABILITY or FITNESS FOR A PARTICULAR PURPOSE.
   
   FOR NON-COMMERCIAL, ACADEMIA USE ONLY.
   
   Cite this work as:
   S. Grimme, C. Bannwarth, P. Shushkov, J. Comput. Theory Chem., 2017,
   13, 1989-2009.
   C. Bannwarth, S. Ehlert and S. Grimme., ChemRxiv, 2018, preprint.
   http://doi.org/10.26434/chemrxiv.7246238.v1
   
   for sTDA-xTB:
   S. Grimme and C. Bannwarth, J. Chem. Phys., 2016, 145, 054103.
   
   in the mass-spec context:
   V. Asgeirsson, C. Bauer and S. Grimme, Chem. Sci., 2017, 8, 4879.
   
   if GBSA is used:
   P. Shushkov, F. März and S. Grimme, unpublished.
   
   for ANC optimizer:
   S. Grimme, unpublished.
   Rational Function algorithm used in ANCopt:
   F. Eckert, P. Pulay, H.-J. Werner, J. Comput. Chem., 1997, 18, 1473.
   
   with help from (in alphabetical order)
   C. Bannwarth, F. Bohle, G. Brandenburg, E. Caldeweyher, M. Checinski,
   S. Dohm, S. Ehlert, S. Ehrlich, F. März, H. Neugebauer, J. Pisarek,
   P. Pracht, P. Shushkov, and S. Spicher.
   
 * started run on 2019/09/16 at 13:13:49.598     
========================================================================
 # omp threads = 1
========================================================================
number of atoms            : 26
number of electrons        : 80
charge                     : 0
spin                       : .0
first test random number   : .4680

########################################################################
# WARNING! Please study the warnings concerning your input carefully
#  - XTBPATH is not set, using XTBHOME instead
#  - the use of '-opt' is discouraged, please use '--opt' next time
#  - the use of '-chrg' is discouraged, please use '--chrg' next time
#  - the use of '-uhf' is discouraged, please use '--uhf' next time
########################################################################

           ------------------------------------------------- 
          |                 G F N 2 - x T B                 |
          | Geometry, Frequencies, Noncovalent interactions |
          |            JCTC 2018 parametrisation            |
           ------------------------------------------------- 
      method parameters     
 k(s)        :  1.8500
 k(p)        :  2.2300
 k(d)        :  2.2300
 k(f)        :  2.0000
 kEN (H0ij)  : -2.0000
 D4 a1       :  0.5200
 D4 a2       :  5.0000
 D4 s6       :  1.0000
 D4 s8       :  2.7000
 D4 s9       :  5.0000
 alphaj      :  2.0000


            Z     q(EN)     CN     RAES       Cart. coordinates
     1  S   6.0    0.64    4.26    4.16    -3.90321    -1.72896     3.23653
     2  O   6.0   -0.32    1.24    1.80    -3.47510     1.00151     2.69857
     3  O   6.0   -0.31    1.20    1.80    -4.25582    -3.11895     0.81337
     4  O   6.0   -0.30    1.22    1.80    -1.67597    -2.77660     4.60399
     5  O   6.0   -0.25    2.08    1.84    -6.17442    -2.01777     4.80837
     6  H   1.0    0.15    1.21    1.47    -7.60996    -1.34300     3.92803
     7  O   6.0   -0.39    1.72    1.81     3.86179     0.71357     0.96998
     8  H   1.0    0.17    0.95    1.42     5.52646     1.21888     1.64621
     9  O   6.0   -0.29    2.04    1.83    -0.43313    -5.18090    -1.73947
    10  H   1.0    0.18    1.05    1.44    -1.97534    -4.55102    -1.00500
    11  H   1.0    0.15    0.97    1.43    -0.92018    -5.89838    -3.34029
    12  O   6.0   -0.30    2.00    1.83     3.78129     1.63352    -3.63081
    13  H   1.0    0.18    1.13    1.45     3.85621     1.23173    -1.85667
    14  H   1.0    0.14    0.97    1.43     5.27750     0.89186    -4.35600
    15  O   6.0   -0.22    2.92    2.59     2.36881    -3.46914     1.92281
    16  H   1.0    0.16    1.21    1.47     3.14381    -1.81104     1.54876
    17  H   1.0    0.16    1.06    1.44     1.11746    -3.36136     3.30575
    18  H   1.0    0.14    1.05    1.44     1.65228    -4.26721     0.39272
    19  O   6.0   -0.23    2.92    2.58     0.35065     3.61074     1.09734
    20  H   1.0    0.16    1.21    1.47     1.85566     2.50618     1.16623
    21  H   1.0    0.12    1.07    1.44     0.03085     4.25192    -0.62795
    22  H   1.0    0.16    1.07    1.44    -1.15792     2.78331     1.82611
    23  N   5.0   -0.22    3.05    1.93    -0.42082     4.97288    -3.80172
    24  H   1.0    0.12    1.03    1.43     1.08436     3.82530    -4.16029
    25  H   1.0    0.10    0.99    1.43    -0.01141     6.65315    -4.65033
    26  H   1.0    0.11    0.99    1.43    -1.89383     4.22976    -4.79625

  Z AO/shell   Hii/eV     exponent
  1     Wed Apr 25 08:07:45 CEST 2018   EN: 2.200 GM2: 0.406  GM3: 0.0800  RAES: 1.40
     1s    -10.707211    1.230000
  7     Wed Apr 25 08:07:45 CEST 2018   EN: 3.040 GM2: 0.461  GM3:-0.0640  RAES: 1.90
     2s    -16.686243    2.339881
     2p    -12.523956    2.014332
  8     Wed Apr 25 08:07:45 CEST 2018   EN: 3.440 GM2: 0.452  GM3:-0.0517  RAES: 1.80
     2s    -20.229985    2.439742
     2p    -15.503117    2.137023
 16     Tue Apr 24 11:44:34 CEST 2018   EN: 2.580 GM2: 0.340  GM3:-0.0502  RAES: 3.10
     3s    -20.029654    1.981333
     3p    -11.377694    2.025643
     3d     -0.420282    1.702555
 no old-style atom pair restraining (fixing) potential

molecular fragmentation (1/2 indicates fragments):
11111122222222222222222222
# atoms in fragment 1/2:     6    20
 fragment masses (1/2) :       97.07      108.11
CMA distance (Bohr)    :   7.156
constraining FC (au)   :  0.0500
           ------------------------------------------------- 
          |        Self-Consistent Charge Iterations        |
           ------------------------------------------------- 

 Ncao       : 65
 Nao        : 64
 Nshell     : 38
 Nel        : 80
 T(el)      :   300.0
 intcut     :    25.0
 scfconv/Eh :  0.100E-05
   qconv/e  :  0.100E-03
 intneglect :  0.100E-07
 broydamp   :      0.250
 iter      E             dE          RMSdq      gap      omega  full diag
   1    -50.5809941 -0.505810E+02  0.702E+00   10.21       0.0  T
   2    -50.6311902 -0.501961E-01  0.506E+00    9.67       1.0  T
   3    -50.6677751 -0.365849E-01  0.134E+00    8.02       1.0  T
   4    -50.6733021 -0.552707E-02  0.547E-01    8.40       1.0  T
   5    -50.6738949 -0.592777E-03  0.307E-01    8.41       1.0  T
   6    -50.6743186 -0.423725E-03  0.133E-01    8.48       1.0  T
   7    -50.6744154 -0.967808E-04  0.473E-02    8.46       1.0  T
   8    -50.6744252 -0.975627E-05  0.314E-02    8.46       1.0  T
   9    -50.6744319 -0.670029E-05  0.737E-03    8.47       2.7  T
  10    -50.6744322 -0.291218E-06  0.219E-03    8.47       8.9  T
  11    -50.6744322 -0.124612E-07  0.121E-03    8.47      16.1  T
  12    -50.6744322 -0.720761E-08  0.473E-04    8.47      41.5  T
  13    -50.6744322 -0.128640E-08  0.138E-04    8.47     142.0  T
speedup  1.02
cpu  time for SCC    0.02 s
wall time for SCC    0.02 s

   *** convergence criteria satisfied after 13 iterations ***

          eigenvalues
 #    :          28         29         30         31         32         33         34         35
 occ. :        2.000      2.000      2.000      2.000      2.000      2.000      2.000      2.000
 eps  :       -12.788    -12.760    -11.907    -11.831    -11.636    -11.456    -11.218    -11.163
 #    :          36         37         38         39         40         41         42         43
 occ. :        2.000      2.000      2.000      2.000      2.000      0.000      0.000      0.000
 eps  :       -11.022    -10.942    -10.748    -10.717    -10.262     -1.789     -0.117      0.018
 #    :          44         45         46         47         48         49         50         51
 occ. :        0.000      0.000      0.000      0.000      0.000      0.000      0.000      0.000
 eps  :         0.502      1.086      1.573      2.411      3.292      3.895      4.127      4.820


   #   Z            q   n(s)   n(p)   n(d)      C6AA      α(0)
   1  16 S      1.592  1.583  1.843  0.982    91.259    16.078
   2   8 O     -0.760  1.767  4.992  0.000    30.388     7.391
   3   8 O     -0.757  1.778  4.980  0.000    30.322     7.383
   4   8 O     -0.728  1.765  4.963  0.000    29.485     7.280
   5   8 O     -0.541  1.719  4.822  0.000    23.785     6.584
   6   1 H      0.359  0.641  0.000  0.000     0.560     1.171
   7   8 O     -0.841  1.830  5.011  0.000    32.773     7.679
   8   1 H      0.218  0.782  0.000  0.000     1.032     1.596
   9   8 O     -0.618  1.727  4.891  0.000    25.623     6.832
  10   1 H      0.336  0.664  0.000  0.000     0.621     1.238
  11   1 H      0.288  0.712  0.000  0.000     0.757     1.367
  12   8 O     -0.656  1.753  4.903  0.000    26.569     6.957
  13   1 H      0.330  0.670  0.000  0.000     0.635     1.251
  14   1 H      0.259  0.741  0.000  0.000     0.858     1.455
  15   8 O     -0.457  1.656  4.801  0.000    21.933     6.325
  16   1 H      0.403  0.597  0.000  0.000     0.472     1.075
  17   1 H      0.398  0.602  0.000  0.000     0.488     1.097
  18   1 H      0.402  0.598  0.000  0.000     0.482     1.091
  19   8 O     -0.460  1.657  4.804  0.000    21.998     6.335
  20   1 H      0.404  0.596  0.000  0.000     0.470     1.074
  21   1 H      0.383  0.617  0.000  0.000     0.518     1.131
  22   1 H      0.398  0.602  0.000  0.000     0.488     1.098
  23   7 N     -0.458  1.384  4.074  0.000    32.058     8.409
  24   1 H      0.210  0.790  0.000  0.000     1.059     1.612
  25   1 H      0.147  0.853  0.000  0.000     1.425     1.870
  26   1 H      0.151  0.849  0.000  0.000     1.397     1.852

 Mol. C6AA /au·bohr⁶  :       5512.377335
 Mol. C8AA /au·bohr⁸  :     119361.674731
 Mol. α(0) /au        :        107.227896

 
 Wiberg/Mayer (AO) data. WBOs > 0.1 written file <wbo>
 largest (>0.05) Wiberg bond orders for each atom
           total WBO             WBO to atom ...
     1  S   4.926    O    4 1.317    O    3 1.299    O    2 1.274    O    5 0.997
     2  O   1.687    S    1 1.274    O    4 0.112    O    3 0.112    H   22 0.088    O    5 0.070
     3  O   1.676    S    1 1.299    O    4 0.116    O    2 0.112    O    5 0.074    H   10 0.053
     4  O   1.719    S    1 1.317    O    3 0.116    O    2 0.112    H   17 0.080    O    5 0.053
     5  O   2.049    S    1 0.997    H    6 0.847    O    3 0.074    O    2 0.070    O    4 0.053
     6  H   0.871    O    5 0.847
     7  O   1.643    H    8 0.945    H   16 0.199    H   20 0.193    H   13 0.117    O   15 0.062    O   19 0.061    O   12 0.050
     8  H   0.953    O    7 0.945
     9  O   1.851    H   11 0.903    H   10 0.830    H   18 0.067
    10  H   0.887    O    9 0.830    O    3 0.053
    11  H   0.917    O    9 0.903
    12  O   1.793    H   14 0.925    H   13 0.772    O    7 0.050
    13  H   0.891    O   12 0.772    O    7 0.117
    14  H   0.933    O   12 0.925
    15  O   2.284    H   18 0.764    H   17 0.754    H   16 0.634    O    7 0.062
    16  H   0.837    O   15 0.634    O    7 0.199
    17  H   0.841    O   15 0.754    O    4 0.080
    18  H   0.839    O   15 0.764    O    9 0.067
    19  O   2.282    H   21 0.754    H   22 0.745    H   20 0.639    O    7 0.061
    20  H   0.836    O   19 0.639    O    7 0.193
    21  H   0.854    O   19 0.754    N   23 0.092
    22  H   0.842    O   19 0.745    O    2 0.088
    23  N   3.023    H   25 0.974    H   26 0.974    H   24 0.923    H   21 0.092
    24  H   0.956    N   23 0.923
    25  H   0.979    N   23 0.974
    26  H   0.977    N   23 0.974
 MOs/occ written to file <molden.input>
 
molecular dipole:
                 x           y           z       tot (Debye)
 q only:        0.499       0.706      -0.961
   full:       -0.050       0.552      -1.209       3.379
molecular quadrupole (traceless):
                xx          xy          yy          xz          yz          zz
 q only:        3.468      -6.352       4.174       3.539       3.259      -7.642
  q+dip:        9.867      -2.070      -3.535      -0.364       1.817      -6.332
   full:       10.549      -2.212      -4.081      -0.565       1.827      -6.468

SCC energy    :     -50.6744322
rep           :       0.2895124
ES            :       0.2889533
AES           :      -0.0680626
AXC           :      -0.0073889
disp          :      -0.0161918
XB            :       0.0000000
fix           :       0.0000000
total E       :     -50.3845630
atomizationE  :       4.9148672     3084.13
(atE without considering molecular charge,
 total energy contains solvation terms)
H-L gap (eV)  :          8.4737
           ------------------------------------------------- 
          |                 ===============                 |
          |                   A N C O P T                   |
          |                 ===============                 |
          |          Approximate Normal Coordinate          |
          |           Rational Function Optimizer           |
           ------------------------------------------------- 
dumping coords to <xtbopt.coord> and <xtbopt.log>
 optlevel               2
 Maxcycle             520
 Maxmicro              25
 Econv         1.000000000000000E-007
 Gconv         2.000000000000000E-004
 Maxdispl       1.00000000000000     
 Hlow          5.000000000000000E-003
 S6             20.0000000000000     
 Nvar               72

generating ANC from model Hessian ...
 Shifting diagonal of input Hessian by   5.174341492090086E-003
 Lowest  eigenvalues of input Hessian
    0.005000   -0.000000   -0.000000   -0.000000    0.000000    0.000000
    0.000000    0.005176    0.005339    0.005541    0.005956    0.006159
    0.006359    0.006700    0.007069    0.007145    0.007765    0.009097
 Highest eigenvalues
    1.560838    1.588629    1.589923    3.143908    3.219054    3.319861
 
cpu  time for ANC gen    0.01 s
wall time for ANC gen    0.01 s
................................................................................
.............................. CYCLE    1 ......................................
................................................................................
   1    -50.6744322 -0.506744E+02  0.713E-05    8.47       0.0  T
   2    -50.6744322 -0.101608E-10  0.556E-05    8.47     352.8  T
   3    -50.6744322 -0.109779E-10  0.264E-05    8.47     742.2  T
speedup  0.97
cpu  time for SCC    0.00 s
wall time for SCC    0.00 s
speedup  0.96
cpu  time for grad    0.01 s
wall time for grad    0.01 s
 E :    -50.38456297  G :  0.201916    pred/act E change:  0.000D+00  0.409D-07
Maxdispl :   0.1061   ||displ|| :   0.2913   Lambda : -0.289D-01
Largest |displ|/coords:  0.1061 (  54)  0.1033 (  33)  0.0922 (  22)
................................................................................
.............................. CYCLE    2 ......................................
................................................................................
   1    -50.6826187 -0.506826E+02  0.255E-01    8.55       0.0  T
   2    -50.6827694 -0.150754E-03  0.193E-01    8.60       1.0  T
   3    -50.6828435 -0.741164E-04  0.714E-02    8.67       1.0  T
   4    -50.6828532 -0.966127E-05  0.177E-02    8.66       1.1  T
   5    -50.6828538 -0.564807E-06  0.460E-03    8.66       4.3  T
   6    -50.6828538 -0.353107E-07  0.268E-03    8.66       7.3  T
speedup  1.02
cpu  time for SCC    0.01 s
wall time for SCC    0.01 s
speedup  1.03
cpu  time for grad    0.01 s
wall time for grad    0.01 s
 E :    -50.40716905  G :  0.122985    pred/act E change:  0.000D+00 -0.226D-01
Maxdispl :   0.1277   ||displ|| :   0.3342   Lambda : -0.142D-01
Largest |displ|/coords:  0.1277 (  17)  0.1085 (  22)  0.1006 (  25)
................................................................................
.............................. CYCLE    3 ......................................
................................................................................
   1    -50.6868649 -0.506869E+02  0.253E-01    8.71       0.0  T
   2    -50.6870587 -0.193859E-03  0.188E-01    8.77       1.0  T
   3    -50.6871426 -0.838770E-04  0.736E-02    8.85       1.0  T
   4    -50.6871520 -0.941529E-05  0.156E-02    8.84       1.3  T
   5    -50.6871525 -0.450820E-06  0.440E-03    8.84       4.5  T
   6    -50.6871525 -0.302980E-07  0.253E-03    8.84       7.7  T
speedup  1.02
cpu  time for SCC    0.01 s
wall time for SCC    0.01 s
speedup  1.03
cpu  time for grad    0.01 s
wall time for grad    0.01 s
 E :    -50.41860345  G :  0.077904    pred/act E change: -0.157D-01 -0.114D-01
Maxdispl :   0.1500   ||displ|| :   0.3501   Lambda : -0.748D-02
Largest |displ|/coords:  0.1500 (  17)  0.1458 (  11)  0.1206 (  22)
................................................................................
.............................. CYCLE    4 ......................................
................................................................................
   1    -50.6887642 -0.506888E+02  0.245E-01    8.86       0.0  T
   2    -50.6889485 -0.184312E-03  0.179E-01    8.92       1.0  T
   3    -50.6890257 -0.771488E-04  0.681E-02    9.00       1.0  T
   4    -50.6890351 -0.942924E-05  0.148E-02    8.99       1.3  T
   5    -50.6890355 -0.414120E-06  0.439E-03    8.99       4.5  T
   6    -50.6890355 -0.269875E-07  0.239E-03    8.99       8.2  T
speedup  1.02
cpu  time for SCC    0.01 s
wall time for SCC    0.01 s
speedup  0.96
cpu  time for grad    0.01 s
wall time for grad    0.01 s
 E :    -50.42458209  G :  0.049866    pred/act E change: -0.792D-02 -0.598D-02
Maxdispl :   0.1954   ||displ|| :   0.4667   Lambda : -0.711D-02
Largest |displ|/coords:  0.1954 (  17)  0.1826 (   9)  0.1196 (  14)
................................................................................
.............................. CYCLE    5 ......................................
................................................................................
   1    -50.6909052 -0.506909E+02  0.360E-01    9.00       0.0  T
   2    -50.6913742 -0.468944E-03  0.259E-01    9.06       1.0  T
   3    -50.6915657 -0.191538E-03  0.105E-01    9.12       1.0  T
   4    -50.6915839 -0.182479E-04  0.237E-02    9.13       1.0  T
   5    -50.6915853 -0.131704E-05  0.707E-03    9.14       2.8  T
   6    -50.6915853 -0.691251E-07  0.380E-03    9.14       5.2  T
   7    -50.6915854 -0.244036E-07  0.128E-03    9.14      15.3  T
speedup  1.00
cpu  time for SCC    0.01 s
wall time for SCC    0.01 s
speedup  1.01
cpu  time for grad    0.01 s
wall time for grad    0.01 s
 E :    -50.42896549  G :  0.027670    pred/act E change: -0.420D-02 -0.438D-02
Maxdispl :   0.3325   ||displ|| :   0.5097   Lambda : -0.402D-02
Largest |displ|/coords:  0.3325 (  11)  0.1557 (   8)  0.1252 (  17)
................................................................................
.............................. CYCLE    6 ......................................
................................................................................
   1    -50.6898965 -0.506899E+02  0.567E-01    8.98       0.0  T
   2    -50.6901262 -0.229702E-03  0.429E-01    9.01       1.0  T
   3    -50.6902204 -0.942073E-04  0.782E-02    9.10       1.0  T
   4    -50.6902632 -0.428585E-04  0.214E-02    9.09       1.0  T
   5    -50.6902643 -0.104816E-05  0.678E-03    9.09       2.9  T
   6    -50.6902643 -0.387578E-07  0.354E-03    9.09       5.5  T
   7    -50.6902643 -0.152964E-07  0.985E-04    9.09      19.9  T
speedup  1.03
cpu  time for SCC    0.01 s
wall time for SCC    0.01 s
speedup  1.03
cpu  time for grad    0.01 s
wall time for grad    0.01 s
 E :    -50.42961486  G :  0.041680    pred/act E change: -0.433D-02 -0.649D-03
Maxdispl :   0.2590   ||displ|| :   0.3535   Lambda : -0.431D-02
Largest |displ|/coords:  0.2590 (   9)  0.0990 (   5)  0.0900 (  10)
................................................................................
.............................. CYCLE    7 ......................................
................................................................................
   1    -50.6970456 -0.506970E+02  0.437E-01    9.05       0.0  T
   2    -50.6971071 -0.614687E-04  0.333E-01    9.06       1.0  T
   3    -50.6971505 -0.433813E-04  0.399E-02    9.09       1.0  T
   4    -50.6971605 -0.100539E-04  0.108E-02    9.09       1.8  T
   5    -50.6971608 -0.282846E-06  0.458E-03    9.09       4.3  T
   6    -50.6971608 -0.551882E-08  0.242E-03    9.09       8.1  T
speedup  1.03
cpu  time for SCC    0.01 s
wall time for SCC    0.01 s
speedup  1.03
cpu  time for grad    0.01 s
wall time for grad    0.01 s
 E :    -50.43161112  G :  0.029705    pred/act E change: -0.253D-02 -0.200D-02
Maxdispl :   0.0719   ||displ|| :   0.2214   Lambda : -0.147D-02
Largest |displ|/coords:  0.0719 (   4)  0.0696 (  17)  0.0672 (  14)
................................................................................
.............................. CYCLE    8 ......................................
................................................................................
   1    -50.7012978 -0.507013E+02  0.155E-01    9.11       0.0  T
   2    -50.7013101 -0.123377E-04  0.116E-01    9.11       1.0  T
   3    -50.7013160 -0.582640E-05  0.208E-02    9.10       1.0  T
   4    -50.7013180 -0.203774E-05  0.679E-03    9.10       2.9  T
   5    -50.7013181 -0.609292E-07  0.193E-03    9.10      10.2  T
   6    -50.7013181 -0.422748E-08  0.102E-03    9.10      19.2  T
speedup  1.03
cpu  time for SCC    0.01 s
wall time for SCC    0.01 s
speedup  0.96
cpu  time for grad    0.01 s
wall time for grad    0.01 s
 E :    -50.43243294  G :  0.024863    pred/act E change: -0.242D-02 -0.822D-03
Maxdispl :   0.1337   ||displ|| :   0.3504   Lambda : -0.177D-02
Largest |displ|/coords:  0.1337 (  10)  0.1271 (   4)  0.1154 (  12)
................................................................................
.............................. CYCLE    9 ......................................
................................................................................
   1    -50.7018591 -0.507019E+02  0.249E-01    9.08       0.0  T
   2    -50.7019016 -0.424996E-04  0.187E-01    9.07       1.0  T
   3    -50.7019213 -0.197745E-04  0.373E-02    9.06       1.0  T
   4    -50.7019279 -0.658356E-05  0.109E-02    9.06       1.8  T
   5    -50.7019282 -0.230636E-06  0.349E-03    9.06       5.6  T
   6    -50.7019282 -0.119062E-07  0.193E-03    9.06      10.2  T
speedup  0.86
cpu  time for SCC    0.01 s
wall time for SCC    0.01 s
speedup  0.96
cpu  time for grad    0.01 s
wall time for grad    0.01 s
 E :    -50.43369032  G :  0.026389    pred/act E change: -0.772D-03 -0.126D-02
Maxdispl :   0.2309   ||displ|| :   0.5836   Lambda : -0.301D-02
Largest |displ|/coords:  0.2309 (  11)  0.2133 (   5)  0.1804 (   7)
................................................................................
.............................. CYCLE   10 ......................................
................................................................................
   1    -50.6944045 -0.506944E+02  0.608E-01    9.07       0.0  T
   2    -50.6946246 -0.220033E-03  0.457E-01    9.06       1.0  T
   3    -50.6947398 -0.115211E-03  0.844E-02    9.04       1.0  T
   4    -50.6947748 -0.349612E-04  0.227E-02    9.05       1.0  T
   5    -50.6947757 -0.931874E-06  0.795E-03    9.05       2.5  T
   6    -50.6947757 -0.484528E-07  0.427E-03    9.05       4.6  T
   7    -50.6947758 -0.301887E-07  0.111E-03    9.05      17.6  T
speedup  1.04
cpu  time for SCC    0.01 s
wall time for SCC    0.01 s
speedup  1.03
cpu  time for grad    0.01 s
wall time for grad    0.01 s
 E :    -50.43274304  G :  0.069626    pred/act E change: -0.995D-03  0.947D-03
Maxdispl :   0.2245   ||displ|| :   0.4728   Lambda : -0.152D-01
Largest |displ|/coords:  0.2245 (   7)  0.2158 (   6)  0.2139 (   5)
................................................................................
.............................. CYCLE   11 ......................................
................................................................................
   1    -50.7202712 -0.507203E+02  0.737E-01    9.16       0.0  T
   2    -50.7206032 -0.332001E-03  0.555E-01    9.16       1.0  T
   3    -50.7208270 -0.223818E-03  0.103E-01    9.16       1.0  T
   4    -50.7208725 -0.454890E-04  0.171E-02    9.16       1.1  T
   5    -50.7208730 -0.498513E-06  0.106E-02    9.16       1.9  T
   6    -50.7208730 -0.623813E-07  0.424E-03    9.16       4.6  T
   7    -50.7208731 -0.442927E-07  0.869E-04    9.16      22.6  T
speedup  1.04
cpu  time for SCC    0.01 s
wall time for SCC    0.01 s
speedup  1.03
cpu  time for grad    0.01 s
wall time for grad    0.01 s
 E :    -50.43313110  G :  0.079724    pred/act E change: -0.202D-02 -0.388D-03
Maxdispl :   0.1237   ||displ|| :   0.2961   Lambda : -0.742D-02
Largest |displ|/coords:  0.1237 (   6)  0.1195 (  12)  0.0925 (   4)
................................................................................
.............................. CYCLE   12 ......................................
................................................................................
   1    -50.7019433 -0.507019E+02  0.419E-01    9.22       0.0  T
   2    -50.7020340 -0.906899E-04  0.316E-01    9.23       1.0  T
   3    -50.7020997 -0.657144E-04  0.539E-02    9.23       1.0  T
   4    -50.7021114 -0.116283E-04  0.141E-02    9.23       1.4  T
   5    -50.7021117 -0.356571E-06  0.518E-03    9.23       3.8  T
   6    -50.7021118 -0.351947E-07  0.268E-03    9.23       7.3  T
speedup  1.03
cpu  time for SCC    0.01 s
wall time for SCC    0.01 s
speedup  1.02
cpu  time for grad    0.01 s
wall time for grad    0.01 s
 E :    -50.43590030  G :  0.043840    pred/act E change: -0.928D-02 -0.277D-02
Maxdispl :   0.1100   ||displ|| :   0.3206   Lambda : -0.440D-02
Largest |displ|/coords:  0.1100 (  11)  0.1100 (   1)  0.0899 (  19)
................................................................................
.............................. CYCLE   13 ......................................
................................................................................
   1    -50.7094038 -0.507094E+02  0.324E-01    9.24       0.0  T
   2    -50.7095026 -0.988033E-04  0.241E-01    9.24       1.0  T
   3    -50.7095654 -0.628678E-04  0.553E-02    9.22       1.0  T
   4    -50.7095775 -0.120866E-04  0.153E-02    9.23       1.3  T
   5    -50.7095779 -0.355065E-06  0.566E-03    9.23       3.5  T
   6    -50.7095779 -0.251381E-07  0.277E-03    9.23       7.1  T
speedup  1.00
cpu  time for SCC    0.01 s
wall time for SCC    0.01 s
speedup  1.02
cpu  time for grad    0.01 s
wall time for grad    0.01 s
 E :    -50.43646872  G :  0.055741    pred/act E change: -0.403D-02 -0.568D-03
Maxdispl :   0.1019   ||displ|| :   0.3015   Lambda : -0.551D-02
Largest |displ|/coords:  0.1019 (  23)  0.0882 (  22)  0.0872 (  18)
................................................................................
.............................. CYCLE   14 ......................................
................................................................................
   1    -50.7152489 -0.507152E+02  0.353E-01    9.22       0.0  T
   2    -50.7153776 -0.128641E-03  0.261E-01    9.22       1.0  T
   3    -50.7154469 -0.693097E-04  0.617E-02    9.22       1.0  T
   4    -50.7154624 -0.155240E-04  0.123E-02    9.22       1.6  T
   5    -50.7154626 -0.197266E-06  0.589E-03    9.22       3.3  T
   6    -50.7154627 -0.512930E-07  0.246E-03    9.22       8.0  T
speedup  1.00
cpu  time for SCC    0.01 s
wall time for SCC    0.01 s
speedup  0.94
cpu  time for grad    0.01 s
wall time for grad    0.01 s
 E :    -50.43730148  G :  0.042776    pred/act E change: -0.243D-02 -0.833D-03
Maxdispl :   0.0660   ||displ|| :   0.1844   Lambda : -0.263D-02
Largest |displ|/coords:  0.0660 (  13)  0.0646 (  19)  0.0595 (  15)
................................................................................
.............................. CYCLE   15 ......................................
................................................................................
   1    -50.7137735 -0.507138E+02  0.184E-01    9.27       0.0  T
   2    -50.7138065 -0.329047E-04  0.136E-01    9.27       1.0  T
   3    -50.7138239 -0.174434E-04  0.315E-02    9.26       1.0  T
   4    -50.7138280 -0.406128E-05  0.810E-03    9.26       2.4  T
   5    -50.7138281 -0.105208E-06  0.305E-03    9.26       6.4  T
   6    -50.7138281 -0.788880E-08  0.150E-03    9.26      13.1  T
speedup  1.02
cpu  time for SCC    0.01 s
wall time for SCC    0.01 s
speedup  1.02
cpu  time for grad    0.01 s
wall time for grad    0.01 s
 E :    -50.43893580  G :  0.022627    pred/act E change: -0.301D-02 -0.163D-02
Maxdispl :   0.1167   ||displ|| :   0.2748   Lambda : -0.158D-02
Largest |displ|/coords:  0.1167 (  15)  0.0984 (   2)  0.0815 (   6)
................................................................................
.............................. CYCLE   16 ......................................
................................................................................
   1    -50.7172718 -0.507173E+02  0.222E-01    9.30       0.0  T
   2    -50.7173002 -0.283412E-04  0.167E-01    9.30       1.0  T
   3    -50.7173194 -0.192575E-04  0.310E-02    9.30       1.0  T
   4    -50.7173233 -0.386458E-05  0.852E-03    9.30       2.3  T
   5    -50.7173234 -0.102147E-06  0.339E-03    9.30       5.8  T
   6    -50.7173234 -0.923426E-08  0.173E-03    9.30      11.3  T
speedup  0.95
cpu  time for SCC    0.01 s
wall time for SCC    0.01 s
speedup  0.97
cpu  time for grad    0.01 s
wall time for grad    0.01 s
 E :    -50.43959201  G :  0.033582    pred/act E change: -0.136D-02 -0.656D-03
Maxdispl :   0.1250   ||displ|| :   0.2379   Lambda : -0.176D-02
Largest |displ|/coords:  0.1250 (   2)  0.0736 (  19)  0.0698 (  21)
................................................................................
.............................. CYCLE   17 ......................................
................................................................................
   1    -50.7206841 -0.507207E+02  0.131E-01    9.37       0.0  T
   2    -50.7207012 -0.170918E-04  0.970E-02    9.37       1.0  T
   3    -50.7207123 -0.110807E-04  0.238E-02    9.37       1.0  T
   4    -50.7207143 -0.198950E-05  0.749E-03    9.37       2.6  T
   5    -50.7207144 -0.818822E-07  0.256E-03    9.37       7.6  T
   6    -50.7207144 -0.912845E-08  0.127E-03    9.37      15.4  T
speedup  1.00
cpu  time for SCC    0.01 s
wall time for SCC    0.01 s
speedup  1.01
cpu  time for grad    0.01 s
wall time for grad    0.01 s
 E :    -50.44070064  G :  0.023132    pred/act E change: -0.850D-03 -0.111D-02
Maxdispl :   0.1498   ||displ|| :   0.3312   Lambda : -0.159D-02
Largest |displ|/coords:  0.1498 (   8)  0.1418 (   2)  0.1175 (   4)
................................................................................
.............................. CYCLE   18 ......................................
................................................................................
   1    -50.7222551 -0.507223E+02  0.234E-01    9.36       0.0  T
   2    -50.7222746 -0.195521E-04  0.175E-01    9.37       1.0  T
   3    -50.7222871 -0.125050E-04  0.260E-02    9.38       1.0  T
   4    -50.7222900 -0.283538E-05  0.901E-03    9.38       2.2  T
   5    -50.7222901 -0.114320E-06  0.286E-03    9.38       6.8  T
   6    -50.7222901 -0.636584E-08  0.151E-03    9.38      13.0  T
speedup  1.00
cpu  time for SCC    0.01 s
wall time for SCC    0.01 s
speedup  0.99
cpu  time for grad    0.01 s
wall time for grad    0.01 s
 E :    -50.44121637  G :  0.021915    pred/act E change: -0.932D-03 -0.516D-03
Maxdispl :   0.1004   ||displ|| :   0.2053   Lambda : -0.120D-02
Largest |displ|/coords:  0.1004 (   8)  0.0689 (  10)  0.0576 (   3)
................................................................................
.............................. CYCLE   19 ......................................
................................................................................
   1    -50.7261853 -0.507262E+02  0.166E-01    9.31       0.0  T
   2    -50.7262010 -0.156612E-04  0.123E-01    9.31       1.0  T
   3    -50.7262105 -0.949650E-05  0.222E-02    9.32       1.0  T
   4    -50.7262126 -0.206667E-05  0.748E-03    9.32       2.6  T
   5    -50.7262126 -0.820901E-07  0.244E-03    9.32       8.1  T
   6    -50.7262126 -0.668527E-08  0.131E-03    9.32      15.0  T
speedup  1.00
cpu  time for SCC    0.01 s
wall time for SCC    0.01 s
speedup  1.06
cpu  time for grad    0.01 s
wall time for grad    0.01 s
 E :    -50.44171481  G :  0.013334    pred/act E change: -0.880D-03 -0.498D-03
Maxdispl :   0.0618   ||displ|| :   0.1407   Lambda : -0.504D-03
Largest |displ|/coords:  0.0618 (   2)  0.0612 (   4)  0.0485 (   6)
................................................................................
.............................. CYCLE   20 ......................................
................................................................................
   1    -50.7226477 -0.507226E+02  0.127E-01    9.35       0.0  T
   2    -50.7226537 -0.606005E-05  0.952E-02    9.35       1.0  T
   3    -50.7226579 -0.417286E-05  0.140E-02    9.35       1.4  T
   4    -50.7226587 -0.817592E-06  0.367E-03    9.35       5.4  T
   5    -50.7226587 -0.198802E-07  0.152E-03    9.35      12.9  T
   6    -50.7226587 -0.230357E-08  0.753E-04    9.35      26.0  T
speedup  1.00
cpu  time for SCC    0.01 s
wall time for SCC    0.01 s
speedup  0.99
cpu  time for grad    0.01 s
wall time for grad    0.01 s
 E :    -50.44195640  G :  0.011984    pred/act E change: -0.623D-03 -0.242D-03
Maxdispl :   0.0951   ||displ|| :   0.1897   Lambda : -0.436D-03
Largest |displ|/coords:  0.0951 (  10)  0.0696 (   2)  0.0593 (   1)
................................................................................
.............................. CYCLE   21 ......................................
................................................................................
   1    -50.7219630 -0.507220E+02  0.102E-01    9.33       0.0  T
   2    -50.7219664 -0.337502E-05  0.760E-02    9.33       1.0  T
   3    -50.7219689 -0.250403E-05  0.110E-02    9.33       1.8  T
   4    -50.7219693 -0.398772E-06  0.321E-03    9.33       6.1  T
   5    -50.7219693 -0.178023E-07  0.130E-03    9.33      15.0  T
   6    -50.7219693 -0.209913E-08  0.657E-04    9.33      29.8  T
speedup  1.00
cpu  time for SCC    0.01 s
wall time for SCC    0.01 s
speedup  0.99
cpu  time for grad    0.01 s
wall time for grad    0.01 s
 E :    -50.44216879  G :  0.014748    pred/act E change: -0.257D-03 -0.212D-03
Maxdispl :   0.1380   ||displ|| :   0.2819   Lambda : -0.612D-03
Largest |displ|/coords:  0.1380 (   2)  0.1039 (   3)  0.1021 (   4)
................................................................................
.............................. CYCLE   22 ......................................
................................................................................
   1    -50.7214994 -0.507215E+02  0.174E-01    9.29       0.0  T
   2    -50.7215098 -0.104494E-04  0.131E-01    9.28       1.0  T
   3    -50.7215171 -0.730495E-05  0.191E-02    9.28       1.0  T
   4    -50.7215186 -0.152604E-05  0.454E-03    9.29       4.3  T
   5    -50.7215187 -0.295902E-07  0.229E-03    9.29       8.6  T
   6    -50.7215187 -0.567687E-08  0.868E-04    9.29      22.6  T
speedup  1.02
cpu  time for SCC    0.01 s
wall time for SCC    0.01 s
speedup  0.99
cpu  time for grad    0.01 s
wall time for grad    0.01 s
 E :    -50.44229448  G :  0.024323    pred/act E change: -0.226D-03 -0.126D-03
Maxdispl :   0.0931   ||displ|| :   0.1775   Lambda : -0.666D-03
Largest |displ|/coords:  0.0931 (  10)  0.0712 (   1)  0.0620 (   2)
................................................................................
.............................. CYCLE   23 ......................................
................................................................................
   1    -50.7237620 -0.507238E+02  0.925E-02    9.32       0.0  T
   2    -50.7237686 -0.658868E-05  0.679E-02    9.32       1.0  T
   3    -50.7237732 -0.455070E-05  0.140E-02    9.32       1.4  T
   4    -50.7237738 -0.623362E-06  0.315E-03    9.32       6.2  T
   5    -50.7237738 -0.114632E-07  0.158E-03    9.32      12.4  T
speedup  0.94
cpu  time for SCC    0.00 s
wall time for SCC    0.01 s
speedup  0.98
cpu  time for grad    0.01 s
wall time for grad    0.01 s
 E :    -50.44264413  G :  0.009203    pred/act E change: -0.330D-03 -0.350D-03
Maxdispl :   0.1180   ||displ|| :   0.2198   Lambda : -0.344D-03
Largest |displ|/coords:  0.1180 (   1)  0.1079 (   2)  0.0601 (  10)
................................................................................
.............................. CYCLE   24 ......................................
................................................................................
   1    -50.7221962 -0.507222E+02  0.128E-01    9.31       0.0  T
   2    -50.7222026 -0.637330E-05  0.966E-02    9.31       1.0  T
   3    -50.7222069 -0.436816E-05  0.149E-02    9.31       1.3  T
   4    -50.7222079 -0.975363E-06  0.374E-03    9.31       5.2  T
   5    -50.7222079 -0.223832E-07  0.156E-03    9.31      12.6  T
   6    -50.7222079 -0.242818E-08  0.742E-04    9.31      26.4  T
speedup  1.00
cpu  time for SCC    0.01 s
wall time for SCC    0.01 s
speedup  1.00
cpu  time for grad    0.01 s
wall time for grad    0.01 s
 E :    -50.44281449  G :  0.012520    pred/act E change: -0.344D-03 -0.170D-03
Maxdispl :   0.1655   ||displ|| :   0.3134   Lambda : -0.416D-03
Largest |displ|/coords:  0.1655 (   1)  0.1327 (   2)  0.1171 (   3)
................................................................................
.............................. CYCLE   25 ......................................
................................................................................
   1    -50.7225525 -0.507226E+02  0.166E-01    9.40       0.0  T
   2    -50.7225580 -0.541840E-05  0.126E-01    9.40       1.0  T
   3    -50.7225643 -0.632052E-05  0.124E-02    9.39       1.6  T
   4    -50.7225647 -0.372035E-06  0.355E-03    9.39       5.5  T
   5    -50.7225647 -0.135706E-07  0.179E-03    9.39      11.0  T
   6    -50.7225647 -0.654953E-08  0.537E-04    9.39      36.5  T
speedup  1.15
cpu  time for SCC    0.01 s
wall time for SCC    0.01 s
speedup  1.03
cpu  time for grad    0.01 s
wall time for grad    0.01 s
 E :    -50.44292913  G :  0.016652    pred/act E change: -0.180D-03 -0.115D-03
Maxdispl :   0.1069   ||displ|| :   0.2057   Lambda : -0.536D-03
Largest |displ|/coords:  0.1069 (   2)  0.1007 (   1)  0.0624 (  11)

generating ANC from model Hessian ...
 Shifting diagonal of input Hessian by   5.068761796614646E-003
 Lowest  eigenvalues of input Hessian
    0.005000   -0.000000   -0.000000   -0.000000   -0.000000    0.000000
    0.000000    0.005189    0.005343    0.005540    0.005842    0.006384
    0.006820    0.007128    0.007760    0.009948    0.011031    0.011461
 Highest eigenvalues
    1.394131    1.396830    1.414910    2.577984    3.412904    3.693138
 
cpu  time for ANC gen    0.02 s
wall time for ANC gen    0.02 s
................................................................................
.............................. CYCLE   26 ......................................
................................................................................
   1    -50.7235983 -0.507236E+02  0.107E-01    9.37       0.0  T
   2    -50.7236024 -0.410599E-05  0.801E-02    9.37       1.0  T
   3    -50.7236054 -0.294826E-05  0.116E-02    9.37       1.7  T
   4    -50.7236059 -0.547262E-06  0.398E-03    9.37       4.9  T
   5    -50.7236059 -0.172864E-07  0.139E-03    9.37      14.1  T
   6    -50.7236059 -0.270135E-08  0.708E-04    9.37      27.7  T
   7    -50.7236059 -0.844182E-09  0.190E-04    9.37     103.3  T
speedup  0.99
cpu  time for SCC    0.01 s
wall time for SCC    0.01 s
speedup  1.01
cpu  time for grad    0.02 s
wall time for grad    0.02 s
 E :    -50.44328881  G :  0.012036    pred/act E change:  0.000D+00 -0.360D-03
Maxdispl :   0.1015   ||displ|| :   0.2336   Lambda : -0.717D-03
Largest |displ|/coords:  0.1015 (   2)  0.0903 (  12)  0.0804 (   6)
................................................................................
.............................. CYCLE   27 ......................................
................................................................................
   1    -50.7241831 -0.507242E+02  0.268E-01    9.38       0.0  T
   2    -50.7241918 -0.866303E-05  0.204E-01    9.38       1.0  T
   3    -50.7242010 -0.927349E-05  0.135E-02    9.38       1.4  T
   4    -50.7242017 -0.708303E-06  0.441E-03    9.38       4.4  T
   5    -50.7242018 -0.156503E-07  0.199E-03    9.38       9.9  T
   6    -50.7242018 -0.220184E-08  0.757E-04    9.38      25.9  T
speedup  1.00
cpu  time for SCC    0.01 s
wall time for SCC    0.01 s
speedup  1.06
cpu  time for grad    0.01 s
wall time for grad    0.01 s
 E :    -50.44381414  G :  0.011266    pred/act E change:  0.000D+00 -0.525D-03
Maxdispl :   0.2068   ||displ|| :   0.3955   Lambda : -0.834D-03
Largest |displ|/coords:  0.2068 (   2)  0.1422 (  15)  0.1321 (   6)
................................................................................
.............................. CYCLE   28 ......................................
................................................................................
   1    -50.7225556 -0.507226E+02  0.316E-01    9.40       0.0  T
   2    -50.7225677 -0.120487E-04  0.238E-01    9.40       1.0  T
   3    -50.7225781 -0.104323E-04  0.205E-02    9.40       1.0  T
   4    -50.7225796 -0.151034E-05  0.696E-03    9.40       2.8  T
   5    -50.7225797 -0.651364E-07  0.286E-03    9.40       6.8  T
   6    -50.7225797 -0.478519E-08  0.137E-03    9.40      14.3  T
speedup  0.98
cpu  time for SCC    0.01 s
wall time for SCC    0.01 s
speedup  0.99
cpu  time for grad    0.01 s
wall time for grad    0.01 s
 E :    -50.44431251  G :  0.017351    pred/act E change: -0.378D-03 -0.498D-03
Maxdispl :   0.1871   ||displ|| :   0.2919   Lambda : -0.675D-03
Largest |displ|/coords:  0.1871 (   2)  0.1223 (   1)  0.0800 (  12)
................................................................................
.............................. CYCLE   29 ......................................
................................................................................
   1    -50.7256517 -0.507257E+02  0.118E-01    9.41       0.0  T
   2    -50.7256557 -0.403117E-05  0.872E-02    9.40       1.0  T
   3    -50.7256591 -0.337033E-05  0.136E-02    9.40       1.4  T
   4    -50.7256595 -0.412538E-06  0.405E-03    9.40       4.8  T
   5    -50.7256595 -0.251304E-07  0.146E-03    9.40      13.4  T
   6    -50.7256595 -0.252732E-08  0.795E-04    9.40      24.7  T
speedup  1.11
cpu  time for SCC    0.01 s
wall time for SCC    0.01 s
speedup  1.03
cpu  time for grad    0.01 s
wall time for grad    0.01 s
 E :    -50.44468295  G :  0.009050    pred/act E change: -0.482D-03 -0.370D-03
Maxdispl :   0.3289   ||displ|| :   0.5170   Lambda : -0.899D-03
Largest |displ|/coords:  0.3289 (   2)  0.1711 (  12)  0.1673 (   1)
................................................................................
.............................. CYCLE   30 ......................................
................................................................................
   1    -50.7217090 -0.507217E+02  0.348E-01    9.41       0.0  T
   2    -50.7217406 -0.316637E-04  0.261E-01    9.41       1.0  T
   3    -50.7217673 -0.266674E-04  0.325E-02    9.40       1.0  T
   4    -50.7217711 -0.380759E-05  0.844E-03    9.40       2.3  T
   5    -50.7217712 -0.656259E-07  0.408E-03    9.40       4.8  T
   6    -50.7217712 -0.181456E-07  0.170E-03    9.40      11.6  T
   7    -50.7217712 -0.603427E-08  0.428E-04    9.40      45.8  T
speedup  1.01
cpu  time for SCC    0.01 s
wall time for SCC    0.01 s
speedup  1.00
cpu  time for grad    0.01 s
wall time for grad    0.01 s
 E :    -50.44465415  G :  0.033108    pred/act E change: -0.366D-03  0.288D-04
Maxdispl :   0.0759   ||displ|| :   0.1511   Lambda : -0.141D-02
Largest |displ|/coords:  0.0759 (  11)  0.0609 (   1)  0.0505 (   6)
................................................................................
.............................. CYCLE   31 ......................................
................................................................................
   1    -50.7237969 -0.507238E+02  0.171E-01    9.41       0.0  T
   2    -50.7238160 -0.191025E-04  0.127E-01    9.41       1.0  T
   3    -50.7238283 -0.123278E-04  0.247E-02    9.41       1.0  T
   4    -50.7238308 -0.249963E-05  0.469E-03    9.41       4.2  T
   5    -50.7238309 -0.192607E-07  0.259E-03    9.41       7.6  T
speedup  1.00
cpu  time for SCC    0.00 s
wall time for SCC    0.01 s
speedup  0.99
cpu  time for grad    0.01 s
wall time for grad    0.01 s
 E :    -50.44528675  G :  0.011060    pred/act E change: -0.570D-03 -0.633D-03
Maxdispl :   0.1584   ||displ|| :   0.2432   Lambda : -0.447D-03
Largest |displ|/coords:  0.1584 (   2)  0.1141 (   1)  0.0962 (   5)
................................................................................
.............................. CYCLE   32 ......................................
................................................................................
   1    -50.7262430 -0.507262E+02  0.120E-01    9.42       0.0  T
   2    -50.7262473 -0.429856E-05  0.895E-02    9.42       1.0  T
   3    -50.7262505 -0.317777E-05  0.117E-02    9.42       1.7  T
   4    -50.7262511 -0.581752E-06  0.330E-03    9.42       5.9  T
   5    -50.7262511 -0.176401E-07  0.155E-03    9.42      12.6  T
   6    -50.7262511 -0.281838E-08  0.736E-04    9.42      26.7  T
speedup  0.98
cpu  time for SCC    0.01 s
wall time for SCC    0.01 s
speedup  0.99
cpu  time for grad    0.01 s
wall time for grad    0.01 s
 E :    -50.44553271  G :  0.010023    pred/act E change: -0.720D-03 -0.246D-03
Maxdispl :   0.3969   ||displ|| :   0.5670   Lambda : -0.663D-03
Largest |displ|/coords:  0.3969 (   2)  0.2677 (   1)  0.1531 (  12)
................................................................................
.............................. CYCLE   33 ......................................
................................................................................
   1    -50.7229739 -0.507230E+02  0.272E-01    9.43       0.0  T
   2    -50.7229891 -0.151666E-04  0.205E-01    9.43       1.0  T
   3    -50.7230037 -0.145788E-04  0.220E-02    9.43       1.0  T
   4    -50.7230054 -0.169873E-05  0.691E-03    9.43       2.8  T
   5    -50.7230054 -0.520543E-07  0.318E-03    9.43       6.2  T
   6    -50.7230054 -0.125484E-07  0.126E-03    9.43      15.6  T
   7    -50.7230054 -0.412344E-08  0.344E-04    9.43      57.1  T
speedup  1.01
cpu  time for SCC    0.01 s
wall time for SCC    0.01 s
speedup  1.00
cpu  time for grad    0.01 s
wall time for grad    0.01 s
 E :    -50.44601321  G :  0.014946    pred/act E change: -0.237D-03 -0.480D-03
Maxdispl :   0.3114   ||displ|| :   0.4880   Lambda : -0.738D-03
Largest |displ|/coords:  0.3114 (   2)  0.2501 (   1)  0.1324 (  12)
................................................................................
.............................. CYCLE   34 ......................................
................................................................................
   1    -50.7260757 -0.507261E+02  0.178E-01    9.46       0.0  T
   2    -50.7260856 -0.990113E-05  0.134E-01    9.46       1.0  T
   3    -50.7260931 -0.746546E-05  0.167E-02    9.45       1.2  T
   4    -50.7260946 -0.148432E-05  0.558E-03    9.46       3.5  T
   5    -50.7260946 -0.284581E-07  0.189E-03    9.46      10.4  T
   6    -50.7260946 -0.389284E-08  0.730E-04    9.46      26.9  T
speedup  1.03
cpu  time for SCC    0.01 s
wall time for SCC    0.01 s
speedup  1.01
cpu  time for grad    0.01 s
wall time for grad    0.01 s
 E :    -50.44633119  G :  0.019308    pred/act E change: -0.438D-03 -0.318D-03
Maxdispl :   0.2831   ||displ|| :   0.4234   Lambda : -0.777D-03
Largest |displ|/coords:  0.2831 (   2)  0.2139 (   1)  0.1012 (   5)
................................................................................
.............................. CYCLE   35 ......................................
................................................................................
   1    -50.7250666 -0.507251E+02  0.164E-01    9.47       0.0  T
   2    -50.7250740 -0.742397E-05  0.124E-01    9.47       1.0  T
   3    -50.7250784 -0.439224E-05  0.144E-02    9.47       1.4  T
   4    -50.7250797 -0.132359E-05  0.448E-03    9.47       4.4  T
   5    -50.7250798 -0.268111E-07  0.180E-03    9.47      10.9  T
   6    -50.7250798 -0.349538E-08  0.762E-04    9.47      25.7  T
speedup  1.02
cpu  time for SCC    0.01 s
wall time for SCC    0.01 s
speedup  0.99
cpu  time for grad    0.01 s
wall time for grad    0.01 s
 E :    -50.44689594  G :  0.011368    pred/act E change: -0.457D-03 -0.565D-03
Maxdispl :   0.3514   ||displ|| :   0.5120   Lambda : -0.899D-03
Largest |displ|/coords:  0.3514 (   2)  0.2456 (   1)  0.1728 (   3)
................................................................................
.............................. CYCLE   36 ......................................
................................................................................
   1    -50.7286533 -0.507287E+02  0.177E-01    9.49       0.0  T
   2    -50.7286800 -0.266692E-04  0.133E-01    9.49       1.0  T
   3    -50.7286911 -0.111126E-04  0.269E-02    9.49       1.0  T
   4    -50.7286956 -0.450359E-05  0.706E-03    9.49       2.8  T
   5    -50.7286957 -0.965233E-07  0.272E-03    9.49       7.2  T
   6    -50.7286957 -0.737541E-08  0.130E-03    9.49      15.1  T
speedup  1.00
cpu  time for SCC    0.01 s
wall time for SCC    0.01 s
speedup  0.98
cpu  time for grad    0.01 s
wall time for grad    0.01 s
 E :    -50.44747735  G :  0.018165    pred/act E change: -0.458D-03 -0.581D-03
Maxdispl :   0.4053   ||displ|| :   0.6725   Lambda : -0.105D-02
Largest |displ|/coords:  0.4053 (   2)  0.3554 (   1)  0.2252 (   3)
................................................................................
.............................. CYCLE   37 ......................................
................................................................................
   1    -50.7256414 -0.507256E+02  0.254E-01    9.48       0.0  T
   2    -50.7257071 -0.656315E-04  0.191E-01    9.48       1.0  T
   3    -50.7257338 -0.267092E-04  0.427E-02    9.48       1.0  T
   4    -50.7257450 -0.112256E-04  0.102E-02    9.48       1.9  T
   5    -50.7257452 -0.207606E-06  0.410E-03    9.48       4.8  T
   6    -50.7257452 -0.125669E-07  0.182E-03    9.48      10.8  T
   7    -50.7257452 -0.795333E-08  0.493E-04    9.48      39.7  T
speedup  0.99
cpu  time for SCC    0.01 s
wall time for SCC    0.01 s
speedup  0.97
cpu  time for grad    0.01 s
wall time for grad    0.02 s
 E :    -50.44844137  G :  0.023111    pred/act E change: -0.568D-03 -0.964D-03
Maxdispl :   0.3389   ||displ|| :   0.6205   Lambda : -0.276D-02
Largest |displ|/coords:  0.3389 (   3)  0.2623 (   1)  0.1610 (  33)
................................................................................
.............................. CYCLE   38 ......................................
................................................................................
   1    -50.7340363 -0.507340E+02  0.367E-01    9.49       0.0  T
   2    -50.7343965 -0.360170E-03  0.269E-01    9.49       1.0  T
   3    -50.7345396 -0.143146E-03  0.954E-02    9.48       1.0  T
   4    -50.7345693 -0.296261E-04  0.202E-02    9.48       1.0  T
   5    -50.7345703 -0.980800E-06  0.782E-03    9.48       2.5  T
   6    -50.7345703 -0.487281E-07  0.330E-03    9.48       5.9  T
   7    -50.7345703 -0.278538E-07  0.849E-04    9.48      23.1  T
speedup  1.03
cpu  time for SCC    0.01 s
wall time for SCC    0.01 s
speedup  1.00
cpu  time for grad    0.01 s
wall time for grad    0.01 s
 E :    -50.44817154  G :  0.043446    pred/act E change: -0.765D-03  0.270D-03
Maxdispl :   0.2970   ||displ|| :   0.3962   Lambda : -0.413D-02
Largest |displ|/coords:  0.2970 (   2)  0.1483 (   1)  0.0773 (   6)
................................................................................
.............................. CYCLE   39 ......................................
................................................................................
   1    -50.7274996 -0.507275E+02  0.191E-01    9.45       0.0  T
   2    -50.7275294 -0.298209E-04  0.144E-01    9.45       1.0  T
   3    -50.7275508 -0.214298E-04  0.305E-02    9.44       1.0  T
   4    -50.7275548 -0.390569E-05  0.835E-03    9.44       2.3  T
   5    -50.7275548 -0.805098E-07  0.378E-03    9.44       5.2  T
   6    -50.7275548 -0.155736E-07  0.154E-03    9.44      12.7  T
speedup  1.00
cpu  time for SCC    0.01 s
wall time for SCC    0.01 s
speedup  0.97
cpu  time for grad    0.01 s
wall time for grad    0.01 s
 E :    -50.45027013  G :  0.034117    pred/act E change: -0.191D-02 -0.210D-02
Maxdispl :   0.1784   ||displ|| :   0.3479   Lambda : -0.318D-02
Largest |displ|/coords:  0.1784 (   1)  0.1581 (   2)  0.0939 (   3)
................................................................................
.............................. CYCLE   40 ......................................
................................................................................
   1    -50.7280281 -0.507280E+02  0.236E-01    9.42       0.0  T
   2    -50.7280647 -0.365378E-04  0.175E-01    9.42       1.0  T
   3    -50.7280908 -0.261010E-04  0.334E-02    9.42       1.0  T
   4    -50.7280950 -0.427351E-05  0.819E-03    9.42       2.4  T
   5    -50.7280951 -0.981654E-07  0.393E-03    9.42       5.0  T
   6    -50.7280951 -0.175788E-07  0.163E-03    9.42      12.1  T
speedup  0.98
cpu  time for SCC    0.01 s
wall time for SCC    0.01 s
speedup  0.96
cpu  time for grad    0.01 s
wall time for grad    0.01 s
 E :    -50.45060545  G :  0.040651    pred/act E change: -0.239D-02 -0.335D-03
Maxdispl :   0.2326   ||displ|| :   0.3875   Lambda : -0.326D-02
Largest |displ|/coords:  0.2326 (   2)  0.1516 (   1)  0.1238 (   3)
................................................................................
.............................. CYCLE   41 ......................................
................................................................................
   1    -50.7367343 -0.507367E+02  0.218E-01    9.44       0.0  T
   2    -50.7368810 -0.146715E-03  0.159E-01    9.44       1.0  T
   3    -50.7369441 -0.631132E-04  0.599E-02    9.43       1.0  T
   4    -50.7369540 -0.987897E-05  0.129E-02    9.43       1.5  T
   5    -50.7369545 -0.486474E-06  0.466E-03    9.43       4.2  T
   6    -50.7369545 -0.167817E-07  0.223E-03    9.43       8.8  T
speedup  0.98
cpu  time for SCC    0.01 s
wall time for SCC    0.01 s
speedup  0.97
cpu  time for grad    0.01 s
wall time for grad    0.01 s
 E :    -50.45277459  G :  0.019574    pred/act E change: -0.178D-02 -0.217D-02
Maxdispl :   0.2978   ||displ|| :   0.4960   Lambda : -0.250D-02
Largest |displ|/coords:  0.2978 (   6)  0.1982 (   1)  0.1553 (   3)
................................................................................
.............................. CYCLE   42 ......................................
................................................................................
   1    -50.7364814 -0.507365E+02  0.268E-01    9.35       0.0  T
   2    -50.7365936 -0.112227E-03  0.195E-01    9.34       1.0  T
   3    -50.7366366 -0.429725E-04  0.544E-02    9.32       1.0  T
   4    -50.7366482 -0.116347E-04  0.121E-02    9.32       1.6  T
   5    -50.7366486 -0.388927E-06  0.448E-03    9.32       4.4  T
   6    -50.7366486 -0.163039E-07  0.218E-03    9.32       9.0  T
   7    -50.7366486 -0.111369E-07  0.551E-04    9.32      35.6  T
speedup  1.00
cpu  time for SCC    0.01 s
wall time for SCC    0.01 s
speedup  0.96
cpu  time for grad    0.01 s
wall time for grad    0.02 s
 E :    -50.45269075  G :  0.037665    pred/act E change: -0.188D-02  0.838D-04
Maxdispl :   0.1712   ||displ|| :   0.3081   Lambda : -0.339D-02
Largest |displ|/coords:  0.1712 (   6)  0.1257 (   1)  0.1160 (   2)
................................................................................
.............................. CYCLE   43 ......................................
................................................................................
   1    -50.7459708 -0.507460E+02  0.134E-01    9.38       0.0  T
   2    -50.7459758 -0.496013E-05  0.999E-02    9.38       1.0  T
   3    -50.7459791 -0.329864E-05  0.113E-02    9.38       1.7  T
   4    -50.7459797 -0.606638E-06  0.355E-03    9.38       5.5  T
   5    -50.7459797 -0.184313E-07  0.131E-03    9.38      15.0  T
speedup  1.00
cpu  time for SCC    0.00 s
wall time for SCC    0.01 s
speedup  1.04
cpu  time for grad    0.01 s
wall time for grad    0.01 s
 E :    -50.45430854  G :  0.014533    pred/act E change: -0.156D-02 -0.162D-02
Maxdispl :   0.2249   ||displ|| :   0.4021   Lambda : -0.150D-02
Largest |displ|/coords:  0.2249 (   1)  0.2104 (   2)  0.1228 (   5)
................................................................................
.............................. CYCLE   44 ......................................
................................................................................
   1    -50.7366461 -0.507366E+02  0.177E-01    9.34       0.0  T
   2    -50.7366604 -0.142627E-04  0.133E-01    9.33       1.0  T
   3    -50.7366719 -0.115024E-04  0.209E-02    9.33       1.0  T
   4    -50.7366736 -0.169913E-05  0.667E-03    9.33       2.9  T
   5    -50.7366736 -0.693022E-07  0.268E-03    9.33       7.3  T
   6    -50.7366736 -0.830541E-08  0.127E-03    9.33      15.5  T
speedup  1.03
cpu  time for SCC    0.01 s
wall time for SCC    0.01 s
speedup  1.00
cpu  time for grad    0.01 s
wall time for grad    0.01 s
 E :    -50.45414808  G :  0.031357    pred/act E change: -0.186D-02  0.160D-03
Maxdispl :   0.2765   ||displ|| :   0.4980   Lambda : -0.242D-02
Largest |displ|/coords:  0.2765 (   3)  0.2567 (   2)  0.1461 (  15)
................................................................................
.............................. CYCLE   45 ......................................
................................................................................
   1    -50.7436099 -0.507436E+02  0.214E-01    9.33       0.0  T
   2    -50.7436609 -0.510224E-04  0.158E-01    9.34       1.0  T
   3    -50.7436863 -0.253862E-04  0.386E-02    9.34       1.0  T
   4    -50.7436917 -0.542833E-05  0.761E-03    9.34       2.6  T
   5    -50.7436919 -0.190359E-06  0.337E-03    9.34       5.8  T
   6    -50.7436919 -0.643133E-08  0.158E-03    9.34      12.4  T
speedup  1.00
cpu  time for SCC    0.01 s
wall time for SCC    0.01 s
speedup  1.05
cpu  time for grad    0.01 s
wall time for grad    0.01 s
 E :    -50.45460780  G :  0.028297    pred/act E change: -0.873D-03 -0.460D-03
Maxdispl :   0.3648   ||displ|| :   0.7041   Lambda : -0.476D-02
Largest |displ|/coords:  0.3648 (   1)  0.3063 (  12)  0.2523 (   2)
................................................................................
.............................. CYCLE   46 ......................................
................................................................................
   1    -50.7421579 -0.507422E+02  0.406E-01    9.28       0.0  T
   2    -50.7422967 -0.138774E-03  0.306E-01    9.27       1.0  T
   3    -50.7423966 -0.999497E-04  0.634E-02    9.26       1.0  T
   4    -50.7424145 -0.178835E-04  0.177E-02    9.26       1.1  T
   5    -50.7424150 -0.547787E-06  0.752E-03    9.26       2.6  T
   6    -50.7424151 -0.555591E-07  0.321E-03    9.26       6.1  T
   7    -50.7424151 -0.262588E-07  0.880E-04    9.26      22.3  T
speedup  1.03
cpu  time for SCC    0.01 s
wall time for SCC    0.01 s
speedup  0.99
cpu  time for grad    0.01 s
wall time for grad    0.02 s
 E :    -50.44876495  G :  0.089710    pred/act E change: -0.151D-02  0.584D-02
Maxdispl :   0.2333   ||displ|| :   0.5603   Lambda : -0.250D-01
Largest |displ|/coords:  0.2333 (  12)  0.1996 (  21)  0.1835 (   5)
................................................................................
.............................. CYCLE   47 ......................................
................................................................................
   1    -50.7391057 -0.507391E+02  0.489E-01    9.30       0.0  T
   2    -50.7394113 -0.305549E-03  0.366E-01    9.31       1.0  T
   3    -50.7395906 -0.179346E-03  0.961E-02    9.34       1.0  T
   4    -50.7396293 -0.386533E-04  0.258E-02    9.33       1.0  T
   5    -50.7396307 -0.142088E-05  0.951E-03    9.33       2.1  T
   6    -50.7396307 -0.366233E-07  0.480E-03    9.33       4.1  T
   7    -50.7396308 -0.609897E-07  0.895E-04    9.33      21.9  T
speedup  1.01
cpu  time for SCC    0.01 s
wall time for SCC    0.01 s
speedup  0.98
cpu  time for grad    0.01 s
wall time for grad    0.02 s
 E :    -50.45208914  G :  0.066768    pred/act E change: -0.356D-02 -0.332D-02
Maxdispl :   0.1432   ||displ|| :   0.3968   Lambda : -0.117D-01
Largest |displ|/coords:  0.1432 (  12)  0.1426 (   4)  0.1192 (   7)
................................................................................
.............................. CYCLE   48 ......................................
................................................................................
   1    -50.7422956 -0.507423E+02  0.334E-01    9.33       0.0  T
   2    -50.7424572 -0.161614E-03  0.248E-01    9.33       1.0  T
   3    -50.7425526 -0.954336E-04  0.695E-02    9.33       1.0  T
   4    -50.7425712 -0.185458E-04  0.183E-02    9.33       1.1  T
   5    -50.7425719 -0.744819E-06  0.708E-03    9.33       2.8  T
   6    -50.7425719 -0.282073E-07  0.329E-03    9.33       6.0  T
   7    -50.7425720 -0.258523E-07  0.759E-04    9.33      25.8  T
speedup  0.97
cpu  time for SCC    0.01 s
wall time for SCC    0.01 s
speedup  1.02
cpu  time for grad    0.02 s
wall time for grad    0.02 s
 E :    -50.45457183  G :  0.040180    pred/act E change: -0.164D-01 -0.248D-02
Maxdispl :   0.1133   ||displ|| :   0.2539   Lambda : -0.391D-02
Largest |displ|/coords:  0.1133 (   7)  0.0889 (   9)  0.0851 (   1)
................................................................................
.............................. CYCLE   49 ......................................
................................................................................
   1    -50.7447715 -0.507448E+02  0.222E-01    9.37       0.0  T
   2    -50.7448087 -0.372016E-04  0.168E-01    9.36       1.0  T
   3    -50.7448467 -0.380045E-04  0.336E-02    9.35       1.0  T
   4    -50.7448502 -0.349056E-05  0.116E-02    9.35       1.7  T
   5    -50.7448503 -0.163237E-06  0.437E-03    9.35       4.5  T
   6    -50.7448504 -0.230363E-07  0.219E-03    9.35       8.9  T
speedup  1.11
cpu  time for SCC    0.01 s
wall time for SCC    0.01 s
speedup  1.02
cpu  time for grad    0.01 s
wall time for grad    0.01 s
 E :    -50.45536566  G :  0.032517    pred/act E change: -0.678D-02 -0.794D-03
Maxdispl :   0.1216   ||displ|| :   0.2506   Lambda : -0.313D-02
Largest |displ|/coords:  0.1216 (   8)  0.0712 (  12)  0.0672 (   4)
................................................................................
.............................. CYCLE   50 ......................................
................................................................................
   1    -50.7408960 -0.507409E+02  0.200E-01    9.32       0.0  T
   2    -50.7409446 -0.485499E-04  0.151E-01    9.33       1.0  T
   3    -50.7409698 -0.252115E-04  0.383E-02    9.35       1.0  T
   4    -50.7409772 -0.746143E-05  0.107E-02    9.35       1.8  T
   5    -50.7409774 -0.207738E-06  0.352E-03    9.35       5.6  T
   6    -50.7409775 -0.840484E-08  0.187E-03    9.35      10.5  T
speedup  1.02
cpu  time for SCC    0.01 s
wall time for SCC    0.01 s
speedup  1.06
cpu  time for grad    0.01 s
wall time for grad    0.01 s
 E :    -50.45569783  G :  0.028488    pred/act E change: -0.208D-02 -0.332D-03
Maxdispl :   0.0766   ||displ|| :   0.1599   Lambda : -0.173D-02
Largest |displ|/coords:  0.0766 (   1)  0.0631 (  10)  0.0568 (  12)
................................................................................
.............................. CYCLE   51 ......................................
................................................................................
   1    -50.7440338 -0.507440E+02  0.107E-01    9.37       0.0  T
   2    -50.7440589 -0.251657E-04  0.787E-02    9.36       1.0  T
   3    -50.7440685 -0.955277E-05  0.265E-02    9.36       1.0  T
   4    -50.7440708 -0.233830E-05  0.525E-03    9.36       3.7  T
   5    -50.7440709 -0.805678E-07  0.191E-03    9.36      10.3  T
speedup  1.00
cpu  time for SCC    0.00 s
wall time for SCC    0.00 s
speedup  0.98
cpu  time for grad    0.01 s
wall time for grad    0.01 s
 E :    -50.45656489  G :  0.012655    pred/act E change: -0.166D-02 -0.867D-03
Maxdispl :   0.1992   ||displ|| :   0.2410   Lambda : -0.575D-03
Largest |displ|/coords:  0.1992 (   1)  0.0615 (   7)  0.0453 (   4)
................................................................................
.............................. CYCLE   52 ......................................
................................................................................
   1    -50.7428853 -0.507429E+02  0.950E-02    9.34       0.0  T
   2    -50.7428911 -0.582416E-05  0.712E-02    9.34       1.0  T
   3    -50.7428946 -0.354266E-05  0.132E-02    9.34       1.5  T
   4    -50.7428955 -0.852207E-06  0.387E-03    9.34       5.1  T
   5    -50.7428955 -0.285163E-07  0.131E-03    9.34      14.9  T
   6    -50.7428955 -0.114051E-08  0.674E-04    9.34      29.1  T
speedup  0.98
cpu  time for SCC    0.01 s
wall time for SCC    0.01 s
speedup  0.97
cpu  time for grad    0.01 s
wall time for grad    0.01 s
 E :    -50.45666987  G :  0.014888    pred/act E change: -0.887D-03 -0.105D-03
Maxdispl :   0.0918   ||displ|| :   0.1653   Lambda : -0.524D-03
Largest |displ|/coords:  0.0918 (   1)  0.0678 (   8)  0.0568 (  13)

generating ANC from model Hessian ...
 Shifting diagonal of input Hessian by   4.905296246016622E-003
 Lowest  eigenvalues of input Hessian
   -0.000000   -0.000000   -0.000000    0.000000    0.000000    0.000000
    0.005000    0.005503    0.005908    0.006455    0.006996    0.007065
    0.007830    0.008935    0.009425    0.010176    0.010450    0.010695
 Highest eigenvalues
    1.396826    1.411125    1.446033    2.595057    3.439044    3.625743
 
cpu  time for ANC gen    0.03 s
wall time for ANC gen    0.03 s
................................................................................
.............................. CYCLE   53 ......................................
................................................................................
   1    -50.7431440 -0.507431E+02  0.729E-02    9.35       0.0  T
   2    -50.7431462 -0.218701E-05  0.548E-02    9.35       1.0  T
   3    -50.7431475 -0.128112E-05  0.854E-03    9.34       2.3  T
   4    -50.7431478 -0.346314E-06  0.241E-03    9.34       8.1  T
   5    -50.7431479 -0.103389E-07  0.895E-04    9.34      21.9  T
   6    -50.7431479 -0.846747E-09  0.417E-04    9.34      47.0  T
speedup  1.02
cpu  time for SCC    0.01 s
wall time for SCC    0.01 s
speedup  1.01
cpu  time for grad    0.01 s
wall time for grad    0.01 s
 E :    -50.45704613  G :  0.009578    pred/act E change:  0.000D+00 -0.376D-03
Maxdispl :   0.1094   ||displ|| :   0.2041   Lambda : -0.598D-03
Largest |displ|/coords:  0.1094 (   1)  0.0656 (   4)  0.0643 (   5)
................................................................................
.............................. CYCLE   54 ......................................
................................................................................
   1    -50.7451018 -0.507451E+02  0.145E-01    9.37       0.0  T
   2    -50.7451076 -0.587064E-05  0.110E-01    9.37       1.0  T
   3    -50.7451115 -0.388512E-05  0.130E-02    9.37       1.5  T
   4    -50.7451126 -0.103852E-05  0.390E-03    9.37       5.0  T
   5    -50.7451126 -0.190208E-07  0.141E-03    9.37      13.9  T
   6    -50.7451126 -0.171480E-08  0.652E-04    9.37      30.1  T
speedup  1.00
cpu  time for SCC    0.01 s
wall time for SCC    0.01 s
speedup  0.97
cpu  time for grad    0.01 s
wall time for grad    0.01 s
 E :    -50.45746505  G :  0.005783    pred/act E change:  0.000D+00 -0.419D-03
Maxdispl :   0.2645   ||displ|| :   0.3789   Lambda : -0.595D-03
Largest |displ|/coords:  0.2645 (   1)  0.1084 (   5)  0.1083 (  12)
................................................................................
.............................. CYCLE   55 ......................................
................................................................................
   1    -50.7459222 -0.507459E+02  0.204E-01    9.39       0.0  T
   2    -50.7459323 -0.100965E-04  0.153E-01    9.39       1.0  T
   3    -50.7459373 -0.504273E-05  0.194E-02    9.39       1.0  T
   4    -50.7459393 -0.196649E-05  0.552E-03    9.39       3.6  T
   5    -50.7459393 -0.343363E-07  0.219E-03    9.39       9.0  T
   6    -50.7459393 -0.556015E-08  0.994E-04    9.39      19.7  T
speedup  1.09
cpu  time for SCC    0.01 s
wall time for SCC    0.01 s
speedup  1.01
cpu  time for grad    0.01 s
wall time for grad    0.01 s
 E :    -50.45782158  G :  0.009368    pred/act E change: -0.311D-03 -0.357D-03
Maxdispl :   0.3147   ||displ|| :   0.4131   Lambda : -0.527D-03
Largest |displ|/coords:  0.3147 (   1)  0.1421 (   3)  0.1137 (  11)
................................................................................
.............................. CYCLE   56 ......................................
................................................................................
   1    -50.7456058 -0.507456E+02  0.191E-01    9.38       0.0  T
   2    -50.7456117 -0.581265E-05  0.143E-01    9.39       1.0  T
   3    -50.7456166 -0.490311E-05  0.160E-02    9.39       1.2  T
   4    -50.7456173 -0.753557E-06  0.529E-03    9.39       3.7  T
   5    -50.7456174 -0.380069E-07  0.191E-03    9.39      10.3  T
   6    -50.7456174 -0.588489E-08  0.104E-03    9.39      18.9  T
speedup  1.00
cpu  time for SCC    0.01 s
wall time for SCC    0.01 s
speedup  0.98
cpu  time for grad    0.01 s
wall time for grad    0.01 s
 E :    -50.45809650  G :  0.010476    pred/act E change: -0.340D-03 -0.275D-03
Maxdispl :   0.2455   ||displ|| :   0.3198   Lambda : -0.439D-03
Largest |displ|/coords:  0.2455 (   1)  0.1127 (   2)  0.0904 (   3)
................................................................................
.............................. CYCLE   57 ......................................
................................................................................
   1    -50.7474653 -0.507475E+02  0.112E-01    9.38       0.0  T
   2    -50.7474698 -0.452693E-05  0.829E-02    9.38       1.0  T
   3    -50.7474734 -0.357349E-05  0.154E-02    9.38       1.3  T
   4    -50.7474739 -0.503948E-06  0.450E-03    9.38       4.4  T
   5    -50.7474739 -0.338253E-07  0.141E-03    9.38      13.9  T
   6    -50.7474739 -0.216946E-08  0.855E-04    9.38      22.9  T
speedup  0.98
cpu  time for SCC    0.01 s
wall time for SCC    0.01 s
speedup  0.97
cpu  time for grad    0.01 s
wall time for grad    0.01 s
 E :    -50.45834214  G :  0.006817    pred/act E change: -0.308D-03 -0.246D-03
Maxdispl :   0.2780   ||displ|| :   0.3683   Lambda : -0.317D-03
Largest |displ|/coords:  0.2780 (   1)  0.1241 (   2)  0.0987 (   3)
................................................................................
.............................. CYCLE   58 ......................................
................................................................................
   1    -50.7457424 -0.507457E+02  0.183E-01    9.36       0.0  T
   2    -50.7457479 -0.544053E-05  0.138E-01    9.36       1.0  T
   3    -50.7457539 -0.601197E-05  0.149E-02    9.36       1.3  T
   4    -50.7457543 -0.446601E-06  0.520E-03    9.36       3.8  T
   5    -50.7457544 -0.302653E-07  0.175E-03    9.36      11.2  T
   6    -50.7457544 -0.269399E-08  0.939E-04    9.36      20.9  T
speedup  0.95
cpu  time for SCC    0.01 s
wall time for SCC    0.01 s
speedup  1.01
cpu  time for grad    0.01 s
wall time for grad    0.01 s
 E :    -50.45848305  G :  0.010821    pred/act E change: -0.242D-03 -0.141D-03
Maxdispl :   0.1549   ||displ|| :   0.1948   Lambda : -0.236D-03
Largest |displ|/coords:  0.1549 (   1)  0.0550 (   2)  0.0505 (   3)
................................................................................
.............................. CYCLE   59 ......................................
................................................................................
   1    -50.7469846 -0.507470E+02  0.966E-02    9.36       0.0  T
   2    -50.7469867 -0.216783E-05  0.720E-02    9.36       1.0  T
   3    -50.7469884 -0.167850E-05  0.101E-02    9.36       1.9  T
   4    -50.7469887 -0.269697E-06  0.275E-03    9.36       7.1  T
   5    -50.7469887 -0.156939E-07  0.115E-03    9.36      17.0  T
speedup  1.15
cpu  time for SCC    0.01 s
wall time for SCC    0.01 s
speedup  1.02
cpu  time for grad    0.01 s
wall time for grad    0.01 s
 E :    -50.45861502  G :  0.006024    pred/act E change: -0.180D-03 -0.132D-03
Maxdispl :   0.1585   ||displ|| :   0.2343   Lambda : -0.185D-03
Largest |displ|/coords:  0.1585 (   1)  0.1265 (   2)  0.0501 (  11)
................................................................................
.............................. CYCLE   60 ......................................
................................................................................
   1    -50.7475455 -0.507475E+02  0.108E-01    9.35       0.0  T
   2    -50.7475473 -0.172645E-05  0.805E-02    9.35       1.0  T
   3    -50.7475491 -0.183861E-05  0.987E-03    9.35       2.0  T
   4    -50.7475493 -0.154027E-06  0.289E-03    9.35       6.8  T
   5    -50.7475493 -0.122226E-07  0.108E-03    9.35      18.1  T
speedup  0.96
cpu  time for SCC    0.00 s
wall time for SCC    0.01 s
speedup  0.96
cpu  time for grad    0.01 s
wall time for grad    0.01 s
 E :    -50.45874211  G :  0.006686    pred/act E change: -0.122D-03 -0.127D-03
Maxdispl :   0.2366   ||displ|| :   0.3710   Lambda : -0.219D-03
Largest |displ|/coords:  0.2366 (   1)  0.2324 (   2)  0.0543 (  13)
................................................................................
.............................. CYCLE   61 ......................................
................................................................................
   1    -50.7470472 -0.507470E+02  0.156E-01    9.34       0.0  T
   2    -50.7470516 -0.446357E-05  0.117E-01    9.34       1.0  T
   3    -50.7470562 -0.457455E-05  0.156E-02    9.34       1.3  T
   4    -50.7470567 -0.455804E-06  0.438E-03    9.34       4.5  T
   5    -50.7470567 -0.296446E-07  0.185E-03    9.34      10.6  T
   6    -50.7470567 -0.380163E-08  0.906E-04    9.34      21.7  T
speedup  0.97
cpu  time for SCC    0.01 s
wall time for SCC    0.01 s
speedup  0.95
cpu  time for grad    0.01 s
wall time for grad    0.01 s
 E :    -50.45891016  G :  0.007013    pred/act E change: -0.974D-04 -0.168D-03
Maxdispl :   0.3293   ||displ|| :   0.4528   Lambda : -0.280D-03
Largest |displ|/coords:  0.3293 (   2)  0.1997 (   1)  0.1112 (   5)
................................................................................
.............................. CYCLE   62 ......................................
................................................................................
   1    -50.7483658 -0.507484E+02  0.175E-01    9.34       0.0  T
   2    -50.7483724 -0.658073E-05  0.131E-01    9.34       1.0  T
   3    -50.7483790 -0.660070E-05  0.196E-02    9.33       1.0  T
   4    -50.7483797 -0.675053E-06  0.513E-03    9.33       3.8  T
   5    -50.7483797 -0.439946E-07  0.225E-03    9.34       8.7  T
   6    -50.7483797 -0.569478E-08  0.107E-03    9.34      18.3  T
speedup  0.98
cpu  time for SCC    0.01 s
wall time for SCC    0.01 s
speedup  0.97
cpu  time for grad    0.01 s
wall time for grad    0.01 s
 E :    -50.45912659  G :  0.009801    pred/act E change: -0.125D-03 -0.216D-03
Maxdispl :   0.4486   ||displ|| :   0.6313   Lambda : -0.400D-03
Largest |displ|/coords:  0.4486 (   2)  0.2994 (   1)  0.1498 (   5)
................................................................................
.............................. CYCLE   63 ......................................
................................................................................
   1    -50.7456680 -0.507457E+02  0.257E-01    9.30       0.0  T
   2    -50.7456832 -0.152272E-04  0.192E-01    9.30       1.0  T
   3    -50.7456999 -0.166966E-04  0.291E-02    9.30       1.0  T
   4    -50.7457013 -0.143256E-05  0.837E-03    9.30       2.3  T
   5    -50.7457015 -0.104383E-06  0.335E-03    9.30       5.9  T
   6    -50.7457015 -0.111946E-07  0.168E-03    9.30      11.7  T
   7    -50.7457015 -0.536745E-08  0.409E-04    9.30      47.9  T
speedup  1.00
cpu  time for SCC    0.01 s
wall time for SCC    0.01 s
speedup  0.97
cpu  time for grad    0.01 s
wall time for grad    0.02 s
 E :    -50.45938929  G :  0.017553    pred/act E change: -0.169D-03 -0.263D-03
Maxdispl :   0.3386   ||displ|| :   0.5217   Lambda : -0.850D-03
Largest |displ|/coords:  0.3386 (   2)  0.1995 (   5)  0.1940 (   6)
................................................................................
.............................. CYCLE   64 ......................................
................................................................................
   1    -50.7505366 -0.507505E+02  0.218E-01    9.35       0.0  T
   2    -50.7505499 -0.132779E-04  0.163E-01    9.35       1.0  T
   3    -50.7505636 -0.137548E-04  0.228E-02    9.34       1.0  T
   4    -50.7505649 -0.125132E-05  0.679E-03    9.34       2.9  T
   5    -50.7505650 -0.578025E-07  0.307E-03    9.34       6.4  T
   6    -50.7505650 -0.950090E-08  0.145E-03    9.34      13.6  T
   7    -50.7505650 -0.358218E-08  0.282E-04    9.34      69.5  T
speedup  0.99
cpu  time for SCC    0.01 s
wall time for SCC    0.01 s
speedup  1.02
cpu  time for grad    0.02 s
wall time for grad    0.02 s
 E :    -50.45969383  G :  0.018737    pred/act E change: -0.280D-03 -0.305D-03
Maxdispl :   0.1263   ||displ|| :   0.2696   Lambda : -0.946D-03
Largest |displ|/coords:  0.1263 (   2)  0.0859 (   7)  0.0845 (   5)
................................................................................
.............................. CYCLE   65 ......................................
................................................................................
   1    -50.7540342 -0.507540E+02  0.159E-01    9.36       0.0  T
[...]
wall time for grad    0.01 s
 E :    -50.47416798  G :  0.000479    pred/act E change: -0.273D-05 -0.132D-05
Maxdispl :   0.0084   ||displ|| :   0.0134   Lambda : -0.869D-06
Largest |displ|/coords:  0.0084 (   6)  0.0061 (   4)  0.0031 (   3)
................................................................................
.............................. CYCLE  166 ......................................
................................................................................
   1    -50.7647309 -0.507647E+02  0.784E-03    9.34       0.0  T
   2    -50.7647309 -0.172340E-07  0.589E-03    9.34       3.3  T
   3    -50.7647309 -0.127902E-07  0.921E-04    9.34      21.3  T
   4    -50.7647309 -0.267582E-08  0.349E-04    9.34      56.1  T
speedup  0.98
cpu  time for SCC    0.00 s
wall time for SCC    0.00 s
speedup  1.00
cpu  time for grad    0.01 s
wall time for grad    0.01 s
 E :    -50.47416856  G :  0.000400    pred/act E change: -0.104D-05 -0.577D-06
Maxdispl :   0.0134   ||displ|| :   0.0193   Lambda : -0.833D-06
Largest |displ|/coords:  0.0134 (   5)  0.0077 (   3)  0.0056 (   2)
................................................................................
.............................. CYCLE  167 ......................................
................................................................................
   1    -50.7648397 -0.507648E+02  0.879E-03    9.34       0.0  T
   2    -50.7648398 -0.181317E-07  0.656E-03    9.34       3.0  T
   3    -50.7648398 -0.165414E-07  0.105E-03    9.34      18.7  T
   4    -50.7648398 -0.182366E-08  0.359E-04    9.34      54.6  T
   5    -50.7648398 -0.155381E-09  0.768E-05    9.34     255.4  T
speedup  0.82
cpu  time for SCC    0.00 s
wall time for SCC    0.00 s
speedup  0.94
cpu  time for grad    0.01 s
wall time for grad    0.01 s
 E :    -50.47416895  G :  0.000455    pred/act E change: -0.435D-06 -0.395D-06
Maxdispl :   0.0047   ||displ|| :   0.0099   Lambda : -0.601D-06
Largest |displ|/coords:  0.0047 (   6)  0.0042 (   4)  0.0032 (   7)
................................................................................
.............................. CYCLE  168 ......................................
................................................................................
   1    -50.7647102 -0.507647E+02  0.688E-03    9.34       0.0  T
   2    -50.7647102 -0.110188E-07  0.518E-03    9.34       3.8  T
   3    -50.7647102 -0.922174E-08  0.675E-04    9.34      29.1  T
   4    -50.7647102 -0.155341E-08  0.254E-04    9.34      77.3  T
speedup  1.00
cpu  time for SCC    0.00 s
wall time for SCC    0.00 s
speedup  0.98
cpu  time for grad    0.01 s
wall time for grad    0.01 s
 E :    -50.47416930  G :  0.000362    pred/act E change: -0.417D-06 -0.352D-06
Maxdispl :   0.0015   ||displ|| :   0.0051   Lambda : -0.334D-06
Largest |displ|/coords:  0.0015 (  12)  0.0014 (   6)  0.0013 (   8)
................................................................................
.............................. CYCLE  169 ......................................
................................................................................
   1    -50.7647196 -0.507647E+02  0.459E-03    9.34       0.0  T
   2    -50.7647196 -0.346015E-08  0.346E-03    9.34       5.7  T
   3    -50.7647196 -0.305856E-08  0.420E-04    9.34      46.7  T
   4    -50.7647196 -0.420634E-09  0.146E-04    9.34     134.1  T
speedup  1.00
cpu  time for SCC    0.00 s
wall time for SCC    0.00 s
speedup  1.00
cpu  time for grad    0.01 s
wall time for grad    0.01 s
 E :    -50.47416955  G :  0.000332    pred/act E change: -0.300D-06 -0.249D-06
Maxdispl :   0.0030   ||displ|| :   0.0079   Lambda : -0.316D-06
Largest |displ|/coords:  0.0030 (   6)  0.0024 (  12)  0.0022 (   8)
................................................................................
.............................. CYCLE  170 ......................................
................................................................................
   1    -50.7647407 -0.507647E+02  0.644E-03    9.34       0.0  T
   2    -50.7647407 -0.603371E-08  0.484E-03    9.34       4.1  T
   3    -50.7647407 -0.578581E-08  0.552E-04    9.34      35.5  T
   4    -50.7647407 -0.658801E-09  0.177E-04    9.34     111.0  T
speedup  1.00
cpu  time for SCC    0.00 s
wall time for SCC    0.00 s
speedup  1.00
cpu  time for grad    0.01 s
wall time for grad    0.01 s
 E :    -50.47416976  G :  0.000256    pred/act E change: -0.167D-06 -0.203D-06
Maxdispl :   0.0018   ||displ|| :   0.0052   Lambda : -0.160D-06
Largest |displ|/coords:  0.0018 (   8)  0.0016 (   5)  0.0013 (  12)
................................................................................
.............................. CYCLE  171 ......................................
................................................................................
   1    -50.7647623 -0.507648E+02  0.407E-03    9.34       0.0  T
   2    -50.7647623 -0.221115E-08  0.306E-03    9.34       6.4  T
   3    -50.7647624 -0.226144E-08  0.334E-04    9.34      58.7  T
   4    -50.7647624 -0.208111E-09  0.111E-04    9.34     176.8  T
speedup  0.98
cpu  time for SCC    0.00 s
wall time for SCC    0.00 s
speedup  1.00
cpu  time for grad    0.01 s
wall time for grad    0.01 s
 E :    -50.47416989  G :  0.000220    pred/act E change: -0.158D-06 -0.133D-06
Maxdispl :   0.0037   ||displ|| :   0.0092   Lambda : -0.274D-06
Largest |displ|/coords:  0.0037 (   5)  0.0033 (   8)  0.0025 (   7)
................................................................................
.............................. CYCLE  172 ......................................
................................................................................
   1    -50.7647822 -0.507648E+02  0.683E-03    9.34       0.0  T
   2    -50.7647822 -0.634056E-08  0.511E-03    9.34       3.8  T
   3    -50.7647822 -0.676000E-08  0.605E-04    9.34      32.4  T
   4    -50.7647822 -0.540936E-09  0.212E-04    9.34      92.3  T
speedup  1.00
cpu  time for SCC    0.00 s
wall time for SCC    0.00 s
speedup  1.01
cpu  time for grad    0.01 s
wall time for grad    0.01 s
 E :    -50.47417008  G :  0.000172    pred/act E change: -0.800D-07 -0.193D-06
Maxdispl :   0.0033   ||displ|| :   0.0072   Lambda : -0.169D-06
Largest |displ|/coords:  0.0033 (   5)  0.0029 (   1)  0.0023 (   8)
................................................................................
.............................. CYCLE  173 ......................................
................................................................................
   1    -50.7647825 -0.507648E+02  0.462E-03    9.34       0.0  T
   2    -50.7647825 -0.327155E-08  0.345E-03    9.34       5.7  T
   3    -50.7647825 -0.344065E-08  0.453E-04    9.34      43.3  T
   4    -50.7647825 -0.284864E-09  0.169E-04    9.34     115.9  T
speedup  0.98
cpu  time for SCC    0.00 s
wall time for SCC    0.00 s
speedup  1.00
cpu  time for grad    0.01 s
wall time for grad    0.01 s
 E :    -50.47417021  G :  0.000160    pred/act E change: -0.137D-06 -0.129D-06
Maxdispl :   0.0038   ||displ|| :   0.0083   Lambda : -0.156D-06
Largest |displ|/coords:  0.0038 (   1)  0.0035 (   5)  0.0030 (   6)
................................................................................
.............................. CYCLE  174 ......................................
................................................................................
   1    -50.7647709 -0.507648E+02  0.508E-03    9.34       0.0  T
   2    -50.7647709 -0.365567E-08  0.379E-03    9.34       5.2  T
   3    -50.7647709 -0.437922E-08  0.497E-04    9.34      39.5  T
   4    -50.7647709 -0.231395E-09  0.141E-04    9.34     138.9  T
speedup  1.00
cpu  time for SCC    0.00 s
wall time for SCC    0.00 s
speedup  0.98
cpu  time for grad    0.01 s
wall time for grad    0.01 s
 E :    -50.47417032  G :  0.000172    pred/act E change: -0.843D-07 -0.113D-06
Maxdispl :   0.0025   ||displ|| :   0.0051   Lambda : -0.940D-07
Largest |displ|/coords:  0.0025 (   6)  0.0020 (   1)  0.0012 (   8)
................................................................................
.............................. CYCLE  175 ......................................
................................................................................
   1    -50.7647561 -0.507648E+02  0.362E-03    9.34       0.0  T
   2    -50.7647561 -0.167218E-08  0.271E-03    9.34       7.2  T
   3    -50.7647561 -0.198654E-08  0.319E-04    9.34      61.4  T
   4    -50.7647561 -0.112365E-09  0.106E-04    9.34     185.6  T
speedup  1.00
cpu  time for SCC    0.00 s
wall time for SCC    0.00 s
speedup  1.00
cpu  time for grad    0.01 s
wall time for grad    0.01 s
 E :    -50.47417039  G :  0.000160    pred/act E change: -0.781D-07 -0.649D-07
Maxdispl :   0.0025   ||displ|| :   0.0053   Lambda : -0.814D-07
Largest |displ|/coords:  0.0025 (   6)  0.0017 (   1)  0.0016 (   4)

   *** GEOMETRY OPTIMIZATION CONVERGED AFTER 175 ITERATIONS ***

------------------------------------------------------------------------
 total energy gain (kcal):     -0.7546
------------------------------------------------------------------------
================
 final structure:
================
$coord
       -2.24954018275860       -1.81440935998769        2.44129794751614      S 
       -3.42204836326296        0.56989924891576        1.76566633294046      O 
       -2.40329495227947       -3.65378276330072        0.40386761951721      O 
        0.29689997786008       -1.48332210932881        3.41490618709524      O 
       -3.82976795785924       -2.98943526985644        4.69413545034385      O 
       -5.08949298455590       -3.91529804119403        3.80855808512595      H 
        3.42887686810311        2.26105033388214        2.60844571198218      O 
        4.50711884220666        2.42551331224549        4.05386195562045      H 
       -3.81861879264589       -0.64706953949529       -3.24123241593567      O 
       -3.28209961187181       -2.03534743442058       -2.12886842681915      H 
       -4.71030918047738        0.45665341243496       -2.09713257781015      H 
        4.34970499705809        0.02816783883675       -2.04751901853545      O 
        4.47800748547458        0.95514261770154       -0.46628074644402      H 
        3.95897214947237       -1.71793166664898       -1.53388372721685      H 
        2.70781362494677       -4.28608183540604       -0.02459702699818      O 
        2.24690617689922        0.87256883385967        3.00305836454406      H 
        2.10226959688616       -3.45189768804252        1.50150845350513      H 
        1.18466781228398       -4.95513326033462       -0.76212572894937      H 
       -0.70179587898335        4.60957143698061        0.50881591375804      O 
        0.85970014990585        4.29985749365462        1.42251459983375      H 
       -0.12254961763863        3.47179451704596       -2.20039531597375      H 
       -1.88030283998829        3.32414297113444        1.13946912996095      H 
        0.25946901449280        2.24082772992991       -3.75134765540028      N 
        1.95969247125575        1.25204441067692       -3.28427971577131      H 
        0.45127877776025        3.20839372625998       -5.39296431474537      H 
       -1.28155758247326        0.97408112255556       -3.83547908140069      H 
$end
 
 Bond Distances (Angstroems)
 ---------------------------
S1-O2=1.4508         S1-O3=1.4548         S1-O4=1.4533         S1-O5=1.5834         O2-S1=1.4508         O3-S1=1.4548         
O4-S1=1.4533         O5-S1=1.5834         O5-H6=0.9508         H6-O5=0.9508         O7-H8=0.9582         O7-H16=0.9873        
H8-O7=0.9582         O9-H10=0.9833        O9-H11=0.9645        H10-O9=0.9833        H11-O9=0.9645        O12-H13=0.9723       
O12-H14=0.9851       H13-O12=0.9723       H14-O12=0.9851       O15-H17=0.9745       O15-H18=0.9630       H16-O7=0.9873        
H17-O15=0.9745       H18-O15=0.9630       O19-H20=0.9713       O19-H22=0.9813       H20-O19=0.9713       H21-N23=1.0671       
H22-O19=0.9813       N23-H21=1.0671       N23-H24=1.0698       N23-H25=1.0135       N23-H26=1.0566       H24-N23=1.0698       
H25-N23=1.0135       H26-N23=1.0566       
 N  H  Rav=1.0517 sigma=0.0226  Rmin=1.0135  Rmax=1.0698     4
 O  H  Rav=0.9720 sigma=0.0113  Rmin=0.9508  Rmax=0.9873    11
 S  O  Rav=1.4856 sigma=0.0565  Rmin=1.4508  Rmax=1.5834     4
 
 selected bond angles (degree)
 --------------------
O3-S1-O2=112.04                O4-S1-O2=112.28                O4-S1-O3=113.28                O5-S1-O2=107.53                
O5-S1-O3=105.41                O5-S1-O4=105.67                H6-O5-S1=101.63                H16-O7-H8=106.02               
H11-O9-H10=102.59              
 
 selected dihedral angles (degree)
 ---------------------------------
H6-O5-S1-O2= 87.92            H6-O5-S1-O3=328.23            H6-O5-S1-O4=208.02            
 
 CMA Distance (Angstroems)
 ---------------------------
R(CMA):  2.8814

========================================================================
 FINAL SINGLEPOINT CALCULATION ON OPTIMIZED GEOMETRY
========================================================================

 Ncao       : 65
 Nao        : 64
 Nshell     : 38
 Nel        : 80
 T(el)      :   300.0
 intcut     :    25.0
 scfconv/Eh :  0.100E-05
   qconv/e  :  0.100E-03
 intneglect :  0.100E-07
 broydamp   :      0.250
 iter      E             dE          RMSdq      gap      omega  full diag
   1    -50.7647561 -0.507648E+02  0.453E-05    9.34       0.0  T
   2    -50.7647561 -0.966338E-12  0.307E-05    9.34     638.7  T
   3    -50.7647561 -0.646594E-12  0.618E-06    9.34    3171.8  T
speedup  0.97
cpu  time for SCC    0.00 s
wall time for SCC    0.00 s

   *** convergence criteria satisfied after 3 iterations ***

          eigenvalues
 #    :          28         29         30         31         32         33         34         35
 occ. :        2.000      2.000      2.000      2.000      2.000      2.000      2.000      2.000
 eps  :       -13.763    -13.269    -12.572    -12.449    -12.376    -12.341    -12.230    -12.201
 #    :          36         37         38         39         40         41         42         43
 occ. :        2.000      2.000      2.000      2.000      2.000      0.000      0.000      0.000
 eps  :       -12.110    -12.080    -11.983    -11.895    -11.778     -2.438     -0.906     -0.542
 #    :          44         45         46         47         48         49         50         51
 occ. :        0.000      0.000      0.000      0.000      0.000      0.000      0.000      0.000
 eps  :         0.825      1.028      1.382      2.234      2.967      3.915      4.252      4.585


   #   Z            q   n(s)   n(p)   n(d)      C6AA      α(0)
   1  16 S      1.695  1.581  1.778  0.946    88.876    15.867
   2   8 O     -0.749  1.766  4.982  0.000    30.077     7.353
   3   8 O     -0.762  1.776  4.987  0.000    30.464     7.400
   4   8 O     -0.740  1.766  4.973  0.000    29.808     7.320
   5   8 O     -0.593  1.754  4.839  0.000    24.997     6.750
   6   1 H      0.344  0.656  0.000  0.000     0.592     1.204
   7   8 O     -0.625  1.744  4.881  0.000    25.803     6.856
   8   1 H      0.289  0.711  0.000  0.000     0.755     1.364
   9   8 O     -0.607  1.743  4.863  0.000    25.346     6.795
  10   1 H      0.323  0.677  0.000  0.000     0.655     1.271
  11   1 H      0.305  0.695  0.000  0.000     0.705     1.319
  12   8 O     -0.620  1.756  4.865  0.000    25.675     6.839
  13   1 H      0.318  0.682  0.000  0.000     0.668     1.284
  14   1 H      0.331  0.669  0.000  0.000     0.634     1.251
  15   8 O     -0.611  1.742  4.869  0.000    25.455     6.809
  16   1 H      0.336  0.664  0.000  0.000     0.623     1.240
  17   1 H      0.312  0.688  0.000  0.000     0.687     1.302
  18   1 H      0.301  0.699  0.000  0.000     0.719     1.332
  19   8 O     -0.614  1.752  4.862  0.000    25.515     6.818
  20   1 H      0.320  0.680  0.000  0.000     0.664     1.280
  21   1 H      0.287  0.713  0.000  0.000     0.752     1.358
  22   1 H      0.327  0.673  0.000  0.000     0.644     1.261
  23   7 N     -0.360  1.284  4.077  0.000    29.270     8.035
  24   1 H      0.290  0.710  0.000  0.000     0.743     1.351
  25   1 H      0.221  0.779  0.000  0.000     1.005     1.571
  26   1 H      0.280  0.720  0.000  0.000     0.776     1.380

 Mol. C6AA /au·bohr⁶  :       5451.661006
 Mol. C8AA /au·bohr⁸  :     117937.811180
 Mol. α(0) /au        :        106.609904

 
 Wiberg/Mayer (AO) data. WBOs > 0.1 written file <wbo>
 largest (>0.05) Wiberg bond orders for each atom
           total WBO             WBO to atom ...
     1  S   4.843    O    2 1.321    O    4 1.299    O    3 1.298    O    5 0.887
     2  O   1.708    S    1 1.321    O    4 0.111    O    3 0.111    O    5 0.074    H   22 0.053
     3  O   1.706    S    1 1.298    O    2 0.111    O    4 0.105    O    5 0.076    H   10 0.065
     4  O   1.741    S    1 1.299    O    2 0.111    O    3 0.105    H   16 0.068    O    5 0.061
     5  O   1.968    S    1 0.887    H    6 0.865    O    3 0.076    O    2 0.074    O    4 0.061
     6  H   0.881    O    5 0.865
     7  O   1.862    H    8 0.909    H   16 0.814
     8  H   0.916    O    7 0.909
     9  O   1.919    H   11 0.893    H   10 0.826    H   26 0.106    N   23 0.054
    10  H   0.895    O    9 0.826    O    3 0.065
    11  H   0.907    O    9 0.893
    12  O   1.934    H   13 0.861    H   14 0.822    H   24 0.133    N   23 0.064
    13  H   0.899    O   12 0.861
    14  H   0.890    O   12 0.822    O   15 0.066
    15  O   1.875    H   18 0.894    H   17 0.852    H   14 0.066
    16  H   0.887    O    7 0.814    O    4 0.068
    17  H   0.903    O   15 0.852
    18  H   0.910    O   15 0.894
    19  O   1.934    H   20 0.861    H   22 0.836    H   21 0.125    N   23 0.062
    20  H   0.898    O   19 0.861
    21  H   0.917    N   23 0.788    O   19 0.125
    22  H   0.893    O   19 0.836    O    2 0.053
    23  N   3.514    H   25 0.948    H   26 0.812    H   21 0.788    H   24 0.780    O   12 0.064    O   19 0.062    O    9 0.054
    24  H   0.916    N   23 0.780    O   12 0.133
    25  H   0.951    N   23 0.948
    26  H   0.922    N   23 0.812    O    9 0.106
 MOs/occ written to file <molden.input>
 
molecular dipole:
                 x           y           z       tot (Debye)
 q only:        0.277       1.200      -1.421
   full:       -0.253       0.640      -0.377       1.995
molecular quadrupole (traceless):
                xx          xy          yy          xz          yz          zz
 q only:       -1.281       6.938      -3.281       2.744      -5.367       4.562
  q+dip:       -0.670      10.329      -4.543       2.941      -6.325       5.213
   full:       -0.655      10.829      -4.667       2.950      -6.365       5.322

SCC energy    :     -50.7647561
rep           :       0.2901914
ES            :       0.2608609
AES           :      -0.0783639
AXC           :      -0.0088419
disp          :      -0.0196990
XB            :       0.0000000
fix           :       0.0000000
total E       :     -50.4741704
atomizationE  :       5.0044746     3140.36
(atE without considering molecular charge,
 total energy contains solvation terms)
H-L gap (eV)  :          9.3398
optimized geometry written to: xtbopt.xyz


------------------------------------------------------------------------
 * finished run on 2019/09/16 at 13:13:54.807     
------------------------------------------------------------------------
 total:
 * wall-time:     0 d,  0 h,  0 min,  5.205 sec
 *  cpu-time:     0 d,  0 h,  0 min,  5.174 sec
 * ratio c/w:     0.994 speedup
 SCF:
 * wall-time:     0 d,  0 h,  0 min,  0.509 sec
 *  cpu-time:     0 d,  0 h,  0 min,  0.506 sec
 * ratio c/w:     0.993 speedup
 ANC optimizer:
 * wall-time:     0 d,  0 h,  0 min,  4.642 sec
 *  cpu-time:     0 d,  0 h,  0 min,  4.616 sec
 * ratio c/w:     0.995 speedup

