      -----------------------------------------------------------      
     |                   =====================                   |     
     |                           x T B                           |     
     |                   =====================                   |     
     |                         S. Grimme                         |     
     |          Mulliken Center for Theoretical Chemistry        |     
     |                    University of Bonn                     |     
     |                 Version 6.0.1 (SAW181210)                 |     
      -----------------------------------------------------------      

   This program is distributed in the hope that it will be useful,
   but WITHOUT ANY WARRANTY; without even the implied warranty of
   MERCHANTABILITY or FITNESS FOR A PARTICULAR PURPOSE.
   
   FOR NON-COMMERCIAL, ACADEMIA USE ONLY.
   
   Cite this work as:
   S. Grimme, C. Bannwarth, P. Shushkov, J. Comput. Theory Chem., 2017,
   13, 1989-2009.
   C. Bannwarth, S. Ehlert and S. Grimme., ChemRxiv, 2018, preprint.
   http://doi.org/10.26434/chemrxiv.7246238.v1
   
   for sTDA-xTB:
   S. Grimme and C. Bannwarth, J. Chem. Phys., 2016, 145, 054103.
   
   in the mass-spec context:
   V. Asgeirsson, C. Bauer and S. Grimme, Chem. Sci., 2017, 8, 4879.
   
   if GBSA is used:
   P. Shushkov, F. März and S. Grimme, unpublished.
   
   for ANC optimizer:
   S. Grimme, unpublished.
   Rational Function algorithm used in ANCopt:
   F. Eckert, P. Pulay, H.-J. Werner, J. Comput. Chem., 1997, 18, 1473.
   
   with help from (in alphabetical order)
   C. Bannwarth, F. Bohle, G. Brandenburg, E. Caldeweyher, M. Checinski,
   S. Dohm, S. Ehlert, S. Ehrlich, F. März, H. Neugebauer, J. Pisarek,
   P. Pracht, P. Shushkov, and S. Spicher.
   
 * started run on 2019/09/16 at 13:13:54.902     
========================================================================
 # omp threads = 1
========================================================================
number of atoms            : 26
number of electrons        : 80
charge                     : 0
spin                       : .0
first test random number   : .4189

########################################################################
# WARNING! Please study the warnings concerning your input carefully
#  - XTBPATH is not set, using XTBHOME instead
#  - the use of '-opt' is discouraged, please use '--opt' next time
#  - the use of '-chrg' is discouraged, please use '--chrg' next time
#  - the use of '-uhf' is discouraged, please use '--uhf' next time
########################################################################

           ------------------------------------------------- 
          |                 G F N 2 - x T B                 |
          | Geometry, Frequencies, Noncovalent interactions |
          |            JCTC 2018 parametrisation            |
           ------------------------------------------------- 
      method parameters     
 k(s)        :  1.8500
 k(p)        :  2.2300
 k(d)        :  2.2300
 k(f)        :  2.0000
 kEN (H0ij)  : -2.0000
 D4 a1       :  0.5200
 D4 a2       :  5.0000
 D4 s6       :  1.0000
 D4 s8       :  2.7000
 D4 s9       :  5.0000
 alphaj      :  2.0000


            Z     q(EN)     CN     RAES       Cart. coordinates
     1  S   6.0    0.64    4.26    4.16    -0.50594    -5.11789     1.50214
     2  O   6.0   -0.32    1.24    1.80     1.11040    -4.32470    -0.66267
     3  O   6.0   -0.31    1.20    1.80     0.27599    -3.72108     3.81852
     4  O   6.0   -0.30    1.22    1.80    -3.20024    -4.54070     0.92271
     5  O   6.0   -0.25    2.08    1.84    -0.21397    -7.84721     1.92415
     6  H   1.0    0.15    1.21    1.47     1.52174    -8.21998     2.29755
     7  O   6.0   -0.39    1.72    1.81    -2.42864     2.08854    -2.47049
     8  H   1.0    0.17    0.95    1.42    -3.50828     2.81508    -3.80850
     9  O   6.0   -0.30    2.00    1.83     0.74569     5.30550    -1.20781
    10  H   1.0    0.14    0.97    1.43    -0.15764     6.84695    -0.85774
    11  H   1.0    0.18    1.13    1.45    -0.53135     4.09413    -1.67296
    12  O   6.0   -0.29    2.04    1.83    -1.72969     0.70346     5.15354
    13  H   1.0    0.18    1.05    1.44    -0.86934    -0.88209     4.90764
    14  H   1.0    0.15    0.97    1.43    -0.94717     1.45408     6.61602
    15  O   6.0   -0.23    2.92    2.58     1.24235    -0.37585    -3.56062
    16  H   1.0    0.16    1.07    1.44     1.25099    -1.99291    -2.62526
    17  H   1.0    0.16    1.21    1.47    -0.32221     0.59941    -3.25892
    18  H   1.0    0.12    1.07    1.44     2.77444     0.63778    -3.21894
    19  O   6.0   -0.22    2.92    2.59    -4.48014     0.18750     1.10855
    20  H   1.0    0.16    1.21    1.47    -3.77760     1.06855    -0.38143
    21  H   1.0    0.16    1.06    1.44    -4.45804    -1.66879     0.89943
    22  H   1.0    0.14    1.05    1.44    -3.64783     0.72206     2.69379
    23  N   5.0   -0.22    3.05    1.93     5.24862     2.57877    -2.26813
    24  H   1.0    0.10    0.99    1.43     6.44932     3.53455    -3.43254
    25  H   1.0    0.11    0.99    1.43     6.25786     2.20226    -0.67103
    26  H   1.0    0.12    1.03    1.43     3.90068     3.85258    -1.74703

  Z AO/shell   Hii/eV     exponent
  1     Wed Apr 25 08:07:45 CEST 2018   EN: 2.200 GM2: 0.406  GM3: 0.0800  RAES: 1.40
     1s    -10.707211    1.230000
  7     Wed Apr 25 08:07:45 CEST 2018   EN: 3.040 GM2: 0.461  GM3:-0.0640  RAES: 1.90
     2s    -16.686243    2.339881
     2p    -12.523956    2.014332
  8     Wed Apr 25 08:07:45 CEST 2018   EN: 3.440 GM2: 0.452  GM3:-0.0517  RAES: 1.80
     2s    -20.229985    2.439742
     2p    -15.503117    2.137023
 16     Tue Apr 24 11:44:34 CEST 2018   EN: 2.580 GM2: 0.340  GM3:-0.0502  RAES: 3.10
     3s    -20.029654    1.981333
     3p    -11.377694    2.025643
     3d     -0.420282    1.702555
 no old-style atom pair restraining (fixing) potential

molecular fragmentation (1/2 indicates fragments):
11111122222222222222222222
# atoms in fragment 1/2:     6    20
 fragment masses (1/2) :       97.07      108.11
CMA distance (Bohr)    :   7.156
constraining FC (au)   :  0.0500
           ------------------------------------------------- 
          |        Self-Consistent Charge Iterations        |
           ------------------------------------------------- 

 Ncao       : 65
 Nao        : 64
 Nshell     : 38
 Nel        : 80
 T(el)      :   300.0
 intcut     :    25.0
 scfconv/Eh :  0.100E-05
   qconv/e  :  0.100E-03
 intneglect :  0.100E-07
 broydamp   :      0.250
 iter      E             dE          RMSdq      gap      omega  full diag
   1    -50.5810051 -0.505810E+02  0.703E+00   10.21       0.0  T
   2    -50.6311977 -0.501926E-01  0.507E+00    9.67       1.0  T
   3    -50.6678553 -0.366576E-01  0.136E+00    8.02       1.0  T
   4    -50.6732781 -0.542276E-02  0.559E-01    8.40       1.0  T
   5    -50.6738685 -0.590475E-03  0.318E-01    8.40       1.0  T
   6    -50.6743253 -0.456795E-03  0.133E-01    8.48       1.0  T
   7    -50.6744205 -0.952264E-04  0.477E-02    8.46       1.0  T
   8    -50.6744308 -0.102179E-04  0.315E-02    8.46       1.0  T
   9    -50.6744375 -0.673414E-05  0.726E-03    8.47       2.7  T
  10    -50.6744378 -0.279901E-06  0.224E-03    8.48       8.8  T
  11    -50.6744378 -0.118356E-07  0.122E-03    8.47      16.1  T
  12    -50.6744378 -0.756328E-08  0.466E-04    8.47      42.1  T
  13    -50.6744378 -0.125505E-08  0.142E-04    8.47     138.5  T
speedup  1.01
cpu  time for SCC    0.02 s
wall time for SCC    0.02 s

   *** convergence criteria satisfied after 13 iterations ***

          eigenvalues
 #    :          28         29         30         31         32         33         34         35
 occ. :        2.000      2.000      2.000      2.000      2.000      2.000      2.000      2.000
 eps  :       -12.788    -12.760    -11.906    -11.830    -11.635    -11.455    -11.218    -11.164
 #    :          36         37         38         39         40         41         42         43
 occ. :        2.000      2.000      2.000      2.000      2.000      0.000      0.000      0.000
 eps  :       -11.022    -10.942    -10.748    -10.718    -10.263     -1.788     -0.117      0.018
 #    :          44         45         46         47         48         49         50         51
 occ. :        0.000      0.000      0.000      0.000      0.000      0.000      0.000      0.000
 eps  :         0.502      1.087      1.574      2.411      3.291      3.895      4.127      4.820


   #   Z            q   n(s)   n(p)   n(d)      C6AA      α(0)
   1  16 S      1.592  1.583  1.843  0.982    91.260    16.078
   2   8 O     -0.760  1.768  4.992  0.000    30.389     7.391
   3   8 O     -0.757  1.778  4.980  0.000    30.323     7.383
   4   8 O     -0.728  1.765  4.963  0.000    29.485     7.280
   5   8 O     -0.541  1.719  4.822  0.000    23.785     6.584
   6   1 H      0.359  0.641  0.000  0.000     0.560     1.171
   7   8 O     -0.841  1.830  5.011  0.000    32.772     7.679
   8   1 H      0.218  0.782  0.000  0.000     1.032     1.596
   9   8 O     -0.656  1.753  4.903  0.000    26.569     6.957
  10   1 H      0.259  0.741  0.000  0.000     0.858     1.455
  11   1 H      0.330  0.670  0.000  0.000     0.635     1.251
  12   8 O     -0.618  1.727  4.891  0.000    25.623     6.832
  13   1 H      0.336  0.664  0.000  0.000     0.621     1.238
  14   1 H      0.288  0.712  0.000  0.000     0.757     1.367
  15   8 O     -0.460  1.657  4.804  0.000    21.998     6.335
  16   1 H      0.398  0.602  0.000  0.000     0.488     1.098
  17   1 H      0.404  0.596  0.000  0.000     0.470     1.074
  18   1 H      0.383  0.617  0.000  0.000     0.518     1.131
  19   8 O     -0.457  1.656  4.801  0.000    21.933     6.325
  20   1 H      0.403  0.597  0.000  0.000     0.472     1.075
  21   1 H      0.398  0.602  0.000  0.000     0.488     1.097
  22   1 H      0.402  0.598  0.000  0.000     0.482     1.091
  23   7 N     -0.458  1.384  4.074  0.000    32.057     8.409
  24   1 H      0.147  0.853  0.000  0.000     1.425     1.870
  25   1 H      0.151  0.849  0.000  0.000     1.397     1.852
  26   1 H      0.210  0.790  0.000  0.000     1.059     1.612

 Mol. C6AA /au·bohr⁶  :       5512.360635
 Mol. C8AA /au·bohr⁸  :     119361.515425
 Mol. α(0) /au        :        107.227713

 
 Wiberg/Mayer (AO) data. WBOs > 0.1 written file <wbo>
 largest (>0.05) Wiberg bond orders for each atom
           total WBO             WBO to atom ...
     1  S   4.926    O    4 1.317    O    3 1.299    O    2 1.274    O    5 0.997
     2  O   1.687    S    1 1.274    O    4 0.112    O    3 0.112    H   16 0.088    O    5 0.070
     3  O   1.676    S    1 1.299    O    4 0.116    O    2 0.112    O    5 0.074    H   13 0.053
     4  O   1.719    S    1 1.317    O    3 0.116    O    2 0.112    H   21 0.080    O    5 0.053
     5  O   2.049    S    1 0.997    H    6 0.847    O    3 0.074    O    2 0.070    O    4 0.053
     6  H   0.871    O    5 0.847
     7  O   1.643    H    8 0.945    H   20 0.199    H   17 0.193    H   11 0.117    O   19 0.062    O   15 0.061    O    9 0.050
     8  H   0.953    O    7 0.945
     9  O   1.793    H   10 0.925    H   11 0.772    O    7 0.050
    10  H   0.933    O    9 0.925
    11  H   0.891    O    9 0.772    O    7 0.117
    12  O   1.851    H   14 0.903    H   13 0.830    H   22 0.067
    13  H   0.887    O   12 0.830    O    3 0.053
    14  H   0.917    O   12 0.903
    15  O   2.282    H   18 0.754    H   16 0.745    H   17 0.639    O    7 0.061
    16  H   0.842    O   15 0.745    O    2 0.088
    17  H   0.836    O   15 0.639    O    7 0.193
    18  H   0.854    O   15 0.754    N   23 0.092
    19  O   2.284    H   22 0.764    H   21 0.754    H   20 0.634    O    7 0.062
    20  H   0.837    O   19 0.634    O    7 0.199
    21  H   0.841    O   19 0.754    O    4 0.080
    22  H   0.839    O   19 0.764    O   12 0.067
    23  N   3.023    H   24 0.974    H   25 0.974    H   26 0.923    H   18 0.092
    24  H   0.979    N   23 0.974
    25  H   0.977    N   23 0.974
    26  H   0.956    N   23 0.923
 MOs/occ written to file <molden.input>
 
molecular dipole:
                 x           y           z       tot (Debye)
 q only:        0.652       1.059      -0.353
   full:        1.029       0.837       0.089       3.380
molecular quadrupole (traceless):
                xx          xy          yy          xz          yz          zz
 q only:        4.733      -8.159      -6.118      -2.370       2.070       1.385
  q+dip:        0.271      -8.322       1.970       2.007      -2.209      -2.242
   full:        0.243      -8.738       2.439       2.253      -2.317      -2.682

SCC energy    :     -50.6744378
rep           :       0.2895124
ES            :       0.2889645
AES           :      -0.0680691
AXC           :      -0.0073895
disp          :      -0.0161919
XB            :       0.0000000
fix           :       0.0000000
total E       :     -50.3845686
atomizationE  :       4.9148728     3084.13
(atE without considering molecular charge,
 total energy contains solvation terms)
H-L gap (eV)  :          8.4747
           ------------------------------------------------- 
          |                 ===============                 |
          |                   A N C O P T                   |
          |                 ===============                 |
          |          Approximate Normal Coordinate          |
          |           Rational Function Optimizer           |
           ------------------------------------------------- 
dumping coords to <xtbopt.coord> and <xtbopt.log>
 optlevel               2
 Maxcycle             520
 Maxmicro              25
 Econv         1.000000000000000E-007
 Gconv         2.000000000000000E-004
 Maxdispl       1.00000000000000     
 Hlow          5.000000000000000E-003
 S6             20.0000000000000     
 Nvar               72

generating ANC from model Hessian ...
 Shifting diagonal of input Hessian by   5.174371962693313E-003
 Lowest  eigenvalues of input Hessian
    0.005000   -0.000000   -0.000000    0.000000    0.000000    0.000000
    0.000000    0.005176    0.005340    0.005541    0.005957    0.006159
    0.006359    0.006700    0.007071    0.007146    0.007769    0.009096
 Highest eigenvalues
    1.560838    1.588621    1.589923    3.143894    3.219043    3.319848
 
cpu  time for ANC gen    0.01 s
wall time for ANC gen    0.01 s
................................................................................
.............................. CYCLE    1 ......................................
................................................................................
   1    -50.6744378 -0.506744E+02  0.738E-05    8.47       0.0  T
   2    -50.6744378 -0.106937E-10  0.579E-05    8.47     338.6  T
   3    -50.6744378 -0.121219E-10  0.285E-05    8.47     689.2  T
speedup  0.97
cpu  time for SCC    0.00 s
wall time for SCC    0.00 s
speedup  0.96
cpu  time for grad    0.01 s
wall time for grad    0.01 s
 E :    -50.38456860  G :  0.201913    pred/act E change:  0.000D+00  0.426D-07
Maxdispl :   0.1061   ||displ|| :   0.2914   Lambda : -0.289D-01
Largest |displ|/coords:  0.1061 (  54)  0.1034 (  33)  0.0925 (  22)
................................................................................
.............................. CYCLE    2 ......................................
................................................................................
   1    -50.6826239 -0.506826E+02  0.253E-01    8.55       0.0  T
   2    -50.6827747 -0.150778E-03  0.193E-01    8.60       1.0  T
   3    -50.6828493 -0.745975E-04  0.725E-02    8.67       1.0  T
   4    -50.6828584 -0.914612E-05  0.193E-02    8.66       1.0  T
   5    -50.6828590 -0.614253E-06  0.453E-03    8.66       4.3  T
   6    -50.6828591 -0.357174E-07  0.268E-03    8.66       7.3  T
speedup  1.02
cpu  time for SCC    0.01 s
wall time for SCC    0.01 s
speedup  1.03
cpu  time for grad    0.01 s
wall time for grad    0.01 s
 E :    -50.40717696  G :  0.122982    pred/act E change:  0.000D+00 -0.226D-01
Maxdispl :   0.1279   ||displ|| :   0.3342   Lambda : -0.142D-01
Largest |displ|/coords:  0.1279 (  17)  0.1089 (  22)  0.1007 (  25)
................................................................................
.............................. CYCLE    3 ......................................
................................................................................
   1    -50.6868705 -0.506869E+02  0.253E-01    8.71       0.0  T
   2    -50.6870643 -0.193867E-03  0.188E-01    8.77       1.0  T
   3    -50.6871483 -0.839481E-04  0.735E-02    8.85       1.0  T
   4    -50.6871576 -0.934594E-05  0.174E-02    8.84       1.1  T
   5    -50.6871581 -0.442565E-06  0.436E-03    8.84       4.5  T
   6    -50.6871581 -0.320256E-07  0.252E-03    8.84       7.8  T
speedup  1.03
cpu  time for SCC    0.01 s
wall time for SCC    0.01 s
speedup  1.04
cpu  time for grad    0.01 s
wall time for grad    0.01 s
 E :    -50.41861217  G :  0.077899    pred/act E change: -0.157D-01 -0.114D-01
Maxdispl :   0.1501   ||displ|| :   0.3500   Lambda : -0.748D-02
Largest |displ|/coords:  0.1501 (  17)  0.1456 (  11)  0.1210 (  22)
................................................................................
.............................. CYCLE    4 ......................................
................................................................................
   1    -50.6887689 -0.506888E+02  0.245E-01    8.86       0.0  T
   2    -50.6889532 -0.184303E-03  0.179E-01    8.92       1.0  T
   3    -50.6890304 -0.772702E-04  0.668E-02    9.01       1.0  T
   4    -50.6890397 -0.931012E-05  0.160E-02    8.99       1.2  T
   5    -50.6890401 -0.394962E-06  0.440E-03    8.99       4.5  T
   6    -50.6890402 -0.298342E-07  0.236E-03    8.99       8.3  T
speedup  1.00
cpu  time for SCC    0.01 s
wall time for SCC    0.01 s
speedup  1.02
cpu  time for grad    0.01 s
wall time for grad    0.01 s
 E :    -50.42458932  G :  0.049859    pred/act E change: -0.792D-02 -0.598D-02
Maxdispl :   0.1956   ||displ|| :   0.4665   Lambda : -0.711D-02
Largest |displ|/coords:  0.1956 (  17)  0.1826 (   9)  0.1205 (  14)
................................................................................
.............................. CYCLE    5 ......................................
................................................................................
   1    -50.6909034 -0.506909E+02  0.359E-01    9.00       0.0  T
   2    -50.6913720 -0.468625E-03  0.258E-01    9.06       1.0  T
   3    -50.6915636 -0.191571E-03  0.103E-01    9.12       1.0  T
   4    -50.6915817 -0.181345E-04  0.251E-02    9.13       1.0  T
   5    -50.6915830 -0.123384E-05  0.725E-03    9.14       2.7  T
   6    -50.6915831 -0.874759E-07  0.366E-03    9.14       5.4  T
   7    -50.6915831 -0.240895E-07  0.135E-03    9.14      14.5  T
speedup  1.03
cpu  time for SCC    0.01 s
wall time for SCC    0.01 s
speedup  0.97
cpu  time for grad    0.01 s
wall time for grad    0.01 s
 E :    -50.42896928  G :  0.027667    pred/act E change: -0.420D-02 -0.438D-02
Maxdispl :   0.3321   ||displ|| :   0.5092   Lambda : -0.401D-02
Largest |displ|/coords:  0.3321 (  11)  0.1550 (   8)  0.1254 (  17)
................................................................................
.............................. CYCLE    6 ......................................
................................................................................
   1    -50.6899089 -0.506899E+02  0.524E-01    8.98       0.0  T
   2    -50.6901380 -0.229100E-03  0.395E-01    9.01       1.0  T
   3    -50.6902356 -0.975836E-04  0.769E-02    9.10       1.0  T
   4    -50.6902748 -0.392095E-04  0.230E-02    9.09       1.0  T
   5    -50.6902758 -0.100409E-05  0.668E-03    9.09       2.9  T
   6    -50.6902759 -0.485004E-07  0.343E-03    9.09       5.7  T
   7    -50.6902759 -0.154398E-07  0.106E-03    9.09      18.4  T
speedup  1.04
cpu  time for SCC    0.01 s
wall time for SCC    0.01 s
speedup  1.03
cpu  time for grad    0.01 s
wall time for grad    0.01 s
 E :    -50.42961691  G :  0.041652    pred/act E change: -0.433D-02 -0.648D-03
Maxdispl :   0.2591   ||displ|| :   0.3531   Lambda : -0.430D-02
Largest |displ|/coords:  0.2591 (   9)  0.0985 (   5)  0.0897 (  10)
................................................................................
.............................. CYCLE    7 ......................................
................................................................................
   1    -50.6970546 -0.506971E+02  0.404E-01    9.05       0.0  T
   2    -50.6971159 -0.613394E-04  0.307E-01    9.06       1.0  T
   3    -50.6971595 -0.435434E-04  0.393E-02    9.09       1.0  T
   4    -50.6971692 -0.977820E-05  0.110E-02    9.09       1.8  T
   5    -50.6971695 -0.282061E-06  0.437E-03    9.09       4.5  T
   6    -50.6971695 -0.588212E-08  0.234E-03    9.09       8.4  T
speedup  1.03
cpu  time for SCC    0.01 s
wall time for SCC    0.01 s
speedup  1.03
cpu  time for grad    0.01 s
wall time for grad    0.01 s
 E :    -50.43161265  G :  0.029671    pred/act E change: -0.253D-02 -0.200D-02
Maxdispl :   0.0722   ||displ|| :   0.2212   Lambda : -0.147D-02
Largest |displ|/coords:  0.0722 (   4)  0.0699 (  17)  0.0662 (  14)
................................................................................
.............................. CYCLE    8 ......................................
................................................................................
   1    -50.7012697 -0.507013E+02  0.157E-01    9.11       0.0  T
   2    -50.7012820 -0.122695E-04  0.118E-01    9.11       1.0  T
   3    -50.7012878 -0.578265E-05  0.211E-02    9.10       1.0  T
   4    -50.7012898 -0.204357E-05  0.716E-03    9.10       2.7  T
   5    -50.7012899 -0.641609E-07  0.189E-03    9.10      10.4  T
   6    -50.7012899 -0.401213E-08  0.101E-03    9.10      19.4  T
speedup  1.03
cpu  time for SCC    0.01 s
wall time for SCC    0.01 s
speedup  1.02
cpu  time for grad    0.01 s
wall time for grad    0.01 s
 E :    -50.43243485  G :  0.024855    pred/act E change: -0.242D-02 -0.822D-03
Maxdispl :   0.1334   ||displ|| :   0.3509   Lambda : -0.177D-02
Largest |displ|/coords:  0.1334 (  10)  0.1273 (   4)  0.1154 (  12)
................................................................................
.............................. CYCLE    9 ......................................
................................................................................
   1    -50.7018461 -0.507018E+02  0.240E-01    9.08       0.0  T
   2    -50.7018888 -0.426958E-04  0.180E-01    9.07       1.0  T
   3    -50.7019090 -0.202107E-04  0.386E-02    9.06       1.0  T
   4    -50.7019153 -0.625250E-05  0.116E-02    9.06       1.7  T
   5    -50.7019156 -0.254498E-06  0.344E-03    9.06       5.7  T
   6    -50.7019156 -0.119614E-07  0.191E-03    9.06      10.3  T
speedup  0.86
cpu  time for SCC    0.01 s
wall time for SCC    0.01 s
speedup  0.96
cpu  time for grad    0.01 s
wall time for grad    0.01 s
 E :    -50.43369542  G :  0.026402    pred/act E change: -0.770D-03 -0.126D-02
Maxdispl :   0.2293   ||displ|| :   0.5813   Lambda : -0.299D-02
Largest |displ|/coords:  0.2293 (  11)  0.2125 (   5)  0.1799 (   7)
................................................................................
.............................. CYCLE   10 ......................................
................................................................................
   1    -50.6946251 -0.506946E+02  0.597E-01    9.07       0.0  T
   2    -50.6948434 -0.218268E-03  0.447E-01    9.06       1.0  T
   3    -50.6949590 -0.115651E-03  0.834E-02    9.04       1.0  T
   4    -50.6949923 -0.332593E-04  0.230E-02    9.05       1.0  T
   5    -50.6949932 -0.935158E-06  0.799E-03    9.05       2.5  T
   6    -50.6949933 -0.475574E-07  0.422E-03    9.05       4.6  T
   7    -50.6949933 -0.302611E-07  0.120E-03    9.05      16.4  T
speedup  1.03
cpu  time for SCC    0.01 s
wall time for SCC    0.01 s
speedup  1.03
cpu  time for grad    0.01 s
wall time for grad    0.01 s
 E :    -50.43277646  G :  0.069376    pred/act E change: -0.996D-03  0.919D-03
Maxdispl :   0.2243   ||displ|| :   0.4716   Lambda : -0.151D-01
Largest |displ|/coords:  0.2243 (   7)  0.2146 (   6)  0.2134 (   5)
................................................................................
.............................. CYCLE   11 ......................................
................................................................................
   1    -50.7202141 -0.507202E+02  0.748E-01    9.16       0.0  T
   2    -50.7205441 -0.330002E-03  0.563E-01    9.16       1.0  T
   3    -50.7207670 -0.222928E-03  0.102E-01    9.16       1.0  T
   4    -50.7208118 -0.448473E-04  0.173E-02    9.16       1.1  T
   5    -50.7208124 -0.509298E-06  0.107E-02    9.16       1.8  T
   6    -50.7208124 -0.624131E-07  0.414E-03    9.16       4.7  T
   7    -50.7208125 -0.389866E-07  0.877E-04    9.16      22.4  T
speedup  1.03
cpu  time for SCC    0.01 s
wall time for SCC    0.01 s
speedup  0.96
cpu  time for grad    0.01 s
wall time for grad    0.01 s
 E :    -50.43312826  G :  0.079878    pred/act E change: -0.200D-02 -0.352D-03
Maxdispl :   0.1245   ||displ|| :   0.2958   Lambda : -0.743D-02
Largest |displ|/coords:  0.1245 (   6)  0.1195 (  12)  0.0932 (   4)
................................................................................
.............................. CYCLE   12 ......................................
................................................................................
   1    -50.7019889 -0.507020E+02  0.417E-01    9.22       0.0  T
   2    -50.7020794 -0.904996E-04  0.314E-01    9.23       1.0  T
   3    -50.7021453 -0.659321E-04  0.535E-02    9.24       1.0  T
   4    -50.7021566 -0.112791E-04  0.145E-02    9.23       1.4  T
   5    -50.7021570 -0.377308E-06  0.527E-03    9.23       3.7  T
   6    -50.7021570 -0.305918E-07  0.269E-03    9.23       7.3  T
speedup  1.03
cpu  time for SCC    0.01 s
wall time for SCC    0.01 s
speedup  1.03
cpu  time for grad    0.01 s
wall time for grad    0.01 s
 E :    -50.43592326  G :  0.043552    pred/act E change: -0.920D-02 -0.279D-02
Maxdispl :   0.1104   ||displ|| :   0.3213   Lambda : -0.437D-02
Largest |displ|/coords:  0.1104 (   1)  0.1099 (  11)  0.0902 (  19)
................................................................................
.............................. CYCLE   13 ......................................
................................................................................
   1    -50.7096382 -0.507096E+02  0.300E-01    9.24       0.0  T
   2    -50.7097364 -0.982735E-04  0.223E-01    9.23       1.0  T
   3    -50.7098000 -0.635898E-04  0.557E-02    9.22       1.0  T
   4    -50.7098111 -0.110639E-04  0.163E-02    9.23       1.2  T
   5    -50.7098115 -0.369300E-06  0.571E-03    9.22       3.4  T
   6    -50.7098115 -0.237131E-07  0.274E-03    9.23       7.1  T
speedup  1.02
cpu  time for SCC    0.01 s
wall time for SCC    0.01 s
speedup  1.03
cpu  time for grad    0.01 s
wall time for grad    0.01 s
 E :    -50.43646062  G :  0.056058    pred/act E change: -0.404D-02 -0.537D-03
Maxdispl :   0.1027   ||displ|| :   0.3016   Lambda : -0.555D-02
Largest |displ|/coords:  0.1027 (  23)  0.0892 (  22)  0.0869 (  18)
................................................................................
.............................. CYCLE   14 ......................................
................................................................................
   1    -50.7150753 -0.507151E+02  0.329E-01    9.22       0.0  T
   2    -50.7152039 -0.128644E-03  0.242E-01    9.22       1.0  T
   3    -50.7152746 -0.707058E-04  0.607E-02    9.22       1.0  T
   4    -50.7152889 -0.143114E-04  0.124E-02    9.22       1.6  T
   5    -50.7152891 -0.199430E-06  0.580E-03    9.22       3.4  T
   6    -50.7152892 -0.507185E-07  0.251E-03    9.22       7.8  T
speedup  1.00
cpu  time for SCC    0.01 s
wall time for SCC    0.01 s
speedup  1.02
cpu  time for grad    0.01 s
wall time for grad    0.01 s
 E :    -50.43730283  G :  0.042930    pred/act E change: -0.241D-02 -0.842D-03
Maxdispl :   0.0664   ||displ|| :   0.1840   Lambda : -0.264D-02
Largest |displ|/coords:  0.0664 (  13)  0.0640 (  19)  0.0575 (  15)
................................................................................
.............................. CYCLE   15 ......................................
................................................................................
   1    -50.7137558 -0.507138E+02  0.179E-01    9.27       0.0  T
   2    -50.7137889 -0.331017E-04  0.132E-01    9.27       1.0  T
   3    -50.7138068 -0.178713E-04  0.315E-02    9.26       1.0  T
   4    -50.7138107 -0.388941E-05  0.841E-03    9.27       2.3  T
   5    -50.7138108 -0.105688E-06  0.316E-03    9.26       6.2  T
   6    -50.7138108 -0.847733E-08  0.152E-03    9.26      12.9  T
speedup  1.02
cpu  time for SCC    0.01 s
wall time for SCC    0.01 s
speedup  0.96
cpu  time for grad    0.01 s
wall time for grad    0.01 s
 E :    -50.43894133  G :  0.022655    pred/act E change: -0.303D-02 -0.164D-02
Maxdispl :   0.1156   ||displ|| :   0.2730   Lambda : -0.156D-02
Largest |displ|/coords:  0.1156 (  15)  0.0994 (   2)  0.0802 (   6)
................................................................................
.............................. CYCLE   16 ......................................
................................................................................
   1    -50.7174003 -0.507174E+02  0.216E-01    9.30       0.0  T
   2    -50.7174279 -0.276027E-04  0.162E-01    9.30       1.0  T
   3    -50.7174466 -0.186971E-04  0.300E-02    9.30       1.0  T
   4    -50.7174503 -0.377228E-05  0.831E-03    9.30       2.4  T
   5    -50.7174504 -0.889021E-07  0.344E-03    9.30       5.7  T
   6    -50.7174504 -0.941971E-08  0.169E-03    9.30      11.6  T
speedup  0.86
cpu  time for SCC    0.00 s
wall time for SCC    0.01 s
speedup  0.96
cpu  time for grad    0.01 s
wall time for grad    0.01 s
 E :    -50.43960921  G :  0.032981    pred/act E change: -0.137D-02 -0.668D-03
Maxdispl :   0.1278   ||displ|| :   0.2425   Lambda : -0.177D-02
Largest |displ|/coords:  0.1278 (   2)  0.0748 (  19)  0.0706 (  21)
................................................................................
.............................. CYCLE   17 ......................................
................................................................................
   1    -50.7208100 -0.507208E+02  0.136E-01    9.37       0.0  T
   2    -50.7208274 -0.173817E-04  0.101E-01    9.37       1.0  T
   3    -50.7208387 -0.113388E-04  0.238E-02    9.37       1.0  T
   4    -50.7208408 -0.206434E-05  0.745E-03    9.37       2.6  T
   5    -50.7208409 -0.856173E-07  0.263E-03    9.37       7.5  T
   6    -50.7208409 -0.931347E-08  0.129E-03    9.37      15.1  T
speedup  1.02
cpu  time for SCC    0.01 s
wall time for SCC    0.01 s
speedup  1.02
cpu  time for grad    0.01 s
wall time for grad    0.01 s
 E :    -50.44071271  G :  0.023294    pred/act E change: -0.837D-03 -0.110D-02
Maxdispl :   0.1493   ||displ|| :   0.3302   Lambda : -0.157D-02
Largest |displ|/coords:  0.1493 (   8)  0.1405 (   2)  0.1195 (   4)
................................................................................
.............................. CYCLE   18 ......................................
................................................................................
   1    -50.7224113 -0.507224E+02  0.230E-01    9.36       0.0  T
   2    -50.7224309 -0.196773E-04  0.173E-01    9.37       1.0  T
   3    -50.7224434 -0.124492E-04  0.249E-02    9.38       1.0  T
   4    -50.7224463 -0.294578E-05  0.100E-02    9.38       2.0  T
   5    -50.7224465 -0.139755E-06  0.281E-03    9.38       7.0  T
   6    -50.7224465 -0.612165E-08  0.155E-03    9.38      12.7  T
speedup  1.02
cpu  time for SCC    0.01 s
wall time for SCC    0.01 s
speedup  1.02
cpu  time for grad    0.01 s
wall time for grad    0.01 s
 E :    -50.44122851  G :  0.022372    pred/act E change: -0.935D-03 -0.516D-03
Maxdispl :   0.1004   ||displ|| :   0.2050   Lambda : -0.121D-02
Largest |displ|/coords:  0.1004 (   8)  0.0714 (  10)  0.0561 (   3)
................................................................................
.............................. CYCLE   19 ......................................
................................................................................
   1    -50.7262198 -0.507262E+02  0.169E-01    9.30       0.0  T
   2    -50.7262363 -0.164997E-04  0.126E-01    9.31       1.0  T
   3    -50.7262461 -0.986648E-05  0.227E-02    9.32       1.0  T
   4    -50.7262484 -0.222305E-05  0.832E-03    9.31       2.4  T
   5    -50.7262484 -0.865231E-07  0.247E-03    9.31       7.9  T
   6    -50.7262484 -0.709632E-08  0.137E-03    9.31      14.4  T
speedup  1.02
cpu  time for SCC    0.01 s
wall time for SCC    0.01 s
speedup  1.02
cpu  time for grad    0.01 s
wall time for grad    0.01 s
 E :    -50.44171288  G :  0.013765    pred/act E change: -0.870D-03 -0.484D-03
Maxdispl :   0.0617   ||displ|| :   0.1393   Lambda : -0.514D-03
Largest |displ|/coords:  0.0617 (   4)  0.0611 (   2)  0.0482 (   6)
................................................................................
.............................. CYCLE   20 ......................................
................................................................................
   1    -50.7225416 -0.507225E+02  0.133E-01    9.35       0.0  T
   2    -50.7225479 -0.630706E-05  0.994E-02    9.35       1.0  T
   3    -50.7225522 -0.431540E-05  0.143E-02    9.35       1.4  T
   4    -50.7225530 -0.820307E-06  0.382E-03    9.35       5.1  T
   5    -50.7225530 -0.210469E-07  0.165E-03    9.35      11.9  T
   6    -50.7225530 -0.252128E-08  0.792E-04    9.35      24.8  T
speedup  1.03
cpu  time for SCC    0.01 s
wall time for SCC    0.01 s
speedup  1.02
cpu  time for grad    0.01 s
wall time for grad    0.01 s
 E :    -50.44195610  G :  0.012108    pred/act E change: -0.628D-03 -0.243D-03
Maxdispl :   0.0949   ||displ|| :   0.1884   Lambda : -0.444D-03
Largest |displ|/coords:  0.0949 (  10)  0.0672 (   2)  0.0578 (   1)
................................................................................
.............................. CYCLE   21 ......................................
................................................................................
   1    -50.7220154 -0.507220E+02  0.101E-01    9.34       0.0  T
   2    -50.7220191 -0.375966E-05  0.753E-02    9.34       1.0  T
   3    -50.7220219 -0.274788E-05  0.116E-02    9.34       1.7  T
   4    -50.7220223 -0.424938E-06  0.340E-03    9.34       5.8  T
   5    -50.7220223 -0.201207E-07  0.141E-03    9.34      13.9  T
   6    -50.7220223 -0.242781E-08  0.690E-04    9.34      28.4  T
speedup  1.03
cpu  time for SCC    0.01 s
wall time for SCC    0.01 s
speedup  0.95
cpu  time for grad    0.01 s
wall time for grad    0.01 s
 E :    -50.44215992  G :  0.014951    pred/act E change: -0.262D-03 -0.204D-03
Maxdispl :   0.1324   ||displ|| :   0.2689   Lambda : -0.609D-03
Largest |displ|/coords:  0.1324 (   2)  0.0988 (   3)  0.0963 (   4)
................................................................................
.............................. CYCLE   22 ......................................
................................................................................
   1    -50.7217180 -0.507217E+02  0.172E-01    9.29       0.0  T
   2    -50.7217280 -0.996750E-05  0.129E-01    9.29       1.0  T
   3    -50.7217349 -0.693430E-05  0.198E-02    9.29       1.0  T
   4    -50.7217363 -0.139342E-05  0.450E-03    9.29       4.4  T
   5    -50.7217364 -0.290371E-07  0.229E-03    9.29       8.6  T
   6    -50.7217364 -0.587250E-08  0.843E-04    9.29      23.3  T
speedup  0.86
cpu  time for SCC    0.00 s
wall time for SCC    0.01 s
speedup  0.96
cpu  time for grad    0.01 s
wall time for grad    0.01 s
 E :    -50.44230262  G :  0.023518    pred/act E change: -0.230D-03 -0.143D-03
Maxdispl :   0.0903   ||displ|| :   0.1754   Lambda : -0.628D-03
Largest |displ|/coords:  0.0903 (  10)  0.0716 (   1)  0.0636 (   2)
................................................................................
.............................. CYCLE   23 ......................................
................................................................................
   1    -50.7237656 -0.507238E+02  0.935E-02    9.32       0.0  T
   2    -50.7237714 -0.587536E-05  0.686E-02    9.32       1.0  T
   3    -50.7237755 -0.403567E-05  0.129E-02    9.32       1.5  T
   4    -50.7237760 -0.580534E-06  0.307E-03    9.32       6.4  T
   5    -50.7237761 -0.117012E-07  0.151E-03    9.32      13.0  T
speedup  1.00
cpu  time for SCC    0.00 s
wall time for SCC    0.01 s
speedup  1.02
cpu  time for grad    0.01 s
wall time for grad    0.01 s
 E :    -50.44264325  G :  0.009164    pred/act E change: -0.326D-03 -0.341D-03
Maxdispl :   0.1257   ||displ|| :   0.2331   Lambda : -0.343D-03
Largest |displ|/coords:  0.1257 (   1)  0.1128 (   2)  0.0679 (  10)
................................................................................
.............................. CYCLE   24 ......................................
................................................................................
   1    -50.7222167 -0.507222E+02  0.131E-01    9.31       0.0  T
   2    -50.7222226 -0.584852E-05  0.982E-02    9.31       1.0  T
   3    -50.7222267 -0.416055E-05  0.147E-02    9.31       1.3  T
   4    -50.7222276 -0.851159E-06  0.368E-03    9.31       5.3  T
   5    -50.7222276 -0.198681E-07  0.155E-03    9.31      12.6  T
   6    -50.7222276 -0.244570E-08  0.724E-04    9.31      27.1  T
speedup  1.03
cpu  time for SCC    0.01 s
wall time for SCC    0.01 s
speedup  1.02
cpu  time for grad    0.01 s
wall time for grad    0.01 s
 E :    -50.44283265  G :  0.011471    pred/act E change: -0.324D-03 -0.189D-03
Maxdispl :   0.1710   ||displ|| :   0.3270   Lambda : -0.389D-03
Largest |displ|/coords:  0.1710 (   1)  0.1438 (   2)  0.1180 (   3)
................................................................................
.............................. CYCLE   25 ......................................
................................................................................
   1    -50.7226130 -0.507226E+02  0.172E-01    9.40       0.0  T
   2    -50.7226183 -0.527735E-05  0.130E-01    9.40       1.0  T
   3    -50.7226246 -0.629528E-05  0.120E-02    9.39       1.6  T
   4    -50.7226250 -0.334782E-06  0.377E-03    9.39       5.2  T
   5    -50.7226250 -0.158636E-07  0.178E-03    9.39      11.0  T
   6    -50.7226250 -0.674088E-08  0.561E-04    9.39      35.0  T
speedup  1.03
cpu  time for SCC    0.01 s
wall time for SCC    0.01 s
speedup  1.01
cpu  time for grad    0.01 s
wall time for grad    0.01 s
 E :    -50.44295508  G :  0.016149    pred/act E change: -0.181D-03 -0.122D-03
Maxdispl :   0.1342   ||displ|| :   0.2577   Lambda : -0.562D-03
Largest |displ|/coords:  0.1342 (   2)  0.1313 (   1)  0.0724 (  11)

generating ANC from model Hessian ...
 Shifting diagonal of input Hessian by   5.063016360094460E-003
 Lowest  eigenvalues of input Hessian
    0.005000   -0.000000   -0.000000   -0.000000   -0.000000    0.000000
    0.000000    0.005185    0.005343    0.005552    0.005907    0.006395
    0.006833    0.007154    0.007783    0.009917    0.011016    0.011406
 Highest eigenvalues
    1.392939    1.395577    1.414480    2.576387    3.412107    3.691352
 
cpu  time for ANC gen    0.02 s
wall time for ANC gen    0.02 s
................................................................................
.............................. CYCLE   26 ......................................
................................................................................
   1    -50.7233319 -0.507233E+02  0.139E-01    9.36       0.0  T
   2    -50.7233375 -0.562052E-05  0.104E-01    9.36       1.0  T
   3    -50.7233417 -0.415607E-05  0.141E-02    9.37       1.4  T
   4    -50.7233424 -0.756434E-06  0.460E-03    9.37       4.3  T
   5    -50.7233424 -0.250825E-07  0.166E-03    9.37      11.8  T
   6    -50.7233425 -0.402787E-08  0.777E-04    9.37      25.2  T
   7    -50.7233425 -0.111085E-08  0.211E-04    9.37      93.0  T
speedup  0.90
cpu  time for SCC    0.01 s
wall time for SCC    0.01 s
speedup  0.99
cpu  time for grad    0.01 s
wall time for grad    0.02 s
 E :    -50.44331726  G :  0.013240    pred/act E change:  0.000D+00 -0.362D-03
Maxdispl :   0.1055   ||displ|| :   0.2355   Lambda : -0.761D-03
Largest |displ|/coords:  0.1055 (   2)  0.0871 (  12)  0.0823 (   6)
................................................................................
.............................. CYCLE   27 ......................................
................................................................................
   1    -50.7242226 -0.507242E+02  0.256E-01    9.38       0.0  T
   2    -50.7242314 -0.879000E-05  0.194E-01    9.38       1.0  T
   3    -50.7242404 -0.900557E-05  0.141E-02    9.38       1.4  T
   4    -50.7242412 -0.806895E-06  0.474E-03    9.38       4.1  T
   5    -50.7242412 -0.188596E-07  0.206E-03    9.38       9.5  T
   6    -50.7242412 -0.137351E-08  0.804E-04    9.38      24.4  T
speedup  1.03
cpu  time for SCC    0.01 s
wall time for SCC    0.01 s
speedup  1.01
cpu  time for grad    0.01 s
wall time for grad    0.01 s
 E :    -50.44387293  G :  0.011309    pred/act E change:  0.000D+00 -0.556D-03
Maxdispl :   0.2082   ||displ|| :   0.3865   Lambda : -0.838D-03
Largest |displ|/coords:  0.2082 (   2)  0.1346 (  14)  0.1316 (   6)
................................................................................
.............................. CYCLE   28 ......................................
................................................................................
   1    -50.7231865 -0.507232E+02  0.307E-01    9.40       0.0  T
   2    -50.7231978 -0.112463E-04  0.231E-01    9.40       1.0  T
   3    -50.7232070 -0.922910E-05  0.188E-02    9.40       1.0  T
   4    -50.7232085 -0.150373E-05  0.657E-03    9.40       3.0  T
   5    -50.7232086 -0.645477E-07  0.275E-03    9.40       7.1  T
   6    -50.7232086 -0.416696E-08  0.130E-03    9.40      15.0  T
speedup  1.03
cpu  time for SCC    0.01 s
wall time for SCC    0.01 s
speedup  1.02
cpu  time for grad    0.01 s
wall time for grad    0.01 s
 E :    -50.44441137  G :  0.015159    pred/act E change: -0.401D-03 -0.538D-03
Maxdispl :   0.2092   ||displ|| :   0.3265   Lambda : -0.657D-03
Largest |displ|/coords:  0.2092 (   2)  0.1302 (   1)  0.0992 (  14)
................................................................................
.............................. CYCLE   29 ......................................
................................................................................
   1    -50.7257049 -0.507257E+02  0.145E-01    9.41       0.0  T
   2    -50.7257091 -0.419357E-05  0.109E-01    9.41       1.0  T
   3    -50.7257126 -0.350651E-05  0.135E-02    9.41       1.5  T
   4    -50.7257131 -0.467607E-06  0.451E-03    9.41       4.4  T
   5    -50.7257131 -0.276295E-07  0.152E-03    9.41      12.9  T
   6    -50.7257131 -0.226269E-08  0.825E-04    9.41      23.8  T
speedup  1.03
cpu  time for SCC    0.01 s
wall time for SCC    0.01 s
speedup  1.01
cpu  time for grad    0.01 s
wall time for grad    0.01 s
 E :    -50.44477410  G :  0.009119    pred/act E change: -0.482D-03 -0.363D-03
Maxdispl :   0.3430   ||displ|| :   0.5442   Lambda : -0.896D-03
Largest |displ|/coords:  0.3430 (   2)  0.1768 (  12)  0.1759 (   7)
................................................................................
.............................. CYCLE   30 ......................................
................................................................................
   1    -50.7205938 -0.507206E+02  0.391E-01    9.42       0.0  T
   2    -50.7206270 -0.331641E-04  0.294E-01    9.41       1.0  T
   3    -50.7206550 -0.279430E-04  0.336E-02    9.41       1.0  T
   4    -50.7206591 -0.412036E-05  0.990E-03    9.41       2.0  T
   5    -50.7206592 -0.801663E-07  0.449E-03    9.41       4.4  T
   6    -50.7206592 -0.188736E-07  0.192E-03    9.41      10.2  T
   7    -50.7206592 -0.835883E-08  0.401E-04    9.41      48.9  T
speedup  1.03
cpu  time for SCC    0.01 s
wall time for SCC    0.01 s
speedup  1.01
cpu  time for grad    0.01 s
wall time for grad    0.01 s
 E :    -50.44471738  G :  0.033594    pred/act E change: -0.364D-03  0.567D-04
Maxdispl :   0.0772   ||displ|| :   0.1538   Lambda : -0.146D-02
Largest |displ|/coords:  0.0772 (  11)  0.0628 (   6)  0.0511 (   1)
................................................................................
.............................. CYCLE   31 ......................................
................................................................................
   1    -50.7241863 -0.507242E+02  0.167E-01    9.42       0.0  T
   2    -50.7242049 -0.185975E-04  0.124E-01    9.42       1.0  T
   3    -50.7242165 -0.115914E-04  0.243E-02    9.42       1.0  T
   4    -50.7242189 -0.239159E-05  0.468E-03    9.42       4.2  T
   5    -50.7242189 -0.205658E-07  0.259E-03    9.42       7.6  T
speedup  1.00
cpu  time for SCC    0.00 s
wall time for SCC    0.00 s
speedup  1.01
cpu  time for grad    0.01 s
wall time for grad    0.01 s
 E :    -50.44536139  G :  0.010046    pred/act E change: -0.581D-03 -0.644D-03
Maxdispl :   0.1532   ||displ|| :   0.2346   Lambda : -0.431D-03
Largest |displ|/coords:  0.1532 (   2)  0.1099 (   1)  0.0871 (   5)
................................................................................
.............................. CYCLE   32 ......................................
................................................................................
   1    -50.7271283 -0.507271E+02  0.113E-01    9.43       0.0  T
   2    -50.7271335 -0.527558E-05  0.849E-02    9.43       1.0  T
   3    -50.7271373 -0.372554E-05  0.129E-02    9.43       1.5  T
   4    -50.7271380 -0.720382E-06  0.365E-03    9.43       5.4  T
   5    -50.7271380 -0.219841E-07  0.168E-03    9.43      11.7  T
   6    -50.7271380 -0.290951E-08  0.838E-04    9.43      23.4  T
speedup  1.03
cpu  time for SCC    0.01 s
wall time for SCC    0.01 s
speedup  1.01
cpu  time for grad    0.01 s
wall time for grad    0.01 s
 E :    -50.44557446  G :  0.012276    pred/act E change: -0.749D-03 -0.213D-03
Maxdispl :   0.3867   ||displ|| :   0.5532   Lambda : -0.681D-03
Largest |displ|/coords:  0.3867 (   2)  0.2587 (   1)  0.1421 (  12)
................................................................................
.............................. CYCLE   33 ......................................
................................................................................
   1    -50.7232960 -0.507233E+02  0.277E-01    9.44       0.0  T
   2    -50.7233113 -0.152848E-04  0.210E-01    9.44       1.0  T
   3    -50.7233256 -0.143031E-04  0.217E-02    9.43       1.0  T
   4    -50.7233274 -0.182941E-05  0.723E-03    9.43       2.7  T
   5    -50.7233275 -0.534139E-07  0.323E-03    9.43       6.1  T
   6    -50.7233275 -0.124470E-07  0.135E-03    9.43      14.6  T
   7    -50.7233275 -0.450611E-08  0.289E-04    9.43      67.9  T
speedup  0.88
cpu  time for SCC    0.01 s
wall time for SCC    0.01 s
speedup  0.95
cpu  time for grad    0.01 s
wall time for grad    0.01 s
 E :    -50.44605890  G :  0.014393    pred/act E change: -0.227D-03 -0.484D-03
Maxdispl :   0.3147   ||displ|| :   0.4981   Lambda : -0.757D-03
Largest |displ|/coords:  0.3147 (   2)  0.2537 (   1)  0.1409 (  12)
................................................................................
.............................. CYCLE   34 ......................................
................................................................................
   1    -50.7243778 -0.507244E+02  0.206E-01    9.46       0.0  T
   2    -50.7243895 -0.116682E-04  0.156E-01    9.46       1.0  T
   3    -50.7243983 -0.884404E-05  0.184E-02    9.45       1.1  T
   4    -50.7244000 -0.174243E-05  0.606E-03    9.45       3.2  T
   5    -50.7244001 -0.335093E-07  0.216E-03    9.45       9.1  T
   6    -50.7244001 -0.585487E-08  0.773E-04    9.45      25.4  T
speedup  1.02
cpu  time for SCC    0.01 s
wall time for SCC    0.01 s
speedup  1.00
cpu  time for grad    0.01 s
wall time for grad    0.01 s
 E :    -50.44636071  G :  0.021261    pred/act E change: -0.445D-03 -0.302D-03
Maxdispl :   0.2197   ||displ|| :   0.3369   Lambda : -0.741D-03
Largest |displ|/coords:  0.2197 (   2)  0.1726 (   1)  0.0860 (   3)
................................................................................
.............................. CYCLE   35 ......................................
................................................................................
   1    -50.7255259 -0.507255E+02  0.132E-01    9.47       0.0  T
   2    -50.7255318 -0.587038E-05  0.989E-02    9.47       1.0  T
   3    -50.7255348 -0.298637E-05  0.128E-02    9.47       1.5  T
   4    -50.7255358 -0.107230E-05  0.372E-03    9.47       5.3  T
   5    -50.7255359 -0.228142E-07  0.142E-03    9.47      13.8  T
speedup  1.02
cpu  time for SCC    0.00 s
wall time for SCC    0.00 s
speedup  1.01
cpu  time for grad    0.01 s
wall time for grad    0.01 s
 E :    -50.44691565  G :  0.009745    pred/act E change: -0.473D-03 -0.555D-03
Maxdispl :   0.4215   ||displ|| :   0.6050   Lambda : -0.925D-03
Largest |displ|/coords:  0.4215 (   2)  0.2911 (   1)  0.1904 (   3)
................................................................................
.............................. CYCLE   36 ......................................
................................................................................
   1    -50.7277154 -0.507277E+02  0.211E-01    9.48       0.0  T
   2    -50.7277456 -0.301259E-04  0.159E-01    9.48       1.0  T
   3    -50.7277590 -0.134025E-04  0.285E-02    9.48       1.0  T
   4    -50.7277645 -0.552330E-05  0.782E-03    9.48       2.5  T
   5    -50.7277646 -0.111365E-06  0.315E-03    9.48       6.2  T
   6    -50.7277646 -0.101641E-07  0.146E-03    9.48      13.4  T
   7    -50.7277646 -0.443886E-08  0.383E-04    9.48      51.2  T
speedup  1.00
cpu  time for SCC    0.01 s
wall time for SCC    0.01 s
speedup  0.99
cpu  time for grad    0.01 s
wall time for grad    0.02 s
 E :    -50.44761278  G :  0.017512    pred/act E change: -0.412D-03 -0.697D-03
Maxdispl :   0.3608   ||displ|| :   0.6316   Lambda : -0.119D-02
Largest |displ|/coords:  0.3608 (   2)  0.3271 (   1)  0.2790 (   3)
................................................................................
.............................. CYCLE   37 ......................................
................................................................................
   1    -50.7328895 -0.507329E+02  0.227E-01    9.49       0.0  T
   2    -50.7329743 -0.848657E-04  0.170E-01    9.49       1.0  T
   3    -50.7330068 -0.324633E-04  0.483E-02    9.49       1.0  T
   4    -50.7330180 -0.112211E-04  0.107E-02    9.49       1.8  T
   5    -50.7330183 -0.248089E-06  0.402E-03    9.49       4.9  T
   6    -50.7330183 -0.143210E-07  0.185E-03    9.49      10.6  T
   7    -50.7330183 -0.738809E-08  0.472E-04    9.49      41.5  T
speedup  0.88
cpu  time for SCC    0.01 s
wall time for SCC    0.01 s
speedup  1.01
cpu  time for grad    0.01 s
wall time for grad    0.01 s
 E :    -50.44868967  G :  0.025936    pred/act E change: -0.632D-03 -0.108D-02
Maxdispl :   0.4359   ||displ|| :   0.7958   Lambda : -0.204D-02
Largest |displ|/coords:  0.4359 (   2)  0.3971 (   1)  0.3432 (   3)
................................................................................
.............................. CYCLE   38 ......................................
................................................................................
   1    -50.7358275 -0.507358E+02  0.341E-01    9.49       0.0  T
   2    -50.7361030 -0.275476E-03  0.252E-01    9.49       1.0  T
   3    -50.7362081 -0.105125E-03  0.854E-02    9.48       1.0  T
   4    -50.7362341 -0.259905E-04  0.170E-02    9.48       1.2  T
   5    -50.7362349 -0.806404E-06  0.653E-03    9.48       3.0  T
   6    -50.7362350 -0.389105E-07  0.290E-03    9.48       6.8  T
   7    -50.7362350 -0.207677E-07  0.727E-04    9.48      27.0  T
speedup  1.04
cpu  time for SCC    0.01 s
wall time for SCC    0.01 s
speedup  1.01
cpu  time for grad    0.01 s
wall time for grad    0.01 s
 E :    -50.45060473  G :  0.023744    pred/act E change: -0.834D-03 -0.192D-02
Maxdispl :   0.3449   ||displ|| :   0.7213   Lambda : -0.267D-02
Largest |displ|/coords:  0.3449 (   1)  0.3323 (   2)  0.2820 (   3)
................................................................................
.............................. CYCLE   39 ......................................
................................................................................
   1    -50.7446041 -0.507446E+02  0.350E-01    9.47       0.0  T
   2    -50.7449420 -0.337955E-03  0.255E-01    9.47       1.0  T
   3    -50.7450765 -0.134448E-03  0.926E-02    9.45       1.0  T
   4    -50.7450994 -0.229616E-04  0.180E-02    9.45       1.1  T
   5    -50.7451004 -0.973965E-06  0.671E-03    9.45       2.9  T
   6    -50.7451004 -0.456972E-07  0.306E-03    9.45       6.4  T
   7    -50.7451005 -0.221203E-07  0.721E-04    9.45      27.2  T
speedup  1.03
cpu  time for SCC    0.01 s
wall time for SCC    0.01 s
speedup  0.99
cpu  time for grad    0.01 s
wall time for grad    0.02 s
 E :    -50.45167805  G :  0.032668    pred/act E change: -0.166D-02 -0.107D-02
Maxdispl :   0.2590   ||displ|| :   0.4820   Lambda : -0.300D-02
Largest |displ|/coords:  0.2590 (   1)  0.2416 (   2)  0.1695 (   5)
................................................................................
.............................. CYCLE   40 ......................................
................................................................................
   1    -50.7294011 -0.507294E+02  0.236E-01    9.38       0.0  T
   2    -50.7294425 -0.413799E-04  0.176E-01    9.38       1.0  T
   3    -50.7294723 -0.298074E-04  0.365E-02    9.37       1.0  T
   4    -50.7294773 -0.499787E-05  0.946E-03    9.37       2.1  T
   5    -50.7294775 -0.145243E-06  0.430E-03    9.37       4.6  T
   6    -50.7294775 -0.169732E-07  0.206E-03    9.37       9.5  T
speedup  0.98
cpu  time for SCC    0.01 s
wall time for SCC    0.01 s
speedup  0.98
cpu  time for grad    0.01 s
wall time for grad    0.01 s
 E :    -50.45212204  G :  0.041282    pred/act E change: -0.203D-02 -0.444D-03
Maxdispl :   0.1755   ||displ|| :   0.3957   Lambda : -0.424D-02
Largest |displ|/coords:  0.1755 (   3)  0.1384 (   5)  0.1169 (   1)
................................................................................
.............................. CYCLE   41 ......................................
................................................................................
   1    -50.7392170 -0.507392E+02  0.268E-01    9.37       0.0  T
   2    -50.7393115 -0.944493E-04  0.199E-01    9.37       1.0  T
   3    -50.7393608 -0.493455E-04  0.502E-02    9.38       1.0  T
   4    -50.7393719 -0.110884E-04  0.122E-02    9.38       1.6  T
   5    -50.7393722 -0.302997E-06  0.465E-03    9.38       4.2  T
   6    -50.7393722 -0.160670E-07  0.227E-03    9.38       8.6  T
speedup  1.02
cpu  time for SCC    0.01 s
wall time for SCC    0.01 s
speedup  1.05
cpu  time for grad    0.01 s
wall time for grad    0.01 s
 E :    -50.45281970  G :  0.032960    pred/act E change: -0.185D-02 -0.698D-03
Maxdispl :   0.1780   ||displ|| :   0.4310   Lambda : -0.379D-02
Largest |displ|/coords:  0.1780 (   2)  0.1715 (   1)  0.1317 (   6)
................................................................................
.............................. CYCLE   42 ......................................
................................................................................
   1    -50.7449934 -0.507450E+02  0.255E-01    9.39       0.0  T
   2    -50.7451074 -0.114040E-03  0.188E-01    9.39       1.0  T
   3    -50.7451538 -0.464053E-04  0.565E-02    9.37       1.0  T
   4    -50.7451661 -0.122526E-04  0.119E-02    9.37       1.6  T
   5    -50.7451665 -0.429530E-06  0.445E-03    9.37       4.4  T
   6    -50.7451665 -0.945153E-08  0.221E-03    9.37       8.9  T
speedup  1.03
cpu  time for SCC    0.01 s
wall time for SCC    0.01 s
speedup  1.00
cpu  time for grad    0.01 s
wall time for grad    0.01 s
 E :    -50.45371245  G :  0.034406    pred/act E change: -0.245D-02 -0.893D-03
Maxdispl :   0.2019   ||displ|| :   0.3489   Lambda : -0.300D-02
Largest |displ|/coords:  0.2019 (   4)  0.1376 (   1)  0.1041 (  12)
................................................................................
.............................. CYCLE   43 ......................................
................................................................................
   1    -50.7462740 -0.507463E+02  0.225E-01    9.36       0.0  T
   2    -50.7463244 -0.504017E-04  0.169E-01    9.36       1.0  T
   3    -50.7463575 -0.330363E-04  0.391E-02    9.35       1.0  T
   4    -50.7463643 -0.688513E-05  0.124E-02    9.35       1.6  T
   5    -50.7463646 -0.264968E-06  0.476E-03    9.35       4.1  T
   6    -50.7463646 -0.190343E-07  0.220E-03    9.35       8.9  T
speedup  1.02
cpu  time for SCC    0.01 s
wall time for SCC    0.01 s
speedup  0.99
cpu  time for grad    0.01 s
wall time for grad    0.01 s
 E :    -50.45407783  G :  0.032231    pred/act E change: -0.225D-02 -0.365D-03
Maxdispl :   0.1173   ||displ|| :   0.2586   Lambda : -0.295D-02
Largest |displ|/coords:  0.1173 (   7)  0.0770 (   6)  0.0763 (  21)
................................................................................
.............................. CYCLE   44 ......................................
................................................................................
   1    -50.7394062 -0.507394E+02  0.166E-01    9.33       0.0  T
   2    -50.7394438 -0.376101E-04  0.123E-01    9.33       1.0  T
   3    -50.7394604 -0.165823E-04  0.320E-02    9.35       1.0  T
   4    -50.7394651 -0.468428E-05  0.743E-03    9.34       2.6  T
   5    -50.7394653 -0.152528E-06  0.253E-03    9.34       7.7  T
   6    -50.7394653 -0.408337E-08  0.140E-03    9.34      14.0  T
speedup  1.03
cpu  time for SCC    0.01 s
wall time for SCC    0.01 s
speedup  1.00
cpu  time for grad    0.01 s
wall time for grad    0.01 s
 E :    -50.45485467  G :  0.024232    pred/act E change: -0.168D-02 -0.777D-03
Maxdispl :   0.3600   ||displ|| :   0.5458   Lambda : -0.230D-02
Largest |displ|/coords:  0.3600 (   2)  0.2668 (   1)  0.1856 (   3)
................................................................................
.............................. CYCLE   45 ......................................
................................................................................
   1    -50.7433869 -0.507434E+02  0.190E-01    9.37       0.0  T
   2    -50.7434226 -0.357355E-04  0.140E-01    9.37       1.0  T
   3    -50.7434431 -0.205226E-04  0.308E-02    9.37       1.0  T
   4    -50.7434467 -0.352265E-05  0.722E-03    9.37       2.7  T
   5    -50.7434468 -0.115820E-06  0.290E-03    9.37       6.8  T
   6    -50.7434468 -0.657346E-08  0.139E-03    9.37      14.1  T
speedup  1.03
cpu  time for SCC    0.01 s
wall time for SCC    0.01 s
speedup  0.99
cpu  time for grad    0.01 s
wall time for grad    0.01 s
 E :    -50.45428153  G :  0.035797    pred/act E change: -0.158D-02  0.573D-03
Maxdispl :   0.2789   ||displ|| :   0.4533   Lambda : -0.347D-02
Largest |displ|/coords:  0.2789 (   2)  0.2574 (   3)  0.0879 (  13)
................................................................................
.............................. CYCLE   46 ......................................
................................................................................
   1    -50.7419315 -0.507419E+02  0.201E-01    9.35       0.0  T
   2    -50.7419958 -0.643529E-04  0.146E-01    9.34       1.0  T
   3    -50.7420193 -0.234982E-04  0.434E-02    9.34       1.0  T
   4    -50.7420255 -0.614582E-05  0.919E-03    9.34       2.1  T
   5    -50.7420257 -0.207201E-06  0.294E-03    9.34       6.7  T
   6    -50.7420257 -0.658464E-08  0.153E-03    9.34      12.8  T
speedup  1.00
cpu  time for SCC    0.01 s
wall time for SCC    0.01 s
speedup  0.99
cpu  time for grad    0.01 s
wall time for grad    0.01 s
 E :    -50.45509572  G :  0.030946    pred/act E change: -0.149D-02 -0.814D-03
Maxdispl :   0.2668   ||displ|| :   0.5932   Lambda : -0.482D-02
Largest |displ|/coords:  0.2668 (   1)  0.2322 (   6)  0.2153 (   2)
................................................................................
.............................. CYCLE   47 ......................................
................................................................................
   1    -50.7337819 -0.507338E+02  0.344E-01    9.06       0.0  T
   2    -50.7338446 -0.627563E-04  0.261E-01    9.08       1.0  T
   3    -50.7339002 -0.555872E-04  0.412E-02    9.14       1.0  T
   4    -50.7339071 -0.690525E-05  0.190E-02    9.14       1.0  T
   5    -50.7339075 -0.411364E-06  0.495E-03    9.14       4.0  T
   6    -50.7339075 -0.306846E-07  0.281E-03    9.14       7.0  T
speedup  1.02
cpu  time for SCC    0.01 s
wall time for SCC    0.01 s
speedup  0.99
cpu  time for grad    0.01 s
wall time for grad    0.01 s
 E :    -50.44942273  G :  0.087152    pred/act E change: -0.209D-02  0.567D-02
Maxdispl :   0.2470   ||displ|| :   0.5533   Lambda : -0.244D-01
Largest |displ|/coords:  0.2470 (   6)  0.1766 (   3)  0.1708 (  19)
................................................................................
.............................. CYCLE   48 ......................................
................................................................................
   1    -50.7488735 -0.507489E+02  0.402E-01    9.41       0.0  T
   2    -50.7489567 -0.832621E-04  0.303E-01    9.41       1.0  T
   3    -50.7490350 -0.782400E-04  0.489E-02    9.40       1.0  T
   4    -50.7490422 -0.717911E-05  0.209E-02    9.40       1.0  T
   5    -50.7490426 -0.455912E-06  0.607E-03    9.40       3.2  T
   6    -50.7490427 -0.665772E-07  0.330E-03    9.40       5.9  T
   7    -50.7490427 -0.146513E-07  0.936E-04    9.40      20.9  T
speedup  1.01
cpu  time for SCC    0.01 s
wall time for SCC    0.01 s
speedup  1.00
cpu  time for grad    0.01 s
wall time for grad    0.01 s
 E :    -50.45166127  G :  0.072871    pred/act E change: -0.326D-02 -0.224D-02
Maxdispl :   0.1516   ||displ|| :   0.4198   Lambda : -0.158D-01
Largest |displ|/coords:  0.1516 (   6)  0.1345 (   3)  0.1233 (  18)
................................................................................
.............................. CYCLE   49 ......................................
................................................................................
   1    -50.7337942 -0.507338E+02  0.305E-01    9.19       0.0  T
   2    -50.7338719 -0.777361E-04  0.228E-01    9.21       1.0  T
   3    -50.7339254 -0.534803E-04  0.456E-02    9.25       1.0  T
   4    -50.7339344 -0.897124E-05  0.166E-02    9.25       1.2  T
   5    -50.7339348 -0.438016E-06  0.535E-03    9.25       3.7  T
   6    -50.7339348 -0.307763E-07  0.291E-03    9.25       6.7  T
speedup  1.03
cpu  time for SCC    0.01 s
wall time for SCC    0.01 s
speedup  1.07
cpu  time for grad    0.01 s
wall time for grad    0.01 s
 E :    -50.45416221  G :  0.048229    pred/act E change: -0.159D-01 -0.250D-02
Maxdispl :   0.0938   ||displ|| :   0.2213   Lambda : -0.470D-02
Largest |displ|/coords:  0.0938 (   3)  0.0694 (   7)  0.0658 (   6)
................................................................................
.............................. CYCLE   50 ......................................
................................................................................
   1    -50.7465866 -0.507466E+02  0.149E-01    9.38       0.0  T
   2    -50.7466094 -0.228488E-04  0.111E-01    9.37       1.0  T
   3    -50.7466241 -0.146752E-04  0.249E-02    9.37       1.0  T
   4    -50.7466268 -0.264469E-05  0.766E-03    9.37       2.6  T
   5    -50.7466269 -0.106968E-06  0.273E-03    9.37       7.2  T
   6    -50.7466269 -0.709611E-08  0.129E-03    9.37      15.2  T
speedup  1.02
cpu  time for SCC    0.01 s
wall time for SCC    0.01 s
speedup  0.99
cpu  time for grad    0.01 s
wall time for grad    0.01 s
 E :    -50.45623721  G :  0.018242    pred/act E change: -0.931D-02 -0.208D-02
Maxdispl :   0.0945   ||displ|| :   0.2035   Lambda : -0.174D-02
Largest |displ|/coords:  0.0945 (   8)  0.0630 (  11)  0.0625 (   1)
................................................................................
.............................. CYCLE   51 ......................................
................................................................................
   1    -50.7419091 -0.507419E+02  0.156E-01    9.36       0.0  T
   2    -50.7419227 -0.135714E-04  0.117E-01    9.36       1.0  T
   3    -50.7419337 -0.110837E-04  0.198E-02    9.36       1.0  T
   4    -50.7419350 -0.126360E-05  0.626E-03    9.36       3.1  T
   5    -50.7419351 -0.570758E-07  0.231E-03    9.36       8.5  T
   6    -50.7419351 -0.774231E-08  0.115E-03    9.36      17.1  T
speedup  1.02
cpu  time for SCC    0.01 s
wall time for SCC    0.01 s
speedup  0.99
cpu  time for grad    0.01 s
wall time for grad    0.01 s
 E :    -50.45603708  G :  0.030848    pred/act E change: -0.247D-02  0.200D-03
Maxdispl :   0.0858   ||displ|| :   0.1538   Lambda : -0.148D-02
Largest |displ|/coords:  0.0858 (   1)  0.0717 (   7)  0.0387 (   4)
................................................................................
.............................. CYCLE   52 ......................................
................................................................................
   1    -50.7435243 -0.507435E+02  0.911E-02    9.35       0.0  T
   2    -50.7435281 -0.381650E-05  0.685E-02    9.35       1.0  T
   3    -50.7435315 -0.341216E-05  0.103E-02    9.36       1.9  T
   4    -50.7435319 -0.336641E-06  0.383E-03    9.36       5.1  T
   5    -50.7435319 -0.183235E-07  0.120E-03    9.36      16.4  T
speedup  1.02
cpu  time for SCC    0.00 s
wall time for SCC    0.00 s
speedup  0.98
cpu  time for grad    0.01 s
wall time for grad    0.01 s
 E :    -50.45686754  G :  0.008909    pred/act E change: -0.908D-03 -0.830D-03
Maxdispl :   0.1238   ||displ|| :   0.1779   Lambda : -0.294D-03
Largest |displ|/coords:  0.1238 (   1)  0.0565 (  13)  0.0491 (   3)

generating ANC from model Hessian ...
 Shifting diagonal of input Hessian by   4.900541642680788E-003
 Lowest  eigenvalues of input Hessian
   -0.000000   -0.000000   -0.000000    0.000000    0.000000    0.000000
    0.005000    0.005519    0.005914    0.006474    0.007064    0.007134
    0.007837    0.008875    0.009430    0.010106    0.010551    0.010731
 Highest eigenvalues
    1.401430    1.410705    1.449524    2.593322    3.439076    3.624855
 
cpu  time for ANC gen    0.03 s
wall time for ANC gen    0.03 s
................................................................................
.............................. CYCLE   53 ......................................
................................................................................
   1    -50.7444268 -0.507444E+02  0.643E-02    9.35       0.0  T
   2    -50.7444285 -0.162125E-05  0.484E-02    9.35       1.0  T
   3    -50.7444297 -0.118054E-05  0.720E-03    9.35       2.7  T
   4    -50.7444299 -0.229402E-06  0.277E-03    9.35       7.1  T
   5    -50.7444299 -0.133566E-07  0.940E-04    9.35      20.9  T
   6    -50.7444299 -0.127480E-08  0.485E-04    9.35      40.4  T
speedup  1.02
cpu  time for SCC    0.01 s
wall time for SCC    0.01 s
speedup  0.96
cpu  time for grad    0.01 s
wall time for grad    0.01 s
 E :    -50.45707771  G :  0.007744    pred/act E change:  0.000D+00 -0.210D-03
Maxdispl :   0.1178   ||displ|| :   0.2160   Lambda : -0.571D-03
Largest |displ|/coords:  0.1178 (   1)  0.0660 (   4)  0.0606 (   7)
................................................................................
.............................. CYCLE   54 ......................................
................................................................................
   1    -50.7452843 -0.507453E+02  0.146E-01    9.37       0.0  T
   2    -50.7452884 -0.414280E-05  0.111E-01    9.37       1.0  T
   3    -50.7452919 -0.345373E-05  0.106E-02    9.37       1.9  T
   4    -50.7452925 -0.588465E-06  0.348E-03    9.37       5.6  T
   5    -50.7452925 -0.121508E-07  0.133E-03    9.37      14.7  T
   6    -50.7452925 -0.159041E-08  0.554E-04    9.37      35.4  T
speedup  1.03
cpu  time for SCC    0.01 s
wall time for SCC    0.01 s
speedup  1.00
cpu  time for grad    0.01 s
wall time for grad    0.01 s
 E :    -50.45748749  G :  0.005004    pred/act E change:  0.000D+00 -0.410D-03
Maxdispl :   0.2838   ||displ|| :   0.3998   Lambda : -0.593D-03
Largest |displ|/coords:  0.2838 (   1)  0.1278 (   3)  0.1074 (  20)
................................................................................
.............................. CYCLE   55 ......................................
................................................................................
   1    -50.7449247 -0.507449E+02  0.197E-01    9.39       0.0  T
   2    -50.7449328 -0.804691E-05  0.148E-01    9.39       1.0  T
   3    -50.7449382 -0.539472E-05  0.155E-02    9.39       1.3  T
   4    -50.7449396 -0.140592E-05  0.517E-03    9.39       3.8  T
   5    -50.7449396 -0.306988E-07  0.206E-03    9.39       9.5  T
   6    -50.7449396 -0.524529E-08  0.920E-04    9.39      21.3  T
speedup  1.03
cpu  time for SCC    0.01 s
wall time for SCC    0.01 s
speedup  0.99
cpu  time for grad    0.01 s
wall time for grad    0.01 s
 E :    -50.45789424  G :  0.010197    pred/act E change: -0.299D-03 -0.407D-03
Maxdispl :   0.3215   ||displ|| :   0.4108   Lambda : -0.448D-03
Largest |displ|/coords:  0.3215 (   1)  0.1372 (   3)  0.1132 (   2)
................................................................................
.............................. CYCLE   56 ......................................
................................................................................
   1    -50.7455256 -0.507455E+02  0.139E-01    9.38       0.0  T
   2    -50.7455293 -0.372899E-05  0.104E-01    9.38       1.0  T
   3    -50.7455324 -0.304498E-05  0.123E-02    9.39       1.6  T
   4    -50.7455329 -0.493447E-06  0.421E-03    9.39       4.7  T
   5    -50.7455329 -0.252844E-07  0.150E-03    9.39      13.1  T
   6    -50.7455329 -0.346995E-08  0.860E-04    9.39      22.8  T
speedup  1.00
cpu  time for SCC    0.01 s
wall time for SCC    0.01 s
speedup  0.99
cpu  time for grad    0.01 s
wall time for grad    0.01 s
 E :    -50.45823090  G :  0.008656    pred/act E change: -0.344D-03 -0.337D-03
Maxdispl :   0.3662   ||displ|| :   0.4591   Lambda : -0.416D-03
Largest |displ|/coords:  0.3662 (   1)  0.1772 (   3)  0.1132 (   2)
................................................................................
.............................. CYCLE   57 ......................................
................................................................................
   1    -50.7468034 -0.507468E+02  0.151E-01    9.37       0.0  T
   2    -50.7468071 -0.366889E-05  0.113E-01    9.37       1.0  T
   3    -50.7468105 -0.349280E-05  0.127E-02    9.38       1.5  T
   4    -50.7468109 -0.389619E-06  0.463E-03    9.38       4.2  T
   5    -50.7468110 -0.292965E-07  0.155E-03    9.37      12.6  T
   6    -50.7468110 -0.293312E-08  0.949E-04    9.37      20.7  T
speedup  1.02
cpu  time for SCC    0.01 s
wall time for SCC    0.01 s
speedup  0.99
cpu  time for grad    0.01 s
wall time for grad    0.01 s
 E :    -50.45850077  G :  0.006556    pred/act E change: -0.262D-03 -0.270D-03
Maxdispl :   0.3430   ||displ|| :   0.4356   Lambda : -0.336D-03
Largest |displ|/coords:  0.3430 (   1)  0.1636 (   2)  0.1126 (   3)
................................................................................
.............................. CYCLE   58 ......................................
................................................................................
   1    -50.7473344 -0.507473E+02  0.167E-01    9.35       0.0  T
   2    -50.7473396 -0.520196E-05  0.126E-01    9.35       1.0  T
   3    -50.7473448 -0.513432E-05  0.156E-02    9.36       1.3  T
   4    -50.7473453 -0.575027E-06  0.566E-03    9.36       3.5  T
   5    -50.7473454 -0.296658E-07  0.160E-03    9.36      12.2  T
   6    -50.7473454 -0.219774E-08  0.945E-04    9.36      20.8  T
speedup  1.02
cpu  time for SCC    0.01 s
wall time for SCC    0.01 s
speedup  0.92
cpu  time for grad    0.01 s
wall time for grad    0.01 s
 E :    -50.45863378  G :  0.008444    pred/act E change: -0.252D-03 -0.133D-03
Maxdispl :   0.1522   ||displ|| :   0.2001   Lambda : -0.234D-03
Largest |displ|/coords:  0.1522 (   1)  0.0779 (   2)  0.0460 (  12)
................................................................................
.............................. CYCLE   59 ......................................
................................................................................
   1    -50.7480991 -0.507481E+02  0.863E-02    9.35       0.0  T
   2    -50.7481009 -0.182013E-05  0.645E-02    9.35       1.0  T
   3    -50.7481025 -0.164447E-05  0.837E-03    9.35       2.3  T
   4    -50.7481027 -0.213538E-06  0.259E-03    9.35       7.6  T
   5    -50.7481027 -0.125198E-07  0.112E-03    9.35      17.5  T
speedup  1.00
cpu  time for SCC    0.00 s
wall time for SCC    0.01 s
speedup  1.05
cpu  time for grad    0.01 s
wall time for grad    0.01 s
 E :    -50.45877452  G :  0.006943    pred/act E change: -0.200D-03 -0.141D-03
Maxdispl :   0.1848   ||displ|| :   0.3090   Lambda : -0.287D-03
Largest |displ|/coords:  0.1848 (   1)  0.1606 (   2)  0.1102 (  11)
................................................................................
.............................. CYCLE   60 ......................................
................................................................................
   1    -50.7456768 -0.507457E+02  0.168E-01    9.34       0.0  T
   2    -50.7456823 -0.550630E-05  0.127E-01    9.34       1.0  T
   3    -50.7456876 -0.525953E-05  0.132E-02    9.34       1.5  T
   4    -50.7456882 -0.619092E-06  0.414E-03    9.34       4.7  T
   5    -50.7456882 -0.189690E-07  0.190E-03    9.34      10.3  T
   6    -50.7456882 -0.431913E-08  0.828E-04    9.34      23.7  T
speedup  1.03
cpu  time for SCC    0.01 s
wall time for SCC    0.01 s
speedup  0.99
cpu  time for grad    0.01 s
wall time for grad    0.01 s
 E :    -50.45882908  G :  0.012921    pred/act E change: -0.122D-03 -0.546D-04
Maxdispl :   0.1058   ||displ|| :   0.1678   Lambda : -0.341D-03
Largest |displ|/coords:  0.1058 (   2)  0.0672 (   4)  0.0601 (   6)
................................................................................
.............................. CYCLE   61 ......................................
................................................................................
   1    -50.7492775 -0.507493E+02  0.836E-02    9.36       0.0  T
   2    -50.7492805 -0.304860E-05  0.624E-02    9.36       1.0  T
   3    -50.7492828 -0.227391E-05  0.124E-02    9.36       1.6  T
   4    -50.7492832 -0.353339E-06  0.337E-03    9.36       5.8  T
   5    -50.7492832 -0.218034E-07  0.122E-03    9.36      16.1  T
   6    -50.7492832 -0.125166E-08  0.630E-04    9.36      31.1  T
speedup  1.02
cpu  time for SCC    0.01 s
wall time for SCC    0.01 s
speedup  0.99
cpu  time for grad    0.01 s
wall time for grad    0.01 s
 E :    -50.45901935  G :  0.006779    pred/act E change: -0.157D-03 -0.190D-03
Maxdispl :   0.2335   ||displ|| :   0.3575   Lambda : -0.289D-03
Largest |displ|/coords:  0.2335 (   1)  0.2276 (   2)  0.0792 (   6)
................................................................................
.............................. CYCLE   62 ......................................
................................................................................
   1    -50.7480196 -0.507480E+02  0.162E-01    9.34       0.0  T
   2    -50.7480258 -0.618033E-05  0.122E-01    9.34       1.0  T
   3    -50.7480320 -0.620906E-05  0.175E-02    9.34       1.1  T
   4    -50.7480327 -0.672200E-06  0.520E-03    9.34       3.8  T
   5    -50.7480327 -0.421546E-07  0.192E-03    9.34      10.2  T
   6    -50.7480328 -0.345927E-08  0.103E-03    9.34      19.1  T
speedup  1.00
cpu  time for SCC    0.01 s
wall time for SCC    0.01 s
speedup  0.97
cpu  time for grad    0.01 s
wall time for grad    0.01 s
 E :    -50.45918536  G :  0.012791    pred/act E change: -0.175D-03 -0.166D-03
Maxdispl :   0.3022   ||displ|| :   0.4261   Lambda : -0.474D-03
Largest |displ|/coords:  0.3022 (   2)  0.1761 (   6)  0.1524 (   1)
................................................................................
.............................. CYCLE   63 ......................................
................................................................................
   1    -50.7495490 -0.507495E+02  0.172E-01    9.34       0.0  T
   2    -50.7495560 -0.700447E-05  0.129E-01    9.33       1.0  T
   3    -50.7495634 -0.735769E-05  0.182E-02    9.33       1.1  T
   4    -50.7495640 -0.626299E-06  0.494E-03    9.33       4.0  T
   5    -50.7495641 -0.378404E-07  0.215E-03    9.33       9.1  T
   6    -50.7495641 -0.459028E-08  0.103E-03    9.33      19.1  T
speedup  0.86
cpu  time for SCC    0.00 s
wall time for SCC    0.01 s
speedup  0.99
cpu  time for grad    0.01 s
wall time for grad    0.01 s
 E :    -50.45948356  G :  0.010534    pred/act E change: -0.163D-03 -0.298D-03
Maxdispl :   0.4287   ||displ|| :   0.5788   Lambda : -0.621D-03
Largest |displ|/coords:  0.4287 (   2)  0.1995 (   6)  0.1540 (   1)
................................................................................
.............................. CYCLE   64 ......................................
................................................................................
   1    -50.7479396 -0.507479E+02  0.281E-01    9.31       0.0  T
   2    -50.7479516 -0.120042E-04  0.211E-01    9.31       1.0  T
   3    -50.7479656 -0.140121E-04  0.229E-02    9.31       1.0  T
   4    -50.7479665 -0.919083E-06  0.646E-03    9.31       3.0  T
   5    -50.7479666 -0.537073E-07  0.320E-03    9.31       6.1  T
   6    -50.7479666 -0.133411E-07  0.135E-03    9.31      14.5  T
   7    -50.7479666 -0.359734E-08  0.316E-04    9.31      62.1  T
speedup  1.03
cpu  time for SCC    0.01 s
wall time for SCC    0.01 s
speedup  0.99
cpu  time for grad    0.01 s
wall time for grad    0.02 s
 E :    -50.45997296  G :  0.013829    pred/act E change: -0.280D-03 -0.489D-03
Maxdispl :   0.3143   ||displ|| :   0.4784   Lambda : -0.762D-03
Largest |displ|/coords:  0.3143 (   2)  0.1578 (   8)  0.1417 (   6)
................................................................................
.............................. CYCLE   65 ......................................
................................................................................
   1    -50.7489403 -0.507489E+02  0.266E-01    9.32       0.0  T
   2    -50.7489507 -0.104321E-04  0.200E-01    9.32       1.0  T
[...]
Maxdispl :   0.0208   ||displ|| :   0.0397   Lambda : -0.275D-05
Largest |displ|/coords:  0.0208 (   6)  0.0171 (   4)  0.0148 (   5)
................................................................................
.............................. CYCLE  164 ......................................
................................................................................
   1    -50.7647312 -0.507647E+02  0.207E-02    9.34       0.0  T
   2    -50.7647313 -0.852283E-07  0.155E-02    9.34       1.3  T
   3    -50.7647314 -0.821535E-07  0.240E-03    9.34       8.2  T
   4    -50.7647314 -0.981763E-08  0.736E-04    9.34      26.7  T
   5    -50.7647314 -0.800405E-09  0.220E-04    9.34      89.2  T
speedup  1.09
cpu  time for SCC    0.01 s
wall time for SCC    0.01 s
speedup  1.03
cpu  time for grad    0.01 s
wall time for grad    0.01 s
 E :    -50.47416858  G :  0.000707    pred/act E change: -0.165D-05 -0.163D-05
Maxdispl :   0.0073   ||displ|| :   0.0108   Lambda : -0.103D-05
Largest |displ|/coords:  0.0073 (   6)  0.0040 (  10)  0.0027 (   4)
................................................................................
.............................. CYCLE  165 ......................................
................................................................................
   1    -50.7647428 -0.507647E+02  0.652E-03    9.34       0.0  T
   2    -50.7647428 -0.153751E-07  0.481E-03    9.34       4.1  T
   3    -50.7647428 -0.829779E-08  0.110E-03    9.34      17.8  T
   4    -50.7647428 -0.211120E-08  0.293E-04    9.34      67.0  T
   5    -50.7647428 -0.133717E-09  0.788E-05    9.34     248.9  T
speedup  0.94
cpu  time for SCC    0.00 s
wall time for SCC    0.01 s
speedup  0.97
cpu  time for grad    0.01 s
wall time for grad    0.01 s
 E :    -50.47416924  G :  0.000506    pred/act E change: -0.138D-05 -0.668D-06
Maxdispl :   0.0056   ||displ|| :   0.0092   Lambda : -0.561D-06
Largest |displ|/coords:  0.0056 (   6)  0.0030 (   4)  0.0024 (   5)
................................................................................
.............................. CYCLE  166 ......................................
................................................................................
   1    -50.7647129 -0.507647E+02  0.575E-03    9.34       0.0  T
   2    -50.7647129 -0.969236E-08  0.430E-03    9.34       4.6  T
   3    -50.7647129 -0.420373E-08  0.837E-04    9.34      23.4  T
   4    -50.7647129 -0.170147E-08  0.215E-04    9.34      91.0  T
speedup  0.98
cpu  time for SCC    0.00 s
wall time for SCC    0.00 s
speedup  0.98
cpu  time for grad    0.01 s
wall time for grad    0.01 s
 E :    -50.47416963  G :  0.000347    pred/act E change: -0.517D-06 -0.386D-06
Maxdispl :   0.0048   ||displ|| :   0.0094   Lambda : -0.388D-06
Largest |displ|/coords:  0.0048 (   5)  0.0032 (   6)  0.0031 (  12)
................................................................................
.............................. CYCLE  167 ......................................
................................................................................
   1    -50.7647487 -0.507647E+02  0.551E-03    9.34       0.0  T
   2    -50.7647487 -0.785773E-08  0.411E-03    9.34       4.8  T
   3    -50.7647487 -0.444037E-08  0.747E-04    9.34      26.2  T
   4    -50.7647487 -0.122822E-08  0.249E-04    9.34      78.7  T
speedup  0.98
cpu  time for SCC    0.00 s
wall time for SCC    0.00 s
speedup  0.98
cpu  time for grad    0.01 s
wall time for grad    0.01 s
 E :    -50.47416991  G :  0.000266    pred/act E change: -0.280D-06 -0.280D-06
Maxdispl :   0.0043   ||displ|| :   0.0088   Lambda : -0.307D-06
Largest |displ|/coords:  0.0043 (   6)  0.0029 (  10)  0.0028 (   5)
................................................................................
.............................. CYCLE  168 ......................................
................................................................................
   1    -50.7647613 -0.507648E+02  0.638E-03    9.34       0.0  T
   2    -50.7647613 -0.689757E-08  0.478E-03    9.34       4.1  T
   3    -50.7647613 -0.486166E-08  0.679E-04    9.34      28.9  T
   4    -50.7647613 -0.102249E-08  0.232E-04    9.34      84.5  T
speedup  1.00
cpu  time for SCC    0.00 s
wall time for SCC    0.00 s
speedup  0.99
cpu  time for grad    0.01 s
wall time for grad    0.01 s
 E :    -50.47417013  G :  0.000273    pred/act E change: -0.194D-06 -0.219D-06
Maxdispl :   0.0034   ||displ|| :   0.0080   Lambda : -0.248D-06
Largest |displ|/coords:  0.0034 (   6)  0.0028 (  10)  0.0026 (  11)
................................................................................
.............................. CYCLE  169 ......................................
................................................................................
   1    -50.7647852 -0.507648E+02  0.624E-03    9.34       0.0  T
   2    -50.7647852 -0.611012E-08  0.467E-03    9.34       4.2  T
   3    -50.7647852 -0.485517E-08  0.656E-04    9.34      29.9  T
   4    -50.7647852 -0.774229E-09  0.199E-04    9.34      98.4  T
speedup  0.95
cpu  time for SCC    0.00 s
wall time for SCC    0.00 s
speedup  0.98
cpu  time for grad    0.01 s
wall time for grad    0.01 s
 E :    -50.47417031  G :  0.000236    pred/act E change: -0.154D-06 -0.180D-06
Maxdispl :   0.0025   ||displ|| :   0.0065   Lambda : -0.191D-06
Largest |displ|/coords:  0.0025 (   6)  0.0022 (  10)  0.0021 (   9)
................................................................................
.............................. CYCLE  170 ......................................
................................................................................
   1    -50.7647739 -0.507648E+02  0.545E-03    9.34       0.0  T
   2    -50.7647739 -0.390735E-08  0.408E-03    9.34       4.8  T
   3    -50.7647739 -0.376956E-08  0.491E-04    9.34      39.9  T
   4    -50.7647739 -0.381696E-09  0.139E-04    9.34     141.5  T
speedup  1.00
cpu  time for SCC    0.00 s
wall time for SCC    0.00 s
speedup  0.99
cpu  time for grad    0.01 s
wall time for grad    0.01 s
 E :    -50.47417044  G :  0.000193    pred/act E change: -0.124D-06 -0.135D-06
Maxdispl :   0.0020   ||displ|| :   0.0054   Lambda : -0.143D-06
Largest |displ|/coords:  0.0020 (   9)  0.0019 (  11)  0.0019 (   8)
................................................................................
.............................. CYCLE  171 ......................................
................................................................................
   1    -50.7647623 -0.507648E+02  0.400E-03    9.34       0.0  T
   2    -50.7647623 -0.251753E-08  0.300E-03    9.34       6.5  T
   3    -50.7647623 -0.248144E-08  0.380E-04    9.34      51.6  T
   4    -50.7647623 -0.237357E-09  0.862E-05    9.34     227.4  T
speedup  0.98
cpu  time for SCC    0.00 s
wall time for SCC    0.00 s
speedup  0.98
cpu  time for grad    0.01 s
wall time for grad    0.01 s
 E :    -50.47417055  G :  0.000156    pred/act E change: -0.954D-07 -0.108D-06
Maxdispl :   0.0024   ||displ|| :   0.0061   Lambda : -0.144D-06
Largest |displ|/coords:  0.0024 (   8)  0.0022 (   9)  0.0020 (   5)
................................................................................
.............................. CYCLE  172 ......................................
................................................................................
   1    -50.7647366 -0.507647E+02  0.423E-03    9.34       0.0  T
   2    -50.7647366 -0.274788E-08  0.318E-03    9.34       6.2  T
   3    -50.7647366 -0.294980E-08  0.376E-04    9.34      52.2  T
   4    -50.7647366 -0.232454E-09  0.110E-04    9.34     177.8  T
speedup  1.00
cpu  time for SCC    0.00 s
wall time for SCC    0.00 s
speedup  1.01
cpu  time for grad    0.01 s
wall time for grad    0.01 s
 E :    -50.47417066  G :  0.000154    pred/act E change: -0.714D-07 -0.107D-06
Maxdispl :   0.0025   ||displ|| :   0.0068   Lambda : -0.123D-06
Largest |displ|/coords:  0.0025 (   4)  0.0025 (   5)  0.0022 (   8)
................................................................................
.............................. CYCLE  173 ......................................
................................................................................
   1    -50.7647261 -0.507647E+02  0.435E-03    9.34       0.0  T
   2    -50.7647261 -0.289547E-08  0.327E-03    9.34       6.0  T
   3    -50.7647261 -0.345810E-08  0.367E-04    9.34      53.5  T
   4    -50.7647261 -0.196934E-09  0.121E-04    9.34     161.6  T
speedup  0.98
cpu  time for SCC    0.00 s
wall time for SCC    0.00 s
speedup  1.00
cpu  time for grad    0.01 s
wall time for grad    0.01 s
 E :    -50.47417075  G :  0.000163    pred/act E change: -0.720D-07 -0.922D-07
Maxdispl :   0.0022   ||displ|| :   0.0058   Lambda : -0.951D-07
Largest |displ|/coords:  0.0022 (   5)  0.0021 (   6)  0.0019 (   1)

   *** GEOMETRY OPTIMIZATION CONVERGED AFTER 173 ITERATIONS ***

------------------------------------------------------------------------
 total energy gain (kcal):     -0.6636
------------------------------------------------------------------------
================
 final structure:
================
$coord
       -1.08083853259911       -3.39144267857985        1.28289082771548      S 
        1.36547383076795       -3.64535341356530        0.07144852400225      O 
       -0.89829052994724       -2.14430999430506        3.72635478198146      O 
       -2.95139655261791       -2.25687920302477       -0.37733633904883      O 
       -2.08626395990300       -6.14718788695764        1.87145140604684      O 
       -1.38587553949154       -6.44773475292596        3.49852832872864      H 
       -2.20745373259862        0.69169398980951       -4.28032167965809      O 
       -3.56864434311451        0.44725355008833       -5.44922483097911      H 
       -1.41241539888605        4.52686245960697       -0.79171606133852      O 
       -2.47212926935828        3.81369024911081        0.56254355115259      H 
       -1.84761478907653        3.54423204726107       -2.28206693785096      H 
        3.72234706642662       -0.45275126255980        3.38315394721652      O 
        1.97964599463566       -0.91533639291233        3.83188843842008      H 
        4.24365615242892       -1.84401314088348        2.32731135804475      H 
        2.77725182635316       -0.66111987034636       -3.72272539923110      O 
        2.38388792645862       -1.99505681079076       -2.49595261065083      H 
        1.15725975729547       -0.21034260932902       -4.45846632214624      H 
        3.30601650162444        1.60827775539607       -1.84143578657328      H 
       -4.05431668166682        1.75464633536976        2.48442850863965      O 
       -2.52498147876110       -0.48366143885429       -2.86669952524136      H 
       -4.07562133560831        0.28675020891387        1.37260575358567      H 
       -3.11854540939325        1.16526792594907        3.92963351792735      H 
        3.24681232931745        2.91888703843811       -0.30997372014398      N 
        4.61395557151322        4.25112606547261       -0.46487543331324      H 
        3.48204057519533        1.83234567455006        1.34840170188023      H 
        1.40604004036699        3.75415613577051       -0.34984603652165      H 
$end
 
 Bond Distances (Angstroems)
 ---------------------------
S1-O2=1.4508         S1-O3=1.4549         S1-O4=1.4533         S1-O5=1.5832         O2-S1=1.4508         O3-S1=1.4549         
O4-S1=1.4533         O5-S1=1.5832         O5-H6=0.9508         H6-O5=0.9508         O7-H8=0.9582         O7-H20=0.9873        
H8-O7=0.9582         O9-H10=0.9851        O9-H11=0.9723        H10-O9=0.9851        H11-O9=0.9723        O12-H13=0.9832       
O12-H14=0.9645       H13-O12=0.9832       H14-O12=0.9645       O15-H16=0.9813       O15-H17=0.9713       H16-O15=0.9813       
H17-O15=0.9713       H18-N23=1.0671       O19-H21=0.9745       O19-H22=0.9630       H20-O7=0.9873        H21-O19=0.9745       
H22-O19=0.9630       N23-H18=1.0671       N23-H24=1.0135       N23-H25=1.0565       N23-H26=1.0699       H24-N23=1.0135       
H25-N23=1.0565       H26-N23=1.0699       
 N  H  Rav=1.0518 sigma=0.0227  Rmin=1.0135  Rmax=1.0699     4
 O  H  Rav=0.9720 sigma=0.0113  Rmin=0.9508  Rmax=0.9873    11
 S  O  Rav=1.4856 sigma=0.0564  Rmin=1.4508  Rmax=1.5832     4
 
 selected bond angles (degree)
 --------------------
O3-S1-O2=112.05                O4-S1-O2=112.26                O4-S1-O3=113.27                O5-S1-O2=107.55                
O5-S1-O3=105.38                O5-S1-O4=105.70                H6-O5-S1=101.61                H20-O7-H8=106.03               
H11-O9-H10=104.50              
 
 selected dihedral angles (degree)
 ---------------------------------
H6-O5-S1-O2= 88.54            H6-O5-S1-O3=328.84            H6-O5-S1-O4=208.64            
 
 CMA Distance (Angstroems)
 ---------------------------
R(CMA):  2.8817

========================================================================
 FINAL SINGLEPOINT CALCULATION ON OPTIMIZED GEOMETRY
========================================================================

 Ncao       : 65
 Nao        : 64
 Nshell     : 38
 Nel        : 80
 T(el)      :   300.0
 intcut     :    25.0
 scfconv/Eh :  0.100E-05
   qconv/e  :  0.100E-03
 intneglect :  0.100E-07
 broydamp   :      0.250
 iter      E             dE          RMSdq      gap      omega  full diag
   1    -50.7647261 -0.507647E+02  0.497E-05    9.34       0.0  T
   2    -50.7647261 -0.136424E-11  0.329E-05    9.34     596.1  T
   3    -50.7647261 -0.966338E-12  0.623E-06    9.34    3148.3  T
speedup  0.62
cpu  time for SCC    0.00 s
wall time for SCC    0.00 s

   *** convergence criteria satisfied after 3 iterations ***

          eigenvalues
 #    :          28         29         30         31         32         33         34         35
 occ. :        2.000      2.000      2.000      2.000      2.000      2.000      2.000      2.000
 eps  :       -13.763    -13.269    -12.572    -12.449    -12.375    -12.341    -12.229    -12.201
 #    :          36         37         38         39         40         41         42         43
 occ. :        2.000      2.000      2.000      2.000      2.000      0.000      0.000      0.000
 eps  :       -12.109    -12.079    -11.983    -11.895    -11.779     -2.438     -0.905     -0.542
 #    :          44         45         46         47         48         49         50         51
 occ. :        0.000      0.000      0.000      0.000      0.000      0.000      0.000      0.000
 eps  :         0.824      1.021      1.382      2.233      2.967      3.916      4.265      4.585


   #   Z            q   n(s)   n(p)   n(d)      C6AA      α(0)
   1  16 S      1.695  1.581  1.778  0.946    88.875    15.867
   2   8 O     -0.749  1.766  4.982  0.000    30.071     7.352
   3   8 O     -0.763  1.776  4.987  0.000    30.470     7.401
   4   8 O     -0.740  1.766  4.974  0.000    29.812     7.321
   5   8 O     -0.593  1.754  4.839  0.000    24.999     6.750
   6   1 H      0.345  0.655  0.000  0.000     0.592     1.204
   7   8 O     -0.625  1.744  4.881  0.000    25.803     6.856
   8   1 H      0.289  0.711  0.000  0.000     0.755     1.364
   9   8 O     -0.620  1.756  4.865  0.000    25.674     6.839
  10   1 H      0.331  0.669  0.000  0.000     0.634     1.251
  11   1 H      0.318  0.682  0.000  0.000     0.668     1.284
  12   8 O     -0.607  1.743  4.863  0.000    25.346     6.795
  13   1 H      0.323  0.677  0.000  0.000     0.655     1.271
  14   1 H      0.305  0.695  0.000  0.000     0.705     1.319
  15   8 O     -0.614  1.752  4.862  0.000    25.515     6.817
  16   1 H      0.327  0.673  0.000  0.000     0.644     1.261
  17   1 H      0.320  0.680  0.000  0.000     0.664     1.280
  18   1 H      0.287  0.713  0.000  0.000     0.752     1.359
  19   8 O     -0.611  1.742  4.869  0.000    25.454     6.809
  20   1 H      0.336  0.664  0.000  0.000     0.623     1.240
  21   1 H      0.312  0.688  0.000  0.000     0.687     1.302
  22   1 H      0.301  0.699  0.000  0.000     0.719     1.332
  23   7 N     -0.360  1.284  4.077  0.000    29.271     8.035
  24   1 H      0.221  0.779  0.000  0.000     1.006     1.571
  25   1 H      0.280  0.720  0.000  0.000     0.776     1.380
  26   1 H      0.290  0.710  0.000  0.000     0.743     1.351

 Mol. C6AA /au·bohr⁶  :       5451.694007
 Mol. C8AA /au·bohr⁸  :     117938.519832
 Mol. α(0) /au        :        106.610139

 
 Wiberg/Mayer (AO) data. WBOs > 0.1 written file <wbo>
 largest (>0.05) Wiberg bond orders for each atom
           total WBO             WBO to atom ...
     1  S   4.843    O    2 1.321    O    4 1.299    O    3 1.298    O    5 0.887
     2  O   1.708    S    1 1.321    O    4 0.111    O    3 0.111    O    5 0.074    H   16 0.053
     3  O   1.706    S    1 1.298    O    2 0.111    O    4 0.105    O    5 0.076    H   13 0.065
     4  O   1.741    S    1 1.299    O    2 0.111    O    3 0.105    H   20 0.068    O    5 0.061
     5  O   1.968    S    1 0.887    H    6 0.865    O    3 0.076    O    2 0.074    O    4 0.061
     6  H   0.881    O    5 0.865
     7  O   1.862    H    8 0.909    H   20 0.814
     8  H   0.916    O    7 0.909
     9  O   1.934    H   11 0.861    H   10 0.821    H   26 0.133    N   23 0.064
    10  H   0.890    O    9 0.821    O   19 0.066
    11  H   0.899    O    9 0.861
    12  O   1.919    H   14 0.893    H   13 0.825    H   25 0.106    N   23 0.054
    13  H   0.895    O   12 0.825    O    3 0.065
    14  H   0.907    O   12 0.893
    15  O   1.934    H   17 0.861    H   16 0.836    H   18 0.125    N   23 0.062
    16  H   0.893    O   15 0.836    O    2 0.053
    17  H   0.898    O   15 0.861
    18  H   0.917    N   23 0.788    O   15 0.125
    19  O   1.875    H   22 0.894    H   21 0.852    H   10 0.066
    20  H   0.887    O    7 0.814    O    4 0.068
    21  H   0.903    O   19 0.852
    22  H   0.910    O   19 0.894
    23  N   3.514    H   24 0.948    H   25 0.812    H   18 0.788    H   26 0.780    O    9 0.064    O   15 0.062    O   12 0.054
    24  H   0.951    N   23 0.948
    25  H   0.922    N   23 0.812    O   12 0.106
    26  H   0.916    N   23 0.780    O    9 0.133
 MOs/occ written to file <molden.input>
 
molecular dipole:
                 x           y           z       tot (Debye)
 q only:        1.320       1.249      -0.470
   full:        0.725       0.114      -0.261       1.980
molecular quadrupole (traceless):
                xx          xy          yy          xz          yz          zz
 q only:        0.523       7.300      -0.440       4.340      -5.405      -0.083
  q+dip:       -1.023       8.985       0.240       6.022      -7.894       0.783
   full:       -1.335       9.229       0.324       6.237      -8.181       1.011

SCC energy    :     -50.7647261
rep           :       0.2901611
ES            :       0.2608595
AES           :      -0.0783770
AXC           :      -0.0088429
disp          :      -0.0196991
XB            :       0.0000000
fix           :       0.0000000
total E       :     -50.4741707
atomizationE  :       5.0044749     3140.36
(atE without considering molecular charge,
 total energy contains solvation terms)
H-L gap (eV)  :          9.3405
optimized geometry written to: xtbopt.xyz


------------------------------------------------------------------------
 * finished run on 2019/09/16 at 13:14:00.020     
------------------------------------------------------------------------
 total:
 * wall-time:     0 d,  0 h,  0 min,  5.114 sec
 *  cpu-time:     0 d,  0 h,  0 min,  5.083 sec
 * ratio c/w:     0.994 speedup
 SCF:
 * wall-time:     0 d,  0 h,  0 min,  0.507 sec
 *  cpu-time:     0 d,  0 h,  0 min,  0.503 sec
 * ratio c/w:     0.992 speedup
 ANC optimizer:
 * wall-time:     0 d,  0 h,  0 min,  4.553 sec
 *  cpu-time:     0 d,  0 h,  0 min,  4.529 sec
 * ratio c/w:     0.995 speedup

