      -----------------------------------------------------------      
     |                   =====================                   |     
     |                           x T B                           |     
     |                   =====================                   |     
     |                         S. Grimme                         |     
     |          Mulliken Center for Theoretical Chemistry        |     
     |                    University of Bonn                     |     
     |                 Version 6.0.1 (SAW181210)                 |     
      -----------------------------------------------------------      

   This program is distributed in the hope that it will be useful,
   but WITHOUT ANY WARRANTY; without even the implied warranty of
   MERCHANTABILITY or FITNESS FOR A PARTICULAR PURPOSE.
   
   FOR NON-COMMERCIAL, ACADEMIA USE ONLY.
   
   Cite this work as:
   S. Grimme, C. Bannwarth, P. Shushkov, J. Comput. Theory Chem., 2017,
   13, 1989-2009.
   C. Bannwarth, S. Ehlert and S. Grimme., ChemRxiv, 2018, preprint.
   http://doi.org/10.26434/chemrxiv.7246238.v1
   
   for sTDA-xTB:
   S. Grimme and C. Bannwarth, J. Chem. Phys., 2016, 145, 054103.
   
   in the mass-spec context:
   V. Asgeirsson, C. Bauer and S. Grimme, Chem. Sci., 2017, 8, 4879.
   
   if GBSA is used:
   P. Shushkov, F. März and S. Grimme, unpublished.
   
   for ANC optimizer:
   S. Grimme, unpublished.
   Rational Function algorithm used in ANCopt:
   F. Eckert, P. Pulay, H.-J. Werner, J. Comput. Chem., 1997, 18, 1473.
   
   with help from (in alphabetical order)
   C. Bannwarth, F. Bohle, G. Brandenburg, E. Caldeweyher, M. Checinski,
   S. Dohm, S. Ehlert, S. Ehrlich, F. März, H. Neugebauer, J. Pisarek,
   P. Pracht, P. Shushkov, and S. Spicher.
   
 * started run on 2019/09/16 at 11:18:34.518     
========================================================================
 # omp threads = 1
========================================================================
number of atoms            : 26
number of electrons        : 80
charge                     : 0
spin                       : .0
first test random number   : .4632

########################################################################
# WARNING! Please study the warnings concerning your input carefully
#  - XTBPATH is not set, using XTBHOME instead
#  - the use of '-opt' is discouraged, please use '--opt' next time
#  - the use of '-chrg' is discouraged, please use '--chrg' next time
#  - the use of '-uhf' is discouraged, please use '--uhf' next time
########################################################################

           ------------------------------------------------- 
          |                 G F N 2 - x T B                 |
          | Geometry, Frequencies, Noncovalent interactions |
          |            JCTC 2018 parametrisation            |
           ------------------------------------------------- 
      method parameters     
 k(s)        :  1.8500
 k(p)        :  2.2300
 k(d)        :  2.2300
 k(f)        :  2.0000
 kEN (H0ij)  : -2.0000
 D4 a1       :  0.5200
 D4 a2       :  5.0000
 D4 s6       :  1.0000
 D4 s8       :  2.7000
 D4 s9       :  5.0000
 alphaj      :  2.0000


            Z     q(EN)     CN     RAES       Cart. coordinates
     1  S   6.0    0.64    4.26    4.16    -1.36443    -1.93307     5.15654
     2  O   6.0   -0.31    1.20    1.80     0.55663    -3.87232     4.46592
     3  O   6.0   -0.31    1.20    1.80    -0.24837     0.63635     4.87271
     4  O   6.0   -0.31    1.22    1.80    -3.59808    -2.17880     3.45990
     5  O   6.0   -0.25    2.08    1.84    -2.15692    -2.31227     7.79106
     6  H   1.0    0.15    1.21    1.47    -0.71833    -2.15411     8.88492
     7  O   6.0   -0.39    1.67    1.81    -1.56619     0.78375    -3.13288
     8  H   1.0    0.17    0.95    1.42    -2.97468     1.78785    -3.83409
     9  O   6.0   -0.29    2.04    1.83     0.85275    -5.99085    -0.08864
    10  H   1.0    0.15    0.97    1.43     2.06268    -7.34825    -0.17902
    11  H   1.0    0.18    1.05    1.44     0.93276    -5.38807     1.62742
    12  O   6.0   -0.29    2.00    1.83     2.83662     6.60452    -2.18160
    13  H   1.0    0.16    1.04    1.43     2.48187     5.50769    -3.59076
    14  H   1.0    0.15    0.97    1.43     3.10529     8.25163    -2.90924
    15  O   6.0   -0.30    2.04    1.83     1.63041     3.12650    -5.60926
    16  H   1.0    0.15    0.97    1.43     1.67337     2.37408    -7.26656
    17  H   1.0    0.17    1.14    1.45     0.37585     2.18468    -4.68530
    18  O   6.0   -0.22    2.92    2.59    -2.95988    -3.11665    -1.30771
    19  H   1.0    0.16    1.22    1.47    -2.46898    -1.56024    -2.21679
    20  H   1.0    0.14    1.05    1.44    -1.56270    -4.35455    -1.23339
    21  H   1.0    0.16    1.06    1.44    -3.65661    -2.74679     0.38619
    22  N   5.0   -0.14    3.96    2.76     1.35339     2.33979     0.31812
    23  H   1.0    0.09    0.99    1.43     2.98303     1.28804     0.16806
    24  H   1.0    0.12    1.16    1.45     0.06007     1.72297    -0.99767
    25  H   1.0    0.12    1.06    1.44     0.61036     2.13311     2.10407
    26  H   1.0    0.10    1.04    1.43     1.76009     4.21504    -0.00200

  Z AO/shell   Hii/eV     exponent
  1     Wed Apr 25 08:07:45 CEST 2018   EN: 2.200 GM2: 0.406  GM3: 0.0800  RAES: 1.40
     1s    -10.707211    1.230000
  7     Wed Apr 25 08:07:45 CEST 2018   EN: 3.040 GM2: 0.461  GM3:-0.0640  RAES: 1.90
     2s    -16.686243    2.339881
     2p    -12.523956    2.014332
  8     Wed Apr 25 08:07:45 CEST 2018   EN: 3.440 GM2: 0.452  GM3:-0.0517  RAES: 1.80
     2s    -20.229985    2.439742
     2p    -15.503117    2.137023
 16     Tue Apr 24 11:44:34 CEST 2018   EN: 2.580 GM2: 0.340  GM3:-0.0502  RAES: 3.10
     3s    -20.029654    1.981333
     3p    -11.377694    2.025643
     3d     -0.420282    1.702555
 no old-style atom pair restraining (fixing) potential

molecular fragmentation (1/2 indicates fragments):
11111122222222222222222222
# atoms in fragment 1/2:     6    20
 fragment masses (1/2) :       97.07      108.11
CMA distance (Bohr)    :   7.799
constraining FC (au)   :  0.0500
           ------------------------------------------------- 
          |        Self-Consistent Charge Iterations        |
           ------------------------------------------------- 

 Ncao       : 65
 Nao        : 64
 Nshell     : 38
 Nel        : 80
 T(el)      :   300.0
 intcut     :    25.0
 scfconv/Eh :  0.100E-05
   qconv/e  :  0.100E-03
 intneglect :  0.100E-07
 broydamp   :      0.250
 iter      E             dE          RMSdq      gap      omega  full diag
   1    -50.5933235 -0.505933E+02  0.705E+00   10.46       0.0  T
   2    -50.6439703 -0.506468E-01  0.509E+00    9.80       1.0  T
   3    -50.6830282 -0.390579E-01  0.134E+00    7.93       1.0  T
   4    -50.6879566 -0.492839E-02  0.580E-01    8.35       1.0  T
   5    -50.6886185 -0.661919E-03  0.311E-01    8.37       1.0  T
   6    -50.6890430 -0.424499E-03  0.132E-01    8.45       1.0  T
   7    -50.6891362 -0.932155E-04  0.457E-02    8.43       1.0  T
   8    -50.6891451 -0.891991E-05  0.303E-02    8.42       1.0  T
   9    -50.6891511 -0.594321E-05  0.785E-03    8.44       2.5  T
  10    -50.6891514 -0.332794E-06  0.221E-03    8.44       8.9  T
  11    -50.6891514 -0.159477E-07  0.106E-03    8.44      18.5  T
  12    -50.6891514 -0.529947E-08  0.361E-04    8.44      54.4  T
  13    -50.6891514 -0.594184E-09  0.126E-04    8.44     156.0  T
speedup  0.99
cpu  time for SCC    0.01 s
wall time for SCC    0.02 s

   *** convergence criteria satisfied after 13 iterations ***

          eigenvalues
 #    :          28         29         30         31         32         33         34         35
 occ. :        2.000      2.000      2.000      2.000      2.000      2.000      2.000      2.000
 eps  :       -12.804    -12.702    -12.034    -11.920    -11.761    -11.505    -11.439    -11.415
 #    :          36         37         38         39         40         41         42         43
 occ. :        2.000      2.000      2.000      2.000      2.000      0.000      0.000      0.000
 eps  :       -10.956    -10.910    -10.705    -10.376    -10.151     -1.710     -0.415      0.005
 #    :          44         45         46         47         48         49         50         51
 occ. :        0.000      0.000      0.000      0.000      0.000      0.000      0.000      0.000
 eps  :         0.478      1.086      1.631      2.275      2.748      3.884      3.996      4.643


   #   Z            q   n(s)   n(p)   n(d)      C6AA      α(0)
   1  16 S      1.575  1.585  1.854  0.986    91.655    16.113
   2   8 O     -0.760  1.777  4.984  0.000    30.401     7.393
   3   8 O     -0.755  1.771  4.984  0.000    30.257     7.375
   4   8 O     -0.728  1.763  4.965  0.000    29.496     7.282
   5   8 O     -0.539  1.717  4.821  0.000    23.733     6.577
   6   1 H      0.358  0.642  0.000  0.000     0.561     1.172
   7   8 O     -0.850  1.833  5.017  0.000    33.090     7.714
   8   1 H      0.214  0.786  0.000  0.000     1.052     1.611
   9   8 O     -0.620  1.728  4.891  0.000    25.658     6.837
  10   1 H      0.288  0.712  0.000  0.000     0.759     1.369
  11   1 H      0.336  0.664  0.000  0.000     0.621     1.238
  12   8 O     -0.617  1.737  4.880  0.000    25.594     6.828
  13   1 H      0.336  0.664  0.000  0.000     0.623     1.240
  14   1 H      0.276  0.724  0.000  0.000     0.797     1.402
  15   8 O     -0.662  1.752  4.910  0.000    26.710     6.975
  16   1 H      0.266  0.734  0.000  0.000     0.831     1.432
  17   1 H      0.334  0.666  0.000  0.000     0.623     1.239
  18   8 O     -0.457  1.658  4.799  0.000    21.937     6.326
  19   1 H      0.400  0.600  0.000  0.000     0.477     1.081
  20   1 H      0.398  0.602  0.000  0.000     0.489     1.098
  21   1 H      0.399  0.601  0.000  0.000     0.487     1.097
  22   7 N     -0.319  1.261  4.058  0.000    28.180     7.884
  23   1 H      0.242  0.758  0.000  0.000     0.917     1.500
  24   1 H      0.315  0.685  0.000  0.000     0.669     1.281
  25   1 H      0.286  0.714  0.000  0.000     0.757     1.363
  26   1 H      0.284  0.716  0.000  0.000     0.763     1.368

 Mol. C6AA /au·bohr⁶  :       5477.379679
 Mol. C8AA /au·bohr⁸  :     118829.076529
 Mol. α(0) /au        :        106.794456

 
 Wiberg/Mayer (AO) data. WBOs > 0.1 written file <wbo>
 largest (>0.05) Wiberg bond orders for each atom
           total WBO             WBO to atom ...
     1  S   4.940    O    4 1.318    O    2 1.296    O    3 1.291    O    5 0.999
     2  O   1.675    S    1 1.296    O    4 0.115    O    3 0.114    O    5 0.073    H   11 0.055
     3  O   1.684    S    1 1.291    O    2 0.114    O    4 0.113    O    5 0.072    H   25 0.064
     4  O   1.718    S    1 1.318    O    2 0.115    O    3 0.113    H   21 0.080    O    5 0.052
     5  O   2.051    S    1 0.999    H    6 0.848    O    2 0.073    O    3 0.072    O    4 0.052
     6  H   0.871    O    5 0.848
     7  O   1.614    H    8 0.947    H   19 0.206    H   24 0.151    H   17 0.119    N   22 0.066    O   18 0.064
     8  H   0.954    O    7 0.947
     9  O   1.849    H   10 0.904    H   11 0.829    H   20 0.066
    10  H   0.917    O    9 0.904
    11  H   0.887    O    9 0.829    O    2 0.055
    12  O   1.832    H   14 0.913    H   13 0.839
    13  H   0.887    O   12 0.839
    14  H   0.924    O   12 0.913
    15  O   1.797    H   16 0.917    H   17 0.763
    16  H   0.929    O   15 0.917
    17  H   0.888    O   15 0.763    O    7 0.119
    18  O   2.283    H   20 0.768    H   21 0.753    H   19 0.627    O    7 0.064
    19  H   0.840    O   18 0.627    O    7 0.206
    20  H   0.842    O   18 0.768    O    9 0.066
    21  H   0.841    O   18 0.753    O    4 0.080
    22  N   3.541    H   23 0.938    H   26 0.876    H   25 0.847    H   24 0.745    O    7 0.066
    23  H   0.942    N   22 0.938
    24  H   0.901    N   22 0.745    O    7 0.151
    25  H   0.918    N   22 0.847    O    3 0.064
    26  H   0.919    N   22 0.876
 MOs/occ written to file <molden.input>
 
molecular dipole:
                 x           y           z       tot (Debye)
 q only:        0.918       0.216      -0.947
   full:        0.932       0.127      -0.465       2.668
molecular quadrupole (traceless):
                xx          xy          yy          xz          yz          zz
 q only:       -3.902      -0.558       6.004       5.999       3.241      -2.102
  q+dip:       -9.486      -3.979       3.191       4.959      -3.189       6.296
   full:       -9.907      -3.967       2.997       4.888      -3.229       6.910

SCC energy    :     -50.6891514
rep           :       0.2953476
ES            :       0.3111611
AES           :      -0.0715676
AXC           :      -0.0089045
disp          :      -0.0163255
XB            :       0.0000000
fix           :       0.0000000
total E       :     -50.3936323
atomizationE  :       4.9239365     3089.82
(atE without considering molecular charge,
 total energy contains solvation terms)
H-L gap (eV)  :          8.4410
           ------------------------------------------------- 
          |                 ===============                 |
          |                   A N C O P T                   |
          |                 ===============                 |
          |          Approximate Normal Coordinate          |
          |           Rational Function Optimizer           |
           ------------------------------------------------- 
dumping coords to <xtbopt.coord> and <xtbopt.log>
 optlevel               2
 Maxcycle             520
 Maxmicro              25
 Econv         1.000000000000000E-007
 Gconv         2.000000000000000E-004
 Maxdispl       1.00000000000000     
 Hlow          5.000000000000000E-003
 S6             20.0000000000000     
 Nvar               72

generating ANC from model Hessian ...
 Shifting diagonal of input Hessian by   5.177211330091906E-003
 Lowest  eigenvalues of input Hessian
    0.005000    0.005099   -0.000000   -0.000000    0.000000    0.000000
    0.000000    0.000000    0.005398    0.005440    0.005708    0.006169
    0.006412    0.006476    0.006778    0.007160    0.007550    0.008295
 Highest eigenvalues
    1.454172    1.561876    1.591149    3.140314    3.215331    3.316564
 
cpu  time for ANC gen    0.01 s
wall time for ANC gen    0.01 s
................................................................................
.............................. CYCLE    1 ......................................
................................................................................
   1    -50.6891514 -0.506892E+02  0.765E-05    8.44       0.0  T
   2    -50.6891514 -0.116174E-10  0.594E-05    8.44     330.3  T
   3    -50.6891514 -0.139266E-10  0.257E-05    8.44     764.3  T
speedup  1.00
cpu  time for SCC    0.00 s
wall time for SCC    0.00 s
speedup  1.02
cpu  time for grad    0.01 s
wall time for grad    0.01 s
 E :    -50.39363229  G :  0.198179    pred/act E change:  0.000D+00  0.395D-07
Maxdispl :   0.1006   ||displ|| :   0.3136   Lambda : -0.278D-01
Largest |displ|/coords:  0.1006 (  21)  0.0987 (  26)  0.0970 (  33)
................................................................................
.............................. CYCLE    2 ......................................
................................................................................
   1    -50.6962856 -0.506963E+02  0.281E-01    8.50       0.0  T
   2    -50.6964647 -0.179058E-03  0.212E-01    8.55       1.0  T
   3    -50.6965423 -0.776619E-04  0.852E-02    8.64       1.0  T
   4    -50.6965527 -0.103807E-04  0.194E-02    8.64       1.0  T
   5    -50.6965537 -0.976428E-06  0.487E-03    8.63       4.0  T
   6    -50.6965537 -0.343641E-07  0.274E-03    8.63       7.1  T
speedup  0.91
cpu  time for SCC    0.00 s
wall time for SCC    0.01 s
speedup  0.94
cpu  time for grad    0.01 s
wall time for grad    0.01 s
 E :    -50.41509671  G :  0.120747    pred/act E change:  0.000D+00 -0.215D-01
Maxdispl :   0.1141   ||displ|| :   0.3181   Lambda : -0.129D-01
Largest |displ|/coords:  0.1141 (  26)  0.1040 (  31)  0.1007 (  21)
................................................................................
.............................. CYCLE    3 ......................................
................................................................................
   1    -50.7000506 -0.507001E+02  0.272E-01    8.66       0.0  T
   2    -50.7002515 -0.200896E-03  0.203E-01    8.73       1.0  T
   3    -50.7003307 -0.791898E-04  0.819E-02    8.83       1.0  T
   4    -50.7003412 -0.104340E-04  0.180E-02    8.82       1.1  T
   5    -50.7003420 -0.874455E-06  0.437E-03    8.81       4.5  T
   6    -50.7003421 -0.282327E-07  0.251E-03    8.81       7.8  T
speedup  0.93
cpu  time for SCC    0.00 s
wall time for SCC    0.01 s
speedup  0.95
cpu  time for grad    0.01 s
wall time for grad    0.01 s
 E :    -50.42550374  G :  0.078576    pred/act E change: -0.152D-01 -0.104D-01
Maxdispl :   0.1214   ||displ|| :   0.3119   Lambda : -0.699D-02
Largest |displ|/coords:  0.1214 (   8)  0.0998 (  26)  0.0964 (   9)
................................................................................
.............................. CYCLE    4 ......................................
................................................................................
   1    -50.7020530 -0.507021E+02  0.270E-01    8.81       0.0  T
   2    -50.7022188 -0.165740E-03  0.202E-01    8.87       1.0  T
   3    -50.7022805 -0.617220E-04  0.714E-02    8.98       1.0  T
   4    -50.7022934 -0.128966E-04  0.165E-02    8.96       1.2  T
   5    -50.7022941 -0.686195E-06  0.413E-03    8.95       4.7  T
   6    -50.7022941 -0.218628E-07  0.230E-03    8.95       8.5  T
speedup  1.11
cpu  time for SCC    0.01 s
wall time for SCC    0.01 s
speedup  1.04
cpu  time for grad    0.01 s
wall time for grad    0.01 s
 E :    -50.43096325  G :  0.053148    pred/act E change: -0.712D-02 -0.546D-02
Maxdispl :   0.1445   ||displ|| :   0.3340   Lambda : -0.453D-02
Largest |displ|/coords:  0.1445 (  11)  0.1305 (   8)  0.1209 (   6)
................................................................................
.............................. CYCLE    5 ......................................
................................................................................
   1    -50.7031286 -0.507031E+02  0.389E-01    8.97       0.0  T
   2    -50.7032639 -0.135258E-03  0.294E-01    9.03       1.0  T
   3    -50.7033128 -0.488632E-04  0.648E-02    9.17       1.0  T
   4    -50.7033352 -0.224391E-04  0.160E-02    9.15       1.2  T
   5    -50.7033362 -0.959770E-06  0.458E-03    9.14       4.3  T
   6    -50.7033362 -0.150200E-07  0.240E-03    9.14       8.2  T
speedup  1.02
cpu  time for SCC    0.01 s
wall time for SCC    0.01 s
speedup  0.96
cpu  time for grad    0.01 s
wall time for grad    0.01 s
 E :    -50.43358748  G :  0.043791    pred/act E change: -0.384D-02 -0.262D-02
Maxdispl :   0.2053   ||displ|| :   0.4920   Lambda : -0.944D-02
Largest |displ|/coords:  0.2053 (   7)  0.1409 (  26)  0.1370 (  10)
................................................................................
.............................. CYCLE    6 ......................................
................................................................................
   1    -50.7198576 -0.507199E+02  0.517E-01    9.14       0.0  T
   2    -50.7207165 -0.858985E-03  0.381E-01    9.18       1.0  T
   3    -50.7210820 -0.365424E-03  0.148E-01    9.23       1.0  T
   4    -50.7211282 -0.462296E-04  0.373E-02    9.22       1.0  T
   5    -50.7211313 -0.313119E-05  0.108E-02    9.22       1.8  T
   6    -50.7211314 -0.119416E-06  0.577E-03    9.22       3.4  T
   7    -50.7211315 -0.483600E-07  0.176E-03    9.22      11.2  T
speedup  0.97
cpu  time for SCC    0.01 s
wall time for SCC    0.01 s
speedup  0.96
cpu  time for grad    0.01 s
wall time for grad    0.01 s
 E :    -50.43593807  G :  0.067185    pred/act E change: -0.252D-02 -0.235D-02
Maxdispl :   0.3412   ||displ|| :   0.5099   Lambda : -0.111D-01
Largest |displ|/coords:  0.3412 (   9)  0.1419 (  10)  0.1382 (  11)
................................................................................
.............................. CYCLE    7 ......................................
................................................................................
   1    -50.6932973 -0.506933E+02  0.766E-01    9.20       0.0  T
   2    -50.6937263 -0.429040E-03  0.569E-01    9.20       1.0  T
   3    -50.6939550 -0.228626E-03  0.116E-01    9.18       1.0  T
   4    -50.6940126 -0.576432E-04  0.222E-02    9.19       1.0  T
   5    -50.6940132 -0.617273E-06  0.106E-02    9.19       1.9  T
   6    -50.6940135 -0.297827E-06  0.479E-03    9.19       4.1  T
   7    -50.6940136 -0.501459E-07  0.111E-03    9.19      17.7  T
speedup  0.98
cpu  time for SCC    0.01 s
wall time for SCC    0.01 s
speedup  0.96
cpu  time for grad    0.01 s
wall time for grad    0.01 s
 E :    -50.43312542  G :  0.093739    pred/act E change: -0.586D-02  0.281D-02
Maxdispl :   0.2970   ||displ|| :   0.5261   Lambda : -0.270D-01
Largest |displ|/coords:  0.2970 (   9)  0.2026 (   7)  0.1942 (  10)
................................................................................
.............................. CYCLE    8 ......................................
................................................................................
   1    -50.7287486 -0.507287E+02  0.817E-01    9.13       0.0  T
   2    -50.7293225 -0.573825E-03  0.612E-01    9.14       1.0  T
   3    -50.7296805 -0.358007E-03  0.132E-01    9.14       1.0  T
   4    -50.7297541 -0.736289E-04  0.228E-02    9.14       1.0  T
   5    -50.7297550 -0.936957E-06  0.137E-02    9.14       1.4  T
   6    -50.7297552 -0.198334E-06  0.429E-03    9.14       4.6  T
   7    -50.7297553 -0.449898E-07  0.100E-03    9.14      19.6  T
speedup  1.11
cpu  time for SCC    0.01 s
wall time for SCC    0.01 s
speedup  1.02
cpu  time for grad    0.01 s
wall time for grad    0.01 s
 E :    -50.43786358  G :  0.074913    pred/act E change: -0.701D-02 -0.474D-02
Maxdispl :   0.0918   ||displ|| :   0.2745   Lambda : -0.736D-02
Largest |displ|/coords:  0.0918 (  13)  0.0797 (  15)  0.0701 (  11)
................................................................................
.............................. CYCLE    9 ......................................
................................................................................
   1    -50.7182437 -0.507182E+02  0.312E-01    9.18       0.0  T
   2    -50.7183267 -0.830470E-04  0.234E-01    9.17       1.0  T
   3    -50.7183784 -0.517398E-04  0.512E-02    9.15       1.0  T
   4    -50.7183891 -0.106305E-04  0.159E-02    9.15       1.2  T
   5    -50.7183895 -0.438545E-06  0.449E-03    9.15       4.4  T
   6    -50.7183895 -0.229181E-07  0.268E-03    9.15       7.3  T
speedup  1.11
cpu  time for SCC    0.01 s
wall time for SCC    0.01 s
speedup  1.03
cpu  time for grad    0.01 s
wall time for grad    0.01 s
 E :    -50.44112231  G :  0.044790    pred/act E change: -0.172D-01 -0.326D-02
Maxdispl :   0.1341   ||displ|| :   0.3419   Lambda : -0.505D-02
Largest |displ|/coords:  0.1341 (   8)  0.1115 (  16)  0.1046 (   9)
................................................................................
.............................. CYCLE   10 ......................................
................................................................................
   1    -50.7204014 -0.507204E+02  0.369E-01    9.15       0.0  T
   2    -50.7204970 -0.956456E-04  0.275E-01    9.15       1.0  T
   3    -50.7205599 -0.628585E-04  0.550E-02    9.15       1.0  T
   4    -50.7205719 -0.120781E-04  0.125E-02    9.15       1.6  T
   5    -50.7205722 -0.256453E-06  0.554E-03    9.15       3.5  T
   6    -50.7205722 -0.355384E-07  0.270E-03    9.15       7.3  T
speedup  1.11
cpu  time for SCC    0.01 s
wall time for SCC    0.01 s
speedup  1.03
cpu  time for grad    0.01 s
wall time for grad    0.01 s
 E :    -50.44176053  G :  0.060142    pred/act E change: -0.396D-02 -0.638D-03
Maxdispl :   0.1304   ||displ|| :   0.3658   Lambda : -0.786D-02
Largest |displ|/coords:  0.1304 (  12)  0.1119 (   3)  0.1100 (   7)
................................................................................
.............................. CYCLE   11 ......................................
................................................................................
   1    -50.7272047 -0.507272E+02  0.433E-01    9.11       0.0  T
   2    -50.7274943 -0.289637E-03  0.319E-01    9.11       1.0  T
   3    -50.7276427 -0.148359E-03  0.902E-02    9.12       1.0  T
   4    -50.7276714 -0.287499E-04  0.191E-02    9.12       1.0  T
   5    -50.7276721 -0.691024E-06  0.770E-03    9.12       2.5  T
   6    -50.7276721 -0.514921E-07  0.403E-03    9.12       4.9  T
   7    -50.7276722 -0.202300E-07  0.941E-04    9.12      20.8  T
speedup  1.15
cpu  time for SCC    0.01 s
wall time for SCC    0.01 s
speedup  1.04
cpu  time for grad    0.01 s
wall time for grad    0.01 s
 E :    -50.44315564  G :  0.053628    pred/act E change: -0.282D-02 -0.140D-02
Maxdispl :   0.1092   ||displ|| :   0.2937   Lambda : -0.597D-02
Largest |displ|/coords:  0.1092 (  28)  0.0874 (  12)  0.0852 (  26)
................................................................................
.............................. CYCLE   12 ......................................
................................................................................
   1    -50.7289064 -0.507289E+02  0.313E-01    9.18       0.0  T
   2    -50.7290884 -0.182039E-03  0.231E-01    9.17       1.0  T
   3    -50.7291770 -0.885742E-04  0.726E-02    9.15       1.0  T
   4    -50.7291934 -0.164065E-04  0.208E-02    9.16       1.0  T
   5    -50.7291942 -0.861442E-06  0.607E-03    9.16       3.2  T
   6    -50.7291943 -0.316728E-07  0.309E-03    9.16       6.4  T
   7    -50.7291943 -0.152000E-07  0.100E-03    9.16      19.6  T
speedup  0.95
cpu  time for SCC    0.01 s
wall time for SCC    0.01 s
speedup  1.04
cpu  time for grad    0.01 s
wall time for grad    0.01 s
 E :    -50.44486514  G :  0.037105    pred/act E change: -0.446D-02 -0.171D-02
Maxdispl :   0.1409   ||displ|| :   0.2755   Lambda : -0.247D-02
Largest |displ|/coords:  0.1409 (   8)  0.0947 (   3)  0.0773 (   4)
................................................................................
.............................. CYCLE   13 ......................................
................................................................................
   1    -50.7311188 -0.507311E+02  0.181E-01    9.14       0.0  T
   2    -50.7312006 -0.817949E-04  0.133E-01    9.14       1.0  T
   3    -50.7312418 -0.412047E-04  0.463E-02    9.15       1.0  T
   4    -50.7312474 -0.562696E-05  0.105E-02    9.15       1.9  T
   5    -50.7312477 -0.235793E-06  0.412E-03    9.15       4.8  T
   6    -50.7312477 -0.135159E-07  0.212E-03    9.15       9.2  T
speedup  0.93
cpu  time for SCC    0.00 s
wall time for SCC    0.01 s
speedup  1.03
cpu  time for grad    0.01 s
wall time for grad    0.01 s
 E :    -50.44647261  G :  0.032291    pred/act E change: -0.324D-02 -0.161D-02
Maxdispl :   0.1710   ||displ|| :   0.3303   Lambda : -0.243D-02
Largest |displ|/coords:  0.1710 (   3)  0.1592 (   8)  0.0913 (   5)
................................................................................
.............................. CYCLE   14 ......................................
................................................................................
   1    -50.7351605 -0.507352E+02  0.198E-01    9.18       0.0  T
   2    -50.7351958 -0.353089E-04  0.147E-01    9.17       1.0  T
   3    -50.7352150 -0.191621E-04  0.321E-02    9.16       1.0  T
   4    -50.7352194 -0.441980E-05  0.844E-03    9.16       2.3  T
   5    -50.7352195 -0.108462E-06  0.311E-03    9.16       6.3  T
   6    -50.7352195 -0.825240E-08  0.164E-03    9.16      11.9  T
speedup  0.75
cpu  time for SCC    0.00 s
wall time for SCC    0.01 s
speedup  0.96
cpu  time for grad    0.01 s
wall time for grad    0.01 s
 E :    -50.44784439  G :  0.028822    pred/act E change: -0.133D-02 -0.137D-02
Maxdispl :   0.2453   ||displ|| :   0.3630   Lambda : -0.163D-02
Largest |displ|/coords:  0.2453 (   8)  0.1358 (   3)  0.1044 (   1)
................................................................................
.............................. CYCLE   15 ......................................
................................................................................
   1    -50.7398207 -0.507398E+02  0.153E-01    9.21       0.0  T
   2    -50.7398338 -0.130358E-04  0.116E-01    9.20       1.0  T
   3    -50.7398405 -0.673548E-05  0.200E-02    9.19       1.0  T
   4    -50.7398426 -0.209223E-05  0.866E-03    9.19       2.3  T
   5    -50.7398427 -0.115298E-06  0.218E-03    9.19       9.0  T
   6    -50.7398427 -0.598630E-08  0.121E-03    9.19      16.2  T
speedup  0.94
cpu  time for SCC    0.01 s
wall time for SCC    0.01 s
speedup  1.03
cpu  time for grad    0.01 s
wall time for grad    0.01 s
 E :    -50.44906328  G :  0.019808    pred/act E change: -0.135D-02 -0.122D-02
Maxdispl :   0.3190   ||displ|| :   0.5376   Lambda : -0.199D-02
Largest |displ|/coords:  0.3190 (   8)  0.2461 (   3)  0.1717 (  14)
................................................................................
.............................. CYCLE   16 ......................................
................................................................................
   1    -50.7350166 -0.507350E+02  0.355E-01    9.27       0.0  T
   2    -50.7350680 -0.513868E-04  0.269E-01    9.26       1.0  T
   3    -50.7350981 -0.301369E-04  0.394E-02    9.24       1.0  T
   4    -50.7351062 -0.805425E-05  0.164E-02    9.25       1.2  T
   5    -50.7351067 -0.471984E-06  0.356E-03    9.25       5.5  T
   6    -50.7351067 -0.992831E-08  0.205E-03    9.25       9.6  T
   7    -50.7351067 -0.707822E-08  0.639E-04    9.25      30.7  T
speedup  0.97
cpu  time for SCC    0.01 s
wall time for SCC    0.01 s
speedup  1.03
cpu  time for grad    0.01 s
wall time for grad    0.01 s
 E :    -50.44940771  G :  0.036701    pred/act E change: -0.924D-03 -0.344D-03
Maxdispl :   0.1408   ||displ|| :   0.2816   Lambda : -0.211D-02
Largest |displ|/coords:  0.1408 (   1)  0.1341 (   8)  0.1066 (  15)
................................................................................
.............................. CYCLE   17 ......................................
................................................................................
   1    -50.7446370 -0.507446E+02  0.247E-01    9.25       0.0  T
   2    -50.7446684 -0.314306E-04  0.186E-01    9.25       1.0  T
   3    -50.7446904 -0.219529E-04  0.315E-02    9.25       1.0  T
   4    -50.7446945 -0.415385E-05  0.633E-03    9.25       3.1  T
   5    -50.7446946 -0.390049E-07  0.330E-03    9.25       5.9  T
   6    -50.7446946 -0.742828E-08  0.134E-03    9.25      14.6  T
speedup  0.94
cpu  time for SCC    0.00 s
wall time for SCC    0.01 s
speedup  1.03
cpu  time for grad    0.01 s
wall time for grad    0.01 s
 E :    -50.45013276  G :  0.019951    pred/act E change: -0.128D-02 -0.725D-03
Maxdispl :   0.1570   ||displ|| :   0.2263   Lambda : -0.107D-02
Largest |displ|/coords:  0.1570 (   8)  0.0884 (   1)  0.0603 (   5)
................................................................................
.............................. CYCLE   18 ......................................
................................................................................
   1    -50.7435168 -0.507435E+02  0.148E-01    9.24       0.0  T
   2    -50.7435276 -0.108014E-04  0.111E-01    9.24       1.0  T
   3    -50.7435349 -0.726169E-05  0.177E-02    9.24       1.1  T
   4    -50.7435364 -0.156992E-05  0.545E-03    9.24       3.6  T
   5    -50.7435365 -0.339877E-07  0.213E-03    9.24       9.2  T
   6    -50.7435365 -0.514086E-08  0.101E-03    9.24      19.5  T
speedup  1.13
cpu  time for SCC    0.01 s
wall time for SCC    0.01 s
speedup  1.02
cpu  time for grad    0.01 s
wall time for grad    0.01 s
 E :    -50.45055378  G :  0.017244    pred/act E change: -0.114D-02 -0.421D-03
Maxdispl :   0.1733   ||displ|| :   0.2867   Lambda : -0.912D-03
Largest |displ|/coords:  0.1733 (   3)  0.1268 (   1)  0.0977 (   8)
................................................................................
.............................. CYCLE   19 ......................................
................................................................................
   1    -50.7429499 -0.507429E+02  0.151E-01    9.26       0.0  T
   2    -50.7429580 -0.806767E-05  0.114E-01    9.26       1.0  T
   3    -50.7429642 -0.622719E-05  0.158E-02    9.26       1.2  T
   4    -50.7429653 -0.109162E-05  0.535E-03    9.26       3.7  T
   5    -50.7429654 -0.525164E-07  0.192E-03    9.26      10.2  T
   6    -50.7429654 -0.265162E-08  0.102E-03    9.26      19.3  T
speedup  0.74
cpu  time for SCC    0.00 s
wall time for SCC    0.01 s
speedup  0.93
cpu  time for grad    0.01 s
wall time for grad    0.01 s
 E :    -50.45113594  G :  0.017619    pred/act E change: -0.562D-03 -0.582D-03
Maxdispl :   0.2575   ||displ|| :   0.5051   Lambda : -0.134D-02
Largest |displ|/coords:  0.2575 (   3)  0.2535 (   8)  0.2326 (   1)
................................................................................
.............................. CYCLE   20 ......................................
................................................................................
   1    -50.7381434 -0.507381E+02  0.245E-01    9.27       0.0  T
   2    -50.7381584 -0.149749E-04  0.186E-01    9.26       1.0  T
   3    -50.7381718 -0.133450E-04  0.220E-02    9.26       1.0  T
   4    -50.7381735 -0.176025E-05  0.805E-03    9.26       2.4  T
   5    -50.7381736 -0.952368E-07  0.253E-03    9.26       7.8  T
   6    -50.7381736 -0.409809E-08  0.130E-03    9.26      15.1  T
speedup  1.07
cpu  time for SCC    0.01 s
wall time for SCC    0.01 s
speedup  0.99
cpu  time for grad    0.01 s
wall time for grad    0.01 s
 E :    -50.45195486  G :  0.023297    pred/act E change: -0.493D-03 -0.819D-03
Maxdispl :   0.3387   ||displ|| :   0.5365   Lambda : -0.142D-02
Largest |displ|/coords:  0.3387 (   8)  0.2556 (   1)  0.2101 (   3)
................................................................................
.............................. CYCLE   21 ......................................
................................................................................
   1    -50.7361939 -0.507362E+02  0.261E-01    9.24       0.0  T
   2    -50.7362226 -0.287264E-04  0.196E-01    9.24       1.0  T
   3    -50.7362411 -0.184710E-04  0.321E-02    9.23       1.0  T
   4    -50.7362451 -0.401607E-05  0.660E-03    9.23       3.0  T
   5    -50.7362452 -0.764975E-07  0.297E-03    9.23       6.6  T
   6    -50.7362452 -0.769955E-08  0.151E-03    9.23      13.0  T
speedup  0.93
cpu  time for SCC    0.01 s
wall time for SCC    0.01 s
speedup  0.94
cpu  time for grad    0.01 s
wall time for grad    0.01 s
 E :    -50.45233999  G :  0.035465    pred/act E change: -0.840D-03 -0.385D-03
Maxdispl :   0.2600   ||displ|| :   0.4118   Lambda : -0.279D-02
Largest |displ|/coords:  0.2600 (   1)  0.1354 (  27)  0.1282 (   3)
................................................................................
.............................. CYCLE   22 ......................................
................................................................................
   1    -50.7491439 -0.507491E+02  0.231E-01    9.26       0.0  T
   2    -50.7491862 -0.423342E-04  0.171E-01    9.27       1.0  T
   3    -50.7492107 -0.244786E-04  0.374E-02    9.27       1.0  T
   4    -50.7492155 -0.476298E-05  0.597E-03    9.27       3.3  T
   5    -50.7492155 -0.422820E-07  0.316E-03    9.27       6.2  T
speedup  0.87
cpu  time for SCC    0.00 s
wall time for SCC    0.00 s
speedup  0.99
cpu  time for grad    0.01 s
wall time for grad    0.01 s
 E :    -50.45333331  G :  0.024343    pred/act E change: -0.912D-03 -0.993D-03
Maxdispl :   0.3089   ||displ|| :   0.4972   Lambda : -0.188D-02
Largest |displ|/coords:  0.3089 (   3)  0.2326 (   8)  0.2098 (   1)
................................................................................
.............................. CYCLE   23 ......................................
................................................................................
   1    -50.7407549 -0.507408E+02  0.249E-01    9.25       0.0  T
   2    -50.7407860 -0.311697E-04  0.187E-01    9.25       1.0  T
   3    -50.7408116 -0.256131E-04  0.315E-02    9.25       1.0  T
   4    -50.7408155 -0.390419E-05  0.105E-02    9.25       1.9  T
   5    -50.7408158 -0.206910E-06  0.399E-03    9.25       4.9  T
   6    -50.7408158 -0.156309E-07  0.210E-03    9.25       9.3  T
speedup  1.11
cpu  time for SCC    0.01 s
wall time for SCC    0.01 s
speedup  1.01
cpu  time for grad    0.01 s
wall time for grad    0.01 s
 E :    -50.45422841  G :  0.022348    pred/act E change: -0.163D-02 -0.895D-03
Maxdispl :   0.2050   ||displ|| :   0.3448   Lambda : -0.103D-02
Largest |displ|/coords:  0.2050 (   1)  0.1675 (   3)  0.1070 (   8)
................................................................................
.............................. CYCLE   24 ......................................
................................................................................
   1    -50.7438605 -0.507439E+02  0.135E-01    9.30       0.0  T
   2    -50.7438684 -0.785365E-05  0.101E-01    9.30       1.0  T
   3    -50.7438739 -0.550331E-05  0.171E-02    9.29       1.1  T
   4    -50.7438749 -0.999209E-06  0.325E-03    9.30       6.0  T
   5    -50.7438749 -0.279687E-07  0.153E-03    9.30      12.9  T
speedup  0.89
cpu  time for SCC    0.00 s
wall time for SCC    0.00 s
speedup  0.92
cpu  time for grad    0.01 s
wall time for grad    0.01 s
 E :    -50.45476092  G :  0.020772    pred/act E change: -0.117D-02 -0.533D-03
Maxdispl :   0.2900   ||displ|| :   0.4916   Lambda : -0.110D-02
Largest |displ|/coords:  0.2900 (   1)  0.2472 (   8)  0.2016 (   3)
................................................................................
.............................. CYCLE   25 ......................................
................................................................................
   1    -50.7429462 -0.507429E+02  0.166E-01    9.29       0.0  T
   2    -50.7429596 -0.133975E-04  0.124E-01    9.29       1.0  T
   3    -50.7429676 -0.801232E-05  0.233E-02    9.29       1.0  T
   4    -50.7429694 -0.179660E-05  0.681E-03    9.29       2.9  T
   5    -50.7429695 -0.977022E-07  0.226E-03    9.29       8.7  T
   6    -50.7429695 -0.497286E-08  0.116E-03    9.29      16.9  T
speedup  1.11
cpu  time for SCC    0.01 s
wall time for SCC    0.01 s
speedup  1.06
cpu  time for grad    0.01 s
wall time for grad    0.01 s
 E :    -50.45502585  G :  0.021270    pred/act E change: -0.578D-03 -0.265D-03
Maxdispl :   0.1394   ||displ|| :   0.2229   Lambda : -0.110D-02
Largest |displ|/coords:  0.1394 (   8)  0.0733 (   6)  0.0615 (  13)

generating ANC from model Hessian ...
 Shifting diagonal of input Hessian by   5.192144871787884E-003
 Lowest  eigenvalues of input Hessian
    0.005000    0.005118   -0.000000   -0.000000   -0.000000    0.000000
    0.000000    0.000000    0.005404    0.005671    0.005907    0.006601
    0.006856    0.007468    0.008688    0.009652    0.011128    0.011657
 Highest eigenvalues
    1.405282    1.418033    1.433534    2.646022    3.455521    3.658669
 
cpu  time for ANC gen    0.02 s
wall time for ANC gen    0.02 s
................................................................................
.............................. CYCLE   26 ......................................
................................................................................
   1    -50.7511691 -0.507512E+02  0.135E-01    9.36       0.0  T
   2    -50.7511808 -0.117163E-04  0.999E-02    9.36       1.0  T
   3    -50.7511879 -0.708848E-05  0.200E-02    9.37       1.0  T
   4    -50.7511894 -0.155426E-05  0.598E-03    9.37       3.3  T
   5    -50.7511895 -0.755093E-07  0.238E-03    9.37       8.2  T
   6    -50.7511895 -0.640684E-08  0.133E-03    9.37      14.8  T
   7    -50.7511895 -0.389907E-08  0.337E-04    9.37      58.2  T
   8    -50.7511895 -0.406409E-09  0.152E-04    9.37     129.1  T
speedup  0.99
cpu  time for SCC    0.01 s
wall time for SCC    0.01 s
speedup  0.99
cpu  time for grad    0.01 s
wall time for grad    0.02 s
 E :    -50.45556735  G :  0.016013    pred/act E change:  0.000D+00 -0.542D-03
Maxdispl :   0.1309   ||displ|| :   0.2761   Lambda : -0.108D-02
Largest |displ|/coords:  0.1309 (   3)  0.0927 (   9)  0.0921 (   8)
................................................................................
.............................. CYCLE   27 ......................................
................................................................................
   1    -50.7480438 -0.507480E+02  0.208E-01    9.33       0.0  T
   2    -50.7480503 -0.641393E-05  0.157E-01    9.33       1.0  T
   3    -50.7480572 -0.696037E-05  0.139E-02    9.33       1.4  T
   4    -50.7480578 -0.535489E-06  0.519E-03    9.33       3.8  T
   5    -50.7480578 -0.373011E-07  0.191E-03    9.33      10.3  T
   6    -50.7480578 -0.334251E-08  0.943E-04    9.33      20.8  T
speedup  0.93
cpu  time for SCC    0.00 s
wall time for SCC    0.01 s
speedup  1.01
cpu  time for grad    0.01 s
wall time for grad    0.01 s
 E :    -50.45638054  G :  0.007713    pred/act E change:  0.000D+00 -0.813D-03
Maxdispl :   0.2066   ||displ|| :   0.4861   Lambda : -0.120D-02
Largest |displ|/coords:  0.2066 (   3)  0.2061 (   7)  0.1614 (   8)
................................................................................
.............................. CYCLE   28 ......................................
................................................................................
   1    -50.7397959 -0.507398E+02  0.355E-01    9.23       0.0  T
   2    -50.7398173 -0.214358E-04  0.268E-01    9.24       1.0  T
   3    -50.7398366 -0.193365E-04  0.267E-02    9.24       1.0  T
   4    -50.7398391 -0.248620E-05  0.802E-03    9.24       2.4  T
   5    -50.7398392 -0.895639E-07  0.353E-03    9.24       5.6  T
   6    -50.7398392 -0.122197E-07  0.159E-03    9.24      12.3  T
   7    -50.7398392 -0.630888E-08  0.404E-04    9.24      48.6  T
speedup  0.95
cpu  time for SCC    0.01 s
wall time for SCC    0.01 s
speedup  1.01
cpu  time for grad    0.01 s
wall time for grad    0.01 s
 E :    -50.45684938  G :  0.027164    pred/act E change: -0.584D-03 -0.469D-03
Maxdispl :   0.1201   ||displ|| :   0.2439   Lambda : -0.935D-03
Largest |displ|/coords:  0.1201 (   3)  0.1029 (   1)  0.1007 (   9)
................................................................................
.............................. CYCLE   29 ......................................
................................................................................
   1    -50.7424528 -0.507425E+02  0.154E-01    9.21       0.0  T
   2    -50.7424608 -0.794423E-05  0.116E-01    9.21       1.0  T
   3    -50.7424674 -0.664114E-05  0.156E-02    9.21       1.3  T
   4    -50.7424685 -0.105335E-05  0.479E-03    9.21       4.1  T
   5    -50.7424685 -0.438677E-07  0.186E-03    9.21      10.5  T
speedup  0.85
cpu  time for SCC    0.00 s
wall time for SCC    0.00 s
speedup  0.98
cpu  time for grad    0.01 s
wall time for grad    0.01 s
 E :    -50.45743967  G :  0.014975    pred/act E change: -0.741D-03 -0.590D-03
Maxdispl :   0.1749   ||displ|| :   0.3519   Lambda : -0.794D-03
Largest |displ|/coords:  0.1749 (   1)  0.1426 (   9)  0.1349 (   3)
................................................................................
.............................. CYCLE   30 ......................................
................................................................................
   1    -50.7466750 -0.507467E+02  0.153E-01    9.17       0.0  T
   2    -50.7466823 -0.738362E-05  0.115E-01    9.17       1.0  T
   3    -50.7466879 -0.555429E-05  0.170E-02    9.17       1.2  T
   4    -50.7466889 -0.100498E-05  0.513E-03    9.17       3.8  T
   5    -50.7466889 -0.407415E-07  0.177E-03    9.17      11.1  T
   6    -50.7466889 -0.370234E-08  0.972E-04    9.17      20.2  T
speedup  1.07
cpu  time for SCC    0.01 s
wall time for SCC    0.01 s
speedup  1.05
cpu  time for grad    0.01 s
wall time for grad    0.01 s
 E :    -50.45799237  G :  0.009280    pred/act E change: -0.496D-03 -0.553D-03
Maxdispl :   0.2445   ||displ|| :   0.5368   Lambda : -0.718D-03
Largest |displ|/coords:  0.2445 (   9)  0.2321 (   1)  0.2030 (   3)
................................................................................
.............................. CYCLE   31 ......................................
................................................................................
   1    -50.7443629 -0.507444E+02  0.278E-01    9.07       0.0  T
   2    -50.7443797 -0.167662E-04  0.209E-01    9.08       1.0  T
   3    -50.7443937 -0.140104E-04  0.252E-02    9.08       1.0  T
   4    -50.7443960 -0.236081E-05  0.856E-03    9.08       2.3  T
   5    -50.7443961 -0.885085E-07  0.311E-03    9.08       6.3  T
   6    -50.7443961 -0.142895E-07  0.165E-03    9.08      11.9  T
   7    -50.7443961 -0.360300E-08  0.446E-04    9.08      44.0  T
speedup  1.09
cpu  time for SCC    0.01 s
wall time for SCC    0.01 s
speedup  0.99
cpu  time for grad    0.01 s
wall time for grad    0.01 s
 E :    -50.45841618  G :  0.016477    pred/act E change: -0.446D-03 -0.424D-03
Maxdispl :   0.1484   ||displ|| :   0.3008   Lambda : -0.657D-03
Largest |displ|/coords:  0.1484 (   1)  0.1222 (   3)  0.0939 (   2)
................................................................................
.............................. CYCLE   32 ......................................
................................................................................
   1    -50.7492925 -0.507493E+02  0.150E-01    9.16       0.0  T
   2    -50.7492996 -0.714419E-05  0.113E-01    9.16       1.0  T
   3    -50.7493059 -0.625043E-05  0.167E-02    9.15       1.2  T
   4    -50.7493068 -0.911511E-06  0.596E-03    9.15       3.3  T
   5    -50.7493068 -0.588778E-07  0.180E-03    9.15      10.9  T
   6    -50.7493068 -0.283129E-08  0.106E-03    9.15      18.4  T
speedup  1.09
cpu  time for SCC    0.01 s
wall time for SCC    0.01 s
speedup  0.98
cpu  time for grad    0.01 s
wall time for grad    0.01 s
 E :    -50.45880567  G :  0.011198    pred/act E change: -0.463D-03 -0.389D-03
Maxdispl :   0.1299   ||displ|| :   0.2971   Lambda : -0.427D-03
Largest |displ|/coords:  0.1299 (   9)  0.1227 (   1)  0.1117 (   3)
................................................................................
.............................. CYCLE   33 ......................................
................................................................................
   1    -50.7499968 -0.507500E+02  0.183E-01    9.23       0.0  T
   2    -50.7500020 -0.518864E-05  0.138E-01    9.23       1.0  T
   3    -50.7500060 -0.405414E-05  0.148E-02    9.23       1.3  T
   4    -50.7500067 -0.704365E-06  0.532E-03    9.23       3.7  T
   5    -50.7500068 -0.350483E-07  0.156E-03    9.23      12.6  T
   6    -50.7500068 -0.175262E-08  0.905E-04    9.23      21.7  T
speedup  0.93
cpu  time for SCC    0.00 s
wall time for SCC    0.01 s
speedup  1.00
cpu  time for grad    0.01 s
wall time for grad    0.01 s
 E :    -50.45898082  G :  0.014981    pred/act E change: -0.358D-03 -0.175D-03
Maxdispl :   0.1252   ||displ|| :   0.2416   Lambda : -0.438D-03
Largest |displ|/coords:  0.1252 (   2)  0.1061 (   3)  0.0816 (   1)
................................................................................
.............................. CYCLE   34 ......................................
................................................................................
   1    -50.7493069 -0.507493E+02  0.137E-01    9.29       0.0  T
   2    -50.7493140 -0.700656E-05  0.103E-01    9.29       1.0  T
   3    -50.7493192 -0.529872E-05  0.164E-02    9.28       1.2  T
   4    -50.7493202 -0.921600E-06  0.526E-03    9.29       3.7  T
   5    -50.7493202 -0.540403E-07  0.177E-03    9.29      11.1  T
   6    -50.7493202 -0.287259E-08  0.983E-04    9.29      20.0  T
speedup  0.91
cpu  time for SCC    0.00 s
wall time for SCC    0.01 s
speedup  1.00
cpu  time for grad    0.01 s
wall time for grad    0.01 s
 E :    -50.45916109  G :  0.008226    pred/act E change: -0.232D-03 -0.180D-03
Maxdispl :   0.0667   ||displ|| :   0.1740   Lambda : -0.303D-03
Largest |displ|/coords:  0.0667 (   9)  0.0639 (   2)  0.0635 (   5)
................................................................................
.............................. CYCLE   35 ......................................
................................................................................
   1    -50.7535137 -0.507535E+02  0.126E-01    9.31       0.0  T
   2    -50.7535187 -0.494393E-05  0.945E-02    9.31       1.0  T
   3    -50.7535219 -0.321010E-05  0.134E-02    9.31       1.5  T
   4    -50.7535226 -0.700019E-06  0.310E-03    9.31       6.3  T
   5    -50.7535226 -0.174201E-07  0.120E-03    9.31      16.3  T
   6    -50.7535226 -0.996415E-09  0.621E-04    9.31      31.6  T
speedup  1.07
cpu  time for SCC    0.01 s
wall time for SCC    0.01 s
speedup  0.98
cpu  time for grad    0.01 s
wall time for grad    0.01 s
 E :    -50.45923553  G :  0.013740    pred/act E change: -0.232D-03 -0.744D-04
Maxdispl :   0.1177   ||displ|| :   0.2146   Lambda : -0.364D-03
Largest |displ|/coords:  0.1177 (   2)  0.1089 (   6)  0.0792 (   9)
................................................................................
.............................. CYCLE   36 ......................................
................................................................................
   1    -50.7512366 -0.507512E+02  0.159E-01    9.24       0.0  T
   2    -50.7512431 -0.650824E-05  0.119E-01    9.24       1.0  T
   3    -50.7512483 -0.519903E-05  0.162E-02    9.24       1.2  T
   4    -50.7512491 -0.829954E-06  0.400E-03    9.24       4.9  T
   5    -50.7512491 -0.249987E-07  0.167E-03    9.24      11.7  T
   6    -50.7512491 -0.323329E-08  0.897E-04    9.24      21.9  T
speedup  0.93
cpu  time for SCC    0.00 s
wall time for SCC    0.01 s
speedup  1.01
cpu  time for grad    0.01 s
wall time for grad    0.01 s
 E :    -50.45939546  G :  0.011286    pred/act E change: -0.156D-03 -0.160D-03
Maxdispl :   0.1067   ||displ|| :   0.1817   Lambda : -0.276D-03
Largest |displ|/coords:  0.1067 (   2)  0.0497 (   6)  0.0471 (  17)
................................................................................
.............................. CYCLE   37 ......................................
................................................................................
   1    -50.7480195 -0.507480E+02  0.129E-01    9.25       0.0  T
   2    -50.7480237 -0.415256E-05  0.976E-02    9.25       1.0  T
   3    -50.7480272 -0.352597E-05  0.114E-02    9.25       1.7  T
   4    -50.7480277 -0.543193E-06  0.330E-03    9.25       6.0  T
   5    -50.7480278 -0.169590E-07  0.138E-03    9.25      14.2  T
   6    -50.7480278 -0.239562E-08  0.657E-04    9.25      29.8  T
speedup  0.67
cpu  time for SCC    0.01 s
wall time for SCC    0.01 s
speedup  0.64
cpu  time for grad    0.01 s
wall time for grad    0.02 s
 E :    -50.45951951  G :  0.011967    pred/act E change: -0.190D-03 -0.124D-03
Maxdispl :   0.0677   ||displ|| :   0.1599   Lambda : -0.317D-03
Largest |displ|/coords:  0.0677 (   6)  0.0653 (   2)  0.0468 (   8)
................................................................................
.............................. CYCLE   38 ......................................
................................................................................
   1    -50.7518050 -0.507518E+02  0.102E-01    9.36       0.0  T
   2    -50.7518082 -0.312819E-05  0.758E-02    9.36       1.0  T
   3    -50.7518105 -0.231663E-05  0.116E-02    9.36       1.7  T
   4    -50.7518108 -0.344380E-06  0.406E-03    9.36       4.8  T
   5    -50.7518109 -0.257532E-07  0.107E-03    9.36      18.4  T
   6    -50.7518109 -0.116824E-08  0.625E-04    9.36      31.4  T
speedup  0.88
cpu  time for SCC    0.00 s
wall time for SCC    0.01 s
speedup  0.98
cpu  time for grad    0.01 s
wall time for grad    0.01 s
 E :    -50.45961497  G :  0.010142    pred/act E change: -0.142D-03 -0.955D-04
Maxdispl :   0.1990   ||displ|| :   0.3539   Lambda : -0.365D-03
Largest |displ|/coords:  0.1990 (   2)  0.1619 (   6)  0.1262 (   9)
................................................................................
.............................. CYCLE   39 ......................................
................................................................................
   1    -50.7490161 -0.507490E+02  0.231E-01    9.28       0.0  T
   2    -50.7490224 -0.634844E-05  0.174E-01    9.28       1.0  T
   3    -50.7490297 -0.728714E-05  0.161E-02    9.28       1.2  T
   4    -50.7490301 -0.438110E-06  0.485E-03    9.28       4.0  T
   5    -50.7490302 -0.344027E-07  0.192E-03    9.28      10.2  T
   6    -50.7490302 -0.485876E-08  0.110E-03    9.28      17.9  T
speedup  0.89
cpu  time for SCC    0.00 s
wall time for SCC    0.01 s
speedup  0.98
cpu  time for grad    0.01 s
wall time for grad    0.01 s
 E :    -50.45982057  G :  0.012925    pred/act E change: -0.163D-03 -0.206D-03
Maxdispl :   0.1526   ||displ|| :   0.2666   Lambda : -0.320D-03
Largest |displ|/coords:  0.1526 (   2)  0.1204 (   6)  0.0828 (   1)
................................................................................
.............................. CYCLE   40 ......................................
................................................................................
   1    -50.7484130 -0.507484E+02  0.174E-01    9.24       0.0  T
   2    -50.7484171 -0.412912E-05  0.131E-01    9.24       1.0  T
   3    -50.7484215 -0.437456E-05  0.122E-02    9.24       1.6  T
   4    -50.7484218 -0.339568E-06  0.279E-03    9.24       7.0  T
   5    -50.7484219 -0.101806E-07  0.158E-03    9.24      12.4  T
speedup  1.06
cpu  time for SCC    0.00 s
wall time for SCC    0.00 s
speedup  0.98
cpu  time for grad    0.01 s
wall time for grad    0.01 s
 E :    -50.45999253  G :  0.011001    pred/act E change: -0.206D-03 -0.172D-03
Maxdispl :   0.1334   ||displ|| :   0.2320   Lambda : -0.293D-03
Largest |displ|/coords:  0.1334 (   6)  0.1318 (   2)  0.0457 (   4)
................................................................................
.............................. CYCLE   41 ......................................
................................................................................
   1    -50.7512725 -0.507513E+02  0.155E-01    9.32       0.0  T
   2    -50.7512759 -0.342059E-05  0.115E-01    9.32       1.0  T
   3    -50.7512790 -0.306066E-05  0.132E-02    9.32       1.5  T
   4    -50.7512794 -0.387322E-06  0.435E-03    9.32       4.5  T
   5    -50.7512794 -0.214161E-07  0.153E-03    9.32      12.8  T
   6    -50.7512794 -0.242194E-08  0.794E-04    9.32      24.7  T
speedup  0.93
cpu  time for SCC    0.00 s
wall time for SCC    0.01 s
speedup  1.00
cpu  time for grad    0.01 s
wall time for grad    0.01 s
 E :    -50.46017614  G :  0.008916    pred/act E change: -0.171D-03 -0.184D-03
Maxdispl :   0.2798   ||displ|| :   0.4669   Lambda : -0.400D-03
Largest |displ|/coords:  0.2798 (   2)  0.2324 (   6)  0.0988 (   9)
................................................................................
.............................. CYCLE   42 ......................................
................................................................................
   1    -50.7496703 -0.507497E+02  0.296E-01    9.18       0.0  T
   2    -50.7496813 -0.109771E-04  0.223E-01    9.18       1.0  T
   3    -50.7496939 -0.126619E-04  0.205E-02    9.18       1.0  T
   4    -50.7496946 -0.721531E-06  0.473E-03    9.18       4.2  T
   5    -50.7496947 -0.308236E-07  0.268E-03    9.18       7.3  T
   6    -50.7496947 -0.141057E-07  0.105E-03    9.18      18.7  T
speedup  0.94
cpu  time for SCC    0.00 s
wall time for SCC    0.01 s
speedup  0.93
cpu  time for grad    0.01 s
wall time for grad    0.01 s
 E :    -50.46031289  G :  0.012194    pred/act E change: -0.154D-03 -0.137D-03
Maxdispl :   0.0864   ||displ|| :   0.1685   Lambda : -0.343D-03
Largest |displ|/coords:  0.0864 (   2)  0.0745 (   6)  0.0622 (  13)
................................................................................
.............................. CYCLE   43 ......................................
................................................................................
   1    -50.7516847 -0.507517E+02  0.119E-01    9.36       0.0  T
   2    -50.7516877 -0.302138E-05  0.873E-02    9.36       1.0  T
   3    -50.7516897 -0.200940E-05  0.138E-02    9.36       1.4  T
   4    -50.7516900 -0.307849E-06  0.411E-03    9.36       4.8  T
   5    -50.7516900 -0.270911E-07  0.105E-03    9.36      18.7  T
   6    -50.7516900 -0.160645E-08  0.662E-04    9.36      29.6  T
speedup  0.93
cpu  time for SCC    0.00 s
wall time for SCC    0.01 s
speedup  1.00
cpu  time for grad    0.01 s
wall time for grad    0.01 s
 E :    -50.46042700  G :  0.010582    pred/act E change: -0.244D-03 -0.114D-03
Maxdispl :   0.0879   ||displ|| :   0.1366   Lambda : -0.237D-03
Largest |displ|/coords:  0.0879 (   2)  0.0339 (  21)  0.0323 (   5)
................................................................................
.............................. CYCLE   44 ......................................
................................................................................
   1    -50.7525183 -0.507525E+02  0.899E-02    9.33       0.0  T
   2    -50.7525201 -0.177582E-05  0.678E-02    9.33       1.0  T
   3    -50.7525219 -0.185969E-05  0.928E-03    9.33       2.1  T
   4    -50.7525221 -0.151587E-06  0.224E-03    9.33       8.8  T
   5    -50.7525221 -0.726737E-08  0.874E-04    9.33      22.4  T
speedup  1.04
cpu  time for SCC    0.00 s
wall time for SCC    0.00 s
speedup  1.06
cpu  time for grad    0.01 s
wall time for grad    0.01 s
 E :    -50.46056555  G :  0.006156    pred/act E change: -0.176D-03 -0.139D-03
Maxdispl :   0.1992   ||displ|| :   0.3028   Lambda : -0.203D-03
Largest |displ|/coords:  0.1992 (   2)  0.1343 (   6)  0.0743 (   5)
................................................................................
.............................. CYCLE   45 ......................................
................................................................................
   1    -50.7517573 -0.507518E+02  0.180E-01    9.27       0.0  T
   2    -50.7517616 -0.430943E-05  0.135E-01    9.27       1.0  T
   3    -50.7517662 -0.460826E-05  0.157E-02    9.27       1.2  T
   4    -50.7517666 -0.361963E-06  0.386E-03    9.27       5.1  T
   5    -50.7517666 -0.235879E-07  0.148E-03    9.27      13.2  T
   6    -50.7517666 -0.368050E-08  0.792E-04    9.27      24.8  T
speedup  1.09
cpu  time for SCC    0.01 s
wall time for SCC    0.01 s
speedup  1.00
cpu  time for grad    0.01 s
wall time for grad    0.01 s
 E :    -50.46068136  G :  0.008646    pred/act E change: -0.121D-03 -0.116D-03
Maxdispl :   0.1411   ||displ|| :   0.2319   Lambda : -0.326D-03
Largest |displ|/coords:  0.1411 (   2)  0.0930 (   7)  0.0728 (  11)
................................................................................
.............................. CYCLE   46 ......................................
................................................................................
   1    -50.7618077 -0.507618E+02  0.131E-01    9.40       0.0  T
   2    -50.7618148 -0.709545E-05  0.968E-02    9.40       1.0  T
   3    -50.7618199 -0.509503E-05  0.185E-02    9.39       1.1  T
   4    -50.7618206 -0.750040E-06  0.545E-03    9.39       3.6  T
   5    -50.7618206 -0.468426E-07  0.176E-03    9.39      11.1  T
   6    -50.7618207 -0.370967E-08  0.958E-04    9.39      20.5  T
speedup  0.93
cpu  time for SCC    0.00 s
wall time for SCC    0.01 s
speedup  1.01
cpu  time for grad    0.01 s
wall time for grad    0.01 s
 E :    -50.46047064  G :  0.021963    pred/act E change: -0.111D-03  0.211D-03
Maxdispl :   0.1585   ||displ|| :   0.2603   Lambda : -0.792D-03
Largest |displ|/coords:  0.1585 (   2)  0.1010 (   6)  0.0781 (   1)
................................................................................
.............................. CYCLE   47 ......................................
................................................................................
   1    -50.7536910 -0.507537E+02  0.182E-01    9.31       0.0  T
   2    -50.7536994 -0.839704E-05  0.137E-01    9.31       1.0  T
   3    -50.7537060 -0.664922E-05  0.174E-02    9.32       1.1  T
   4    -50.7537071 -0.107970E-05  0.584E-03    9.32       3.4  T
   5    -50.7537072 -0.532439E-07  0.208E-03    9.32       9.4  T
speedup  1.06
cpu  time for SCC    0.00 s
wall time for SCC    0.00 s
speedup  0.98
cpu  time for grad    0.01 s
wall time for grad    0.01 s
 E :    -50.46085422  G :  0.009400    pred/act E change: -0.172D-03 -0.384D-03
Maxdispl :   0.0930   ||displ|| :   0.1341   Lambda : -0.233D-03
Largest |displ|/coords:  0.0930 (   7)  0.0479 (   3)  0.0440 (   5)
................................................................................
.............................. CYCLE   48 ......................................
................................................................................
   1    -50.7523497 -0.507523E+02  0.803E-02    9.33       0.0  T
   2    -50.7523555 -0.583316E-05  0.599E-02    9.33       1.0  T
   3    -50.7523587 -0.313153E-05  0.133E-02    9.33       1.5  T
   4    -50.7523595 -0.817494E-06  0.327E-03    9.33       6.0  T
   5    -50.7523595 -0.249617E-07  0.122E-03    9.33      16.1  T
   6    -50.7523595 -0.749715E-09  0.616E-04    9.33      31.9  T
speedup  0.91
cpu  time for SCC    0.01 s
wall time for SCC    0.01 s
speedup  0.98
cpu  time for grad    0.01 s
wall time for grad    0.01 s
 E :    -50.46081416  G :  0.011354    pred/act E change: -0.423D-03  0.401D-04
Maxdispl :   0.1121   ||displ|| :   0.1760   Lambda : -0.255D-03
Largest |displ|/coords:  0.1121 (   2)  0.0607 (   7)  0.0542 (   5)
................................................................................
.............................. CYCLE   49 ......................................
................................................................................
   1    -50.7538745 -0.507539E+02  0.115E-01    9.33       0.0  T
   2    -50.7538772 -0.264465E-05  0.863E-02    9.33       1.0  T
   3    -50.7538796 -0.243993E-05  0.957E-03    9.33       2.0  T
   4    -50.7538799 -0.314657E-06  0.261E-03    9.33       7.5  T
   5    -50.7538799 -0.110917E-07  0.122E-03    9.33      16.1  T
speedup  1.06
cpu  time for SCC    0.00 s
wall time for SCC    0.00 s
speedup  1.05
cpu  time for grad    0.01 s
wall time for grad    0.01 s
 E :    -50.46095095  G :  0.004222    pred/act E change: -0.119D-03 -0.137D-03
Maxdispl :   0.0956   ||displ|| :   0.1531   Lambda : -0.783D-04
Largest |displ|/coords:  0.0956 (   2)  0.0628 (   7)  0.0393 (   3)
................................................................................
.............................. CYCLE   50 ......................................
................................................................................
   1    -50.7548237 -0.507548E+02  0.815E-02    9.34       0.0  T
   2    -50.7548261 -0.243259E-05  0.614E-02    9.34       1.0  T
   3    -50.7548275 -0.141833E-05  0.879E-03    9.34       2.2  T
   4    -50.7548280 -0.435191E-06  0.232E-03    9.34       8.4  T
   5    -50.7548280 -0.105828E-07  0.906E-04    9.34      21.6  T
speedup  1.09
cpu  time for SCC    0.00 s
wall time for SCC    0.00 s
speedup  1.06
cpu  time for grad    0.01 s
wall time for grad    0.01 s
 E :    -50.46096887  G :  0.006413    pred/act E change: -0.132D-03 -0.179D-04
Maxdispl :   0.0825   ||displ|| :   0.0993   Lambda : -0.618D-04
Largest |displ|/coords:  0.0825 (   2)  0.0225 (  13)  0.0169 (  23)
................................................................................
.............................. CYCLE   51 ......................................
................................................................................
   1    -50.7545767 -0.507546E+02  0.621E-02    9.34       0.0  T
   2    -50.7545773 -0.576745E-06  0.469E-02    9.34       1.0  T
   3    -50.7545777 -0.492416E-06  0.396E-03    9.34       5.0  T
   4    -50.7545778 -0.747722E-07  0.125E-03    9.34      15.7  T
   5    -50.7545778 -0.245996E-08  0.517E-04    9.34      38.0  T
speedup  1.09
cpu  time for SCC    0.00 s
wall time for SCC    0.00 s
speedup  0.98
cpu  time for grad    0.01 s
wall time for grad    0.01 s
 E :    -50.46101206  G :  0.004012    pred/act E change: -0.401D-04 -0.432D-04
Maxdispl :   0.0708   ||displ|| :   0.1139   Lambda : -0.645D-04
Largest |displ|/coords:  0.0708 (   2)  0.0483 (   1)  0.0417 (   6)
................................................................................
.............................. CYCLE   52 ......................................
................................................................................
   1    -50.7561674 -0.507562E+02  0.561E-02    9.39       0.0  T
   2    -50.7561682 -0.842327E-06  0.419E-02    9.39       1.0  T
   3    -50.7561687 -0.477096E-06  0.559E-03    9.39       3.5  T
   4    -50.7561688 -0.129589E-06  0.174E-03    9.39      11.3  T
   5    -50.7561689 -0.489327E-08  0.482E-04    9.39      40.7  T
speedup  1.06
cpu  time for SCC    0.00 s
wall time for SCC    0.00 s
speedup  0.97
cpu  time for grad    0.01 s
wall time for grad    0.01 s
 E :    -50.46103725  G :  0.004024    pred/act E change: -0.312D-04 -0.252D-04
Maxdispl :   0.2496   ||displ|| :   0.2944   Lambda : -0.682D-04
Largest |displ|/coords:  0.2496 (   2)  0.0565 (   6)  0.0524 (  13)

generating ANC from model Hessian ...
 Shifting diagonal of input Hessian by   5.238208353645420E-003
 Lowest  eigenvalues of input Hessian
    0.005000    0.005073   -0.000000    0.000000    0.000000    0.000000
    0.000000    0.000000    0.005511    0.005655    0.005901    0.006524
    0.007266    0.007875    0.009183    0.009256    0.010760    0.011019
 Highest eigenvalues
    1.406563    1.409726    1.416107    2.605149    3.437220    3.579778
 
cpu  time for ANC gen    0.02 s
wall time for ANC gen    0.02 s
................................................................................
.............................. CYCLE   53 ......................................
................................................................................
   1    -50.7534480 -0.507534E+02  0.170E-01    9.32       0.0  T
   2    -50.7534513 -0.330819E-05  0.128E-01    9.32       1.0  T
   3    -50.7534552 -0.386742E-05  0.116E-02    9.32       1.7  T
   4    -50.7534554 -0.213393E-06  0.316E-03    9.32       6.2  T
   5    -50.7534554 -0.135694E-07  0.137E-03    9.32      14.3  T
   6    -50.7534554 -0.247990E-08  0.728E-04    9.32      26.9  T
   7    -50.7534554 -0.690939E-09  0.109E-04    9.32     180.7  T
speedup  0.97
cpu  time for SCC    0.01 s
wall time for SCC    0.01 s
speedup  0.97
cpu  time for grad    0.01 s
wall time for grad    0.01 s
 E :    -50.46105223  G :  0.005627    pred/act E change:  0.000D+00 -0.150D-04
Maxdispl :   0.0417   ||displ|| :   0.0920   Lambda : -0.122D-03
Largest |displ|/coords:  0.0417 (  10)  0.0388 (   7)  0.0383 (   9)
................................................................................
.............................. CYCLE   54 ......................................
................................................................................
   1    -50.7545724 -0.507546E+02  0.851E-02    9.33       0.0  T
   2    -50.7545734 -0.985039E-06  0.644E-02    9.33       1.0  T
   3    -50.7545744 -0.102693E-05  0.493E-03    9.33       4.0  T
   4    -50.7545745 -0.926360E-07  0.165E-03    9.33      11.9  T
   5    -50.7545745 -0.302714E-08  0.670E-04    9.33      29.3  T
speedup  1.06
cpu  time for SCC    0.00 s
wall time for SCC    0.00 s
speedup  0.98
cpu  time for grad    0.01 s
wall time for grad    0.01 s
 E :    -50.46113590  G :  0.002455    pred/act E change:  0.000D+00 -0.837D-04
Maxdispl :   0.0669   ||displ|| :   0.1588   Lambda : -0.114D-03
Largest |displ|/coords:  0.0669 (   9)  0.0650 (   2)  0.0643 (   7)
................................................................................
.............................. CYCLE   55 ......................................
................................................................................
   1    -50.7554878 -0.507555E+02  0.118E-01    9.34       0.0  T
   2    -50.7554898 -0.199042E-05  0.892E-02    9.34       1.0  T
   3    -50.7554919 -0.208826E-05  0.740E-03    9.34       2.7  T
   4    -50.7554921 -0.196879E-06  0.300E-03    9.34       6.5  T
   5    -50.7554921 -0.118359E-07  0.100E-03    9.34      19.6  T
   6    -50.7554921 -0.103939E-08  0.526E-04    9.34      37.3  T
   7    -50.7554921 -0.617256E-09  0.130E-04    9.34     150.3  T
speedup  0.95
cpu  time for SCC    0.01 s
wall time for SCC    0.01 s
speedup  1.03
cpu  time for grad    0.01 s
wall time for grad    0.01 s
 E :    -50.46120571  G :  0.002743    pred/act E change: -0.614D-04 -0.698D-04
Maxdispl :   0.1030   ||displ|| :   0.1838   Lambda : -0.812D-04
Largest |displ|/coords:  0.1030 (   2)  0.0766 (   1)  0.0561 (   7)
................................................................................
.............................. CYCLE   56 ......................................
................................................................................
   1    -50.7554684 -0.507555E+02  0.109E-01    9.33       0.0  T
   2    -50.7554698 -0.147129E-05  0.824E-02    9.34       1.0  T
   3    -50.7554717 -0.191651E-05  0.553E-03    9.34       3.5  T
   4    -50.7554718 -0.730732E-07  0.224E-03    9.34       8.8  T
   5    -50.7554718 -0.580110E-08  0.881E-04    9.34      22.3  T
   6    -50.7554718 -0.131671E-08  0.387E-04    9.34      50.7  T
speedup  1.09
cpu  time for SCC    0.01 s
wall time for SCC    0.01 s
speedup  1.01
cpu  time for grad    0.01 s
wall time for grad    0.01 s
 E :    -50.46125971  G :  0.004138    pred/act E change: -0.583D-04 -0.540D-04
Maxdispl :   0.1436   ||displ|| :   0.2159   Lambda : -0.770D-04
Largest |displ|/coords:  0.1436 (   2)  0.0910 (   1)  0.0683 (   9)
................................................................................
.............................. CYCLE   57 ......................................
................................................................................
   1    -50.7551178 -0.507551E+02  0.108E-01    9.33       0.0  T
   2    -50.7551196 -0.177083E-05  0.823E-02    9.33       1.0  T
   3    -50.7551220 -0.236873E-05  0.573E-03    9.33       3.4  T
   4    -50.7551220 -0.759422E-07  0.232E-03    9.33       8.5  T
   5    -50.7551220 -0.626408E-08  0.875E-04    9.33      22.4  T
speedup  0.87
cpu  time for SCC    0.00 s
wall time for SCC    0.00 s
speedup  0.98
cpu  time for grad    0.01 s
wall time for grad    0.01 s
 E :    -50.46131351  G :  0.003802    pred/act E change: -0.420D-04 -0.538D-04
Maxdispl :   0.1623   ||displ|| :   0.2194   Lambda : -0.702D-04
Largest |displ|/coords:  0.1623 (   2)  0.0997 (   1)  0.0393 (   9)
................................................................................
.............................. CYCLE   58 ......................................
................................................................................
   1    -50.7552520 -0.507553E+02  0.885E-02    9.33       0.0  T
   2    -50.7552532 -0.120521E-05  0.669E-02    9.33       1.0  T
   3    -50.7552544 -0.122193E-05  0.532E-03    9.33       3.7  T
   4    -50.7552545 -0.123734E-06  0.241E-03    9.33       8.1  T
   5    -50.7552545 -0.933731E-08  0.757E-04    9.33      25.9  T
   6    -50.7552545 -0.595278E-09  0.404E-04    9.33      48.5  T
speedup  0.93
cpu  time for SCC    0.00 s
wall time for SCC    0.01 s
speedup  1.03
cpu  time for grad    0.01 s
wall time for grad    0.01 s
 E :    -50.46135540  G :  0.003510    pred/act E change: -0.403D-04 -0.419D-04
Maxdispl :   0.1588   ||displ|| :   0.2108   Lambda : -0.507D-04
Largest |displ|/coords:  0.1588 (   2)  0.1022 (   1)  0.0518 (   9)
................................................................................
.............................. CYCLE   59 ......................................
................................................................................
   1    -50.7550766 -0.507551E+02  0.877E-02    9.33       0.0  T
   2    -50.7550778 -0.122954E-05  0.666E-02    9.33       1.0  T
   3    -50.7550794 -0.152531E-05  0.514E-03    9.33       3.8  T
   4    -50.7550794 -0.819921E-07  0.263E-03    9.33       7.4  T
   5    -50.7550794 -0.743894E-08  0.706E-04    9.33      27.8  T
   6    -50.7550794 -0.660137E-09  0.386E-04    9.33      50.9  T
speedup  1.11
cpu  time for SCC    0.01 s
wall time for SCC    0.01 s
speedup  1.01
cpu  time for grad    0.01 s
wall time for grad    0.01 s
 E :    -50.46138952  G :  0.003244    pred/act E change: -0.368D-04 -0.341D-04
Maxdispl :   0.1407   ||displ|| :   0.1932   Lambda : -0.540D-04
Largest |displ|/coords:  0.1407 (   2)  0.0963 (   1)  0.0539 (   3)
................................................................................
.............................. CYCLE   60 ......................................
................................................................................
   1    -50.7562028 -0.507562E+02  0.633E-02    9.35       0.0  T
   2    -50.7562035 -0.673995E-06  0.479E-02    9.35       1.0  T
   3    -50.7562041 -0.614221E-06  0.475E-03    9.35       4.1  T
   4    -50.7562042 -0.880742E-07  0.222E-03    9.35       8.8  T
   5    -50.7562042 -0.497262E-08  0.513E-04    9.35      38.2  T
   6    -50.7562042 -0.222180E-09  0.328E-04    9.35      59.8  T
speedup  0.94
cpu  time for SCC    0.00 s
wall time for SCC    0.01 s
speedup  1.03
cpu  time for grad    0.01 s
wall time for grad    0.01 s
 E :    -50.46142278  G :  0.002870    pred/act E change: -0.265D-04 -0.333D-04
Maxdispl :   0.1976   ||displ|| :   0.2682   Lambda : -0.462D-04
Largest |displ|/coords:  0.1976 (   2)  0.1372 (   1)  0.0656 (   3)
................................................................................
.............................. CYCLE   61 ......................................
................................................................................
   1    -50.7555556 -0.507556E+02  0.112E-01    9.35       0.0  T
   2    -50.7555570 -0.142637E-05  0.847E-02    9.35       1.0  T
   3    -50.7555589 -0.188681E-05  0.582E-03    9.35       3.4  T
   4    -50.7555590 -0.755403E-07  0.317E-03    9.35       6.2  T
   5    -50.7555590 -0.102712E-07  0.833E-04    9.35      23.5  T
   6    -50.7555590 -0.106672E-08  0.485E-04    9.35      40.4  T
speedup  0.93
cpu  time for SCC    0.00 s
wall time for SCC    0.01 s
speedup  0.95
cpu  time for grad    0.01 s
wall time for grad    0.01 s
 E :    -50.46145007  G :  0.004265    pred/act E change: -0.280D-04 -0.273D-04
Maxdispl :   0.1109   ||displ|| :   0.1665   Lambda : -0.419D-04
Largest |displ|/coords:  0.1109 (   2)  0.0781 (   1)  0.0751 (   3)
................................................................................
.............................. CYCLE   62 ......................................
................................................................................
   1    -50.7560674 -0.507561E+02  0.606E-02    9.35       0.0  T
   2    -50.7560680 -0.540381E-06  0.457E-02    9.35       1.0  T
   3    -50.7560686 -0.596745E-06  0.409E-03    9.35       4.8  T
   4    -50.7560686 -0.514941E-07  0.186E-03    9.35      10.5  T
   5    -50.7560686 -0.380504E-08  0.569E-04    9.35      34.4  T
speedup  0.89
cpu  time for SCC    0.00 s
wall time for SCC    0.00 s
speedup  0.98
cpu  time for grad    0.01 s
wall time for grad    0.01 s
 E :    -50.46148017  G :  0.003375    pred/act E change: -0.248D-04 -0.301D-04
Maxdispl :   0.2011   ||displ|| :   0.2776   Lambda : -0.461D-04
Largest |displ|/coords:  0.2011 (   2)  0.1318 (   1)  0.1040 (   3)
................................................................................
.............................. CYCLE   63 ......................................
................................................................................
   1    -50.7554611 -0.507555E+02  0.109E-01    9.34       0.0  T
   2    -50.7554626 -0.145597E-05  0.821E-02    9.34       1.0  T
   3    -50.7554643 -0.173619E-05  0.677E-03    9.34       2.9  T
   4    -50.7554644 -0.105338E-06  0.283E-03    9.34       6.9  T
   5    -50.7554644 -0.962546E-08  0.940E-04    9.34      20.9  T
   6    -50.7554644 -0.114689E-08  0.528E-04    9.34      37.2  T
speedup  1.05
cpu  time for SCC    0.01 s
wall time for SCC    0.01 s
speedup  0.98
cpu  time for grad    0.01 s
wall time for grad    0.01 s
 E :    -50.46150773  G :  0.003830    pred/act E change: -0.215D-04 -0.276D-04
Maxdispl :   0.1043   ||displ|| :   0.1474   Lambda : -0.368D-04
Largest |displ|/coords:  0.1043 (   2)  0.0588 (   1)  0.0583 (   3)
................................................................................
.............................. CYCLE   64 ......................................
................................................................................
   1    -50.7565376 -0.507565E+02  0.569E-02    9.34       0.0  T
   2    -50.7565382 -0.593071E-06  0.427E-02    9.34       1.0  T
   3    -50.7565386 -0.445716E-06  0.524E-03    9.34       3.7  T
   4    -50.7565387 -0.790712E-07  0.190E-03    9.34      10.3  T
   5    -50.7565387 -0.449358E-08  0.505E-04    9.34      38.9  T
   6    -50.7565387 -0.213696E-09  0.304E-04    9.34      64.5  T
speedup  0.93
cpu  time for SCC    0.00 s
wall time for SCC    0.01 s
speedup  1.03
cpu  time for grad    0.01 s
wall time for grad    0.01 s
 E :    -50.46152311  G :  0.002991    pred/act E change: -0.248D-04 -0.154D-04
Maxdispl :   0.1407   ||displ|| :   0.1845   Lambda : -0.232D-04
Largest |displ|/coords:  0.1407 (   2)  0.0846 (   1)  0.0646 (   3)
................................................................................
.............................. CYCLE   65 ......................................
................................................................................
   1    -50.7555378 -0.507555E+02  0.746E-02    9.33       0.0  T
   2    -50.7555384 -0.646431E-06  0.563E-02    9.33       1.0  T
   3    -50.7555391 -0.727164E-06  0.447E-03    9.33       4.4  T
   4    -50.7555392 -0.497687E-07  0.163E-03    9.33      12.0  T
   5    -50.7555392 -0.327613E-08  0.629E-04    9.33      31.2  T
   6    -50.7555392 -0.570381E-09  0.331E-04    9.33      59.3  T
speedup  0.93
cpu  time for SCC    0.00 s
wall time for SCC    0.01 s
speedup  0.92
cpu  time for grad    0.01 s
wall time for grad    0.01 s
 E :    -50.46153636  G :  0.003922    pred/act E change: -0.188D-04 -0.133D-04
Maxdispl :   0.0654   ||displ|| :   0.0992   Lambda : -0.322D-04
Largest |displ|/coords:  0.0654 (   2)  0.0407 (   1)  0.0321 (   3)
................................................................................
[...]
   3    -50.7562912 -0.855907E-07  0.147E-03    9.34      13.3  T
   4    -50.7562912 -0.788328E-08  0.753E-04    9.34      26.0  T
   5    -50.7562912 -0.477442E-09  0.193E-04    9.34     101.7  T
speedup  1.09
cpu  time for SCC    0.00 s
wall time for SCC    0.00 s
speedup  1.02
cpu  time for grad    0.01 s
wall time for grad    0.01 s
 E :    -50.46161340  G :  0.000899    pred/act E change: -0.241D-05 -0.211D-05
Maxdispl :   0.0395   ||displ|| :   0.0578   Lambda : -0.281D-05
Largest |displ|/coords:  0.0395 (   2)  0.0259 (   3)  0.0188 (   7)
................................................................................
.............................. CYCLE   79 ......................................
................................................................................
   1    -50.7564588 -0.507565E+02  0.357E-02    9.34       0.0  T
   2    -50.7564590 -0.116034E-06  0.270E-02    9.34       1.0  T
   3    -50.7564591 -0.138594E-06  0.163E-03    9.34      12.1  T
   4    -50.7564591 -0.722860E-08  0.796E-04    9.34      24.6  T
   5    -50.7564591 -0.310273E-09  0.233E-04    9.34      84.2  T
speedup  0.87
cpu  time for SCC    0.00 s
wall time for SCC    0.00 s
speedup  1.02
cpu  time for grad    0.01 s
wall time for grad    0.01 s
 E :    -50.46161517  G :  0.000936    pred/act E change: -0.149D-05 -0.177D-05
Maxdispl :   0.0113   ||displ|| :   0.0217   Lambda : -0.194D-05
Largest |displ|/coords:  0.0113 (   2)  0.0077 (   7)  0.0073 (   4)
................................................................................
.............................. CYCLE   80 ......................................
................................................................................
   1    -50.7566348 -0.507566E+02  0.149E-02    9.34       0.0  T
   2    -50.7566348 -0.382661E-07  0.112E-02    9.34       1.7  T
   3    -50.7566349 -0.380155E-07  0.127E-03    9.34      15.4  T
   4    -50.7566349 -0.356260E-08  0.370E-04    9.34      53.1  T
   5    -50.7566349 -0.188592E-09  0.117E-04    9.34     167.8  T
speedup  0.87
cpu  time for SCC    0.00 s
wall time for SCC    0.00 s
speedup  0.94
cpu  time for grad    0.01 s
wall time for grad    0.01 s
 E :    -50.46161621  G :  0.000585    pred/act E change: -0.141D-05 -0.104D-05
Maxdispl :   0.0396   ||displ|| :   0.0509   Lambda : -0.109D-05
Largest |displ|/coords:  0.0396 (   2)  0.0229 (   3)  0.0087 (   7)
................................................................................
.............................. CYCLE   81 ......................................
................................................................................
   1    -50.7564926 -0.507565E+02  0.238E-02    9.34       0.0  T
   2    -50.7564926 -0.477260E-07  0.179E-02    9.34       1.1  T
   3    -50.7564927 -0.582706E-07  0.121E-03    9.34      16.2  T
   4    -50.7564927 -0.233818E-08  0.389E-04    9.34      50.4  T
   5    -50.7564927 -0.125020E-09  0.169E-04    9.34     116.4  T
speedup  1.06
cpu  time for SCC    0.00 s
wall time for SCC    0.00 s
speedup  1.01
cpu  time for grad    0.01 s
wall time for grad    0.01 s
 E :    -50.46161679  G :  0.000599    pred/act E change: -0.972D-06 -0.581D-06
Maxdispl :   0.0043   ||displ|| :   0.0094   Lambda : -0.666D-06
Largest |displ|/coords:  0.0043 (   1)  0.0032 (   5)  0.0028 (   2)

generating ANC from model Hessian ...
 Shifting diagonal of input Hessian by   5.231915981423207E-003
 Lowest  eigenvalues of input Hessian
    0.005000   -0.000000   -0.000000   -0.000000    0.000000    0.000000
    0.000000    0.005310    0.005681    0.005869    0.006405    0.006933
    0.007852    0.008674    0.009250    0.010014    0.010645    0.011365
 Highest eigenvalues
    1.411787    1.416562    1.420175    2.618687    3.450582    3.599974
 
cpu  time for ANC gen    0.02 s
wall time for ANC gen    0.02 s
................................................................................
.............................. CYCLE   82 ......................................
................................................................................
   1    -50.7565467 -0.507565E+02  0.530E-03    9.34       0.0  T
   2    -50.7565467 -0.980216E-08  0.393E-03    9.34       5.0  T
   3    -50.7565467 -0.648852E-08  0.677E-04    9.34      28.9  T
   4    -50.7565467 -0.133966E-08  0.329E-04    9.34      59.6  T
speedup  1.11
cpu  time for SCC    0.00 s
wall time for SCC    0.00 s
speedup  1.02
cpu  time for grad    0.01 s
wall time for grad    0.01 s
 E :    -50.46161726  G :  0.000363    pred/act E change:  0.000D+00 -0.473D-06
Maxdispl :   0.0038   ||displ|| :   0.0058   Lambda : -0.477D-06
Largest |displ|/coords:  0.0038 (   1)  0.0021 (   5)  0.0013 (   3)
................................................................................
.............................. CYCLE   83 ......................................
................................................................................
   1    -50.7565631 -0.507566E+02  0.497E-03    9.34       0.0  T
   2    -50.7565631 -0.501225E-08  0.378E-03    9.34       5.2  T
   3    -50.7565631 -0.477152E-08  0.348E-04    9.34      56.4  T
   4    -50.7565631 -0.616431E-09  0.145E-04    9.34     135.5  T
speedup  1.00
cpu  time for SCC    0.00 s
wall time for SCC    0.00 s
speedup  0.97
cpu  time for grad    0.01 s
wall time for grad    0.01 s
 E :    -50.46161763  G :  0.000218    pred/act E change:  0.000D+00 -0.367D-06
Maxdispl :   0.0105   ||displ|| :   0.0139   Lambda : -0.682D-06
Largest |displ|/coords:  0.0105 (   1)  0.0042 (   5)  0.0025 (  29)
................................................................................
.............................. CYCLE   84 ......................................
................................................................................
   1    -50.7565877 -0.507566E+02  0.995E-03    9.34       0.0  T
   2    -50.7565877 -0.208516E-07  0.755E-03    9.34       2.6  T
   3    -50.7565878 -0.175696E-07  0.729E-04    9.34      26.9  T
   4    -50.7565878 -0.309481E-08  0.293E-04    9.34      66.8  T
speedup  1.05
cpu  time for SCC    0.00 s
wall time for SCC    0.00 s
speedup  0.98
cpu  time for grad    0.01 s
wall time for grad    0.01 s
 E :    -50.46161806  G :  0.000222    pred/act E change: -0.238D-06 -0.435D-06
Maxdispl :   0.0090   ||displ|| :   0.0114   Lambda : -0.324D-06
Largest |displ|/coords:  0.0090 (   1)  0.0034 (   5)  0.0023 (   4)
................................................................................
.............................. CYCLE   85 ......................................
................................................................................
   1    -50.7565976 -0.507566E+02  0.726E-03    9.34       0.0  T
   2    -50.7565976 -0.992639E-08  0.550E-03    9.34       3.6  T
   3    -50.7565976 -0.784425E-08  0.535E-04    9.34      36.7  T
   4    -50.7565976 -0.150738E-08  0.223E-04    9.34      88.0  T
speedup  1.08
cpu  time for SCC    0.00 s
wall time for SCC    0.00 s
speedup  1.00
cpu  time for grad    0.01 s
wall time for grad    0.01 s
 E :    -50.46161824  G :  0.000246    pred/act E change: -0.341D-06 -0.182D-06
Maxdispl :   0.0103   ||displ|| :   0.0125   Lambda : -0.311D-06
Largest |displ|/coords:  0.0103 (   1)  0.0029 (   5)  0.0028 (  15)
................................................................................
.............................. CYCLE   86 ......................................
................................................................................
   1    -50.7566051 -0.507566E+02  0.693E-03    9.34       0.0  T
   2    -50.7566051 -0.830129E-08  0.523E-03    9.34       3.7  T
   3    -50.7566051 -0.728618E-08  0.487E-04    9.34      40.3  T
   4    -50.7566051 -0.111589E-08  0.214E-04    9.34      91.5  T
speedup  1.08
cpu  time for SCC    0.00 s
wall time for SCC    0.00 s
speedup  1.01
cpu  time for grad    0.01 s
wall time for grad    0.01 s
 E :    -50.46161842  G :  0.000197    pred/act E change: -0.162D-06 -0.173D-06
Maxdispl :   0.0040   ||displ|| :   0.0050   Lambda : -0.139D-06
Largest |displ|/coords:  0.0040 (   1)  0.0013 (   6)  0.0011 (   4)
................................................................................
.............................. CYCLE   87 ......................................
................................................................................
   1    -50.7566099 -0.507566E+02  0.237E-03    9.34       0.0  T
   2    -50.7566099 -0.127128E-08  0.179E-03    9.34      11.0  T
   3    -50.7566099 -0.141925E-08  0.214E-04    9.34      91.6  T
   4    -50.7566099 -0.114127E-09  0.726E-05    9.34     270.1  T
speedup  1.08
cpu  time for SCC    0.00 s
wall time for SCC    0.00 s
speedup  1.01
cpu  time for grad    0.01 s
wall time for grad    0.01 s
 E :    -50.46161851  G :  0.000128    pred/act E change: -0.155D-06 -0.945D-07
Maxdispl :   0.0049   ||displ|| :   0.0062   Lambda : -0.993D-07
Largest |displ|/coords:  0.0049 (   1)  0.0016 (   6)  0.0015 (   3)

   *** GEOMETRY OPTIMIZATION CONVERGED AFTER 87 ITERATIONS ***

------------------------------------------------------------------------
 total energy gain (kcal):     -0.0008
------------------------------------------------------------------------
================
 final structure:
================
$coord
       -1.75949796098528       -1.08198164912866        4.30394515179249      S 
       -0.39761113242497       -3.46906359261996        4.42352192770118      O 
       -0.03253725899935        1.06820319750207        4.44640915981729      O 
       -3.44456375571874       -0.92336463227376        2.15894720709157      O 
       -3.46822376578682       -0.95093521739323        6.75968591033544      O 
       -2.24583846227588       -1.06387954724956        8.07473497302815      H 
       -2.63595032878269        0.69429082101278       -2.61268184941916      O 
       -3.51777799107522        0.77103438488463       -1.00306456815366      H 
        2.60345379250722       -4.23510342255130        0.65331012847334      O 
        3.84427919088450       -5.47194768247321        1.10921480072859      H 
        1.48980367685591       -4.03862245676175        2.15952100709352      H 
        4.07792643370729        4.74053262340274       -2.48474502551322      O 
        2.60389392874552        4.86393183451198       -3.60104633178333      H 
        4.22217127929012        6.34521888197389       -1.65777162393060      H 
       -0.31043848737439        4.64779640726240       -5.10765434924847      O 
       -0.41542139154160        4.31718063410136       -6.88509127115651      H 
       -1.37651784653447        3.39621183564822       -4.28476838200360      H 
       -2.21636742261717       -4.21405050748579       -1.68542391729051      O 
       -2.60632746554545       -1.13173705140424       -2.95668610107646      H 
       -0.49940443745741       -4.67299541494387       -1.26441796528348      H 
       -2.93675492716303       -3.57690923828110       -0.11984159557095      H 
        1.84852903080919        0.80677863736672       -0.09546929527489      N 
        2.65074216987762       -0.97070267838582       -0.13415951589650      H 
        0.21348340310720        0.79664222142405       -1.21092170003767      H 
        1.25496956861153        1.14702272066908        1.78779781510018      H 
        3.05398015986601        2.20644891006591       -0.77334460840750      H 
$end
 
 Bond Distances (Angstroems)
 ---------------------------
S1-O2=1.4557         S1-O3=1.4613         S1-O4=1.4459         S1-O5=1.5847         O2-S1=1.4557         O3-S1=1.4613         
O4-S1=1.4459         O5-S1=1.5847         O5-H6=0.9520         H6-O5=0.9520         O7-H8=0.9721         O7-H19=0.9834        
H8-O7=0.9721         O9-H10=0.9580        O9-H11=0.9967        H10-O9=0.9580        H11-O9=0.9967        O12-H13=0.9806       
O12-H14=0.9583       H13-O12=0.9806       H14-O12=0.9583       O15-H16=0.9583       O15-H17=0.9729       H16-O15=0.9583       
H17-O15=0.9729       O18-H20=0.9665       O18-H21=0.9723       H19-O7=0.9834        H20-O18=0.9665       H21-O18=0.9723       
N22-H23=1.0322       N22-H24=1.0474       N22-H25=1.0603       N22-H26=1.0412       H23-N22=1.0322       H24-N22=1.0474       
H25-N22=1.0603       H26-N22=1.0412       
 N  H  Rav=1.0453 sigma=0.0102  Rmin=1.0322  Rmax=1.0603     4
 O  H  Rav=0.9701 sigma=0.0127  Rmin=0.9520  Rmax=0.9967    11
 S  O  Rav=1.4869 sigma=0.0567  Rmin=1.4459  Rmax=1.5847     4
 
 selected bond angles (degree)
 --------------------
O3-S1-O2=111.33                O4-S1-O2=112.94                O4-S1-O3=112.39                O5-S1-O2=106.55                
O5-S1-O3=106.29                O5-S1-O4=106.82                H6-O5-S1=102.06                H19-O7-H8=102.18               
H11-O9-H10=105.97              
 
 selected dihedral angles (degree)
 ---------------------------------
H6-O5-S1-O2= 59.04            H6-O5-S1-O3=300.21            H6-O5-S1-O4=180.02            
 
 CMA Distance (Angstroems)
 ---------------------------
R(CMA):  3.6357

========================================================================
 FINAL SINGLEPOINT CALCULATION ON OPTIMIZED GEOMETRY
========================================================================

 Ncao       : 65
 Nao        : 64
 Nshell     : 38
 Nel        : 80
 T(el)      :   300.0
 intcut     :    25.0
 scfconv/Eh :  0.100E-05
   qconv/e  :  0.100E-03
 intneglect :  0.100E-07
 broydamp   :      0.250
 iter      E             dE          RMSdq      gap      omega  full diag
   1    -50.7566099 -0.507566E+02  0.266E-05    9.34       0.0  T
   2    -50.7566099 -0.802913E-12  0.171E-05    9.34    1145.7  T
   3    -50.7566099 -0.468958E-12  0.410E-06    9.34    4778.5  T
speedup  1.11
cpu  time for SCC    0.00 s
wall time for SCC    0.00 s

   *** convergence criteria satisfied after 3 iterations ***

          eigenvalues
 #    :          28         29         30         31         32         33         34         35
 occ. :        2.000      2.000      2.000      2.000      2.000      2.000      2.000      2.000
 eps  :       -13.577    -13.198    -12.578    -12.423    -12.351    -12.266    -12.250    -12.096
 #    :          36         37         38         39         40         41         42         43
 occ. :        2.000      2.000      2.000      2.000      2.000      0.000      0.000      0.000
 eps  :       -12.078    -11.840    -11.752    -11.667    -11.543     -2.203     -0.752     -0.313
 #    :          44         45         46         47         48         49         50         51
 occ. :        0.000      0.000      0.000      0.000      0.000      0.000      0.000      0.000
 eps  :         0.929      1.264      1.461      1.875      2.666      3.640      4.028      5.144


   #   Z            q   n(s)   n(p)   n(d)      C6AA      α(0)
   1  16 S      1.637  1.587  1.810  0.966    90.209    15.986
   2   8 O     -0.744  1.773  4.971  0.000    29.948     7.337
   3   8 O     -0.737  1.770  4.967  0.000    29.734     7.311
   4   8 O     -0.723  1.756  4.966  0.000    29.335     7.262
   5   8 O     -0.578  1.749  4.829  0.000    24.626     6.699
   6   1 H      0.342  0.658  0.000  0.000     0.598     1.210
   7   8 O     -0.625  1.749  4.876  0.000    25.793     6.854
   8   1 H      0.326  0.674  0.000  0.000     0.649     1.266
   9   8 O     -0.634  1.745  4.889  0.000    26.023     6.885
  10   1 H      0.286  0.714  0.000  0.000     0.763     1.372
  11   1 H      0.336  0.664  0.000  0.000     0.623     1.240
  12   8 O     -0.601  1.743  4.858  0.000    25.217     6.777
  13   1 H      0.332  0.668  0.000  0.000     0.632     1.249
  14   1 H      0.286  0.714  0.000  0.000     0.763     1.372
  15   8 O     -0.603  1.742  4.861  0.000    25.258     6.783
  16   1 H      0.287  0.713  0.000  0.000     0.761     1.371
  17   1 H      0.330  0.670  0.000  0.000     0.639     1.255
  18   8 O     -0.619  1.749  4.870  0.000    25.649     6.835
  19   1 H      0.336  0.664  0.000  0.000     0.623     1.240
  20   1 H      0.308  0.692  0.000  0.000     0.698     1.312
  21   1 H      0.312  0.688  0.000  0.000     0.687     1.302
  22   7 N     -0.369  1.280  4.088  0.000    29.489     8.065
  23   1 H      0.271  0.729  0.000  0.000     0.808     1.408
  24   1 H      0.280  0.720  0.000  0.000     0.777     1.381
  25   1 H      0.283  0.717  0.000  0.000     0.765     1.370
  26   1 H      0.282  0.718  0.000  0.000     0.771     1.376

 Mol. C6AA /au·bohr⁶  :       5439.273073
 Mol. C8AA /au·bohr⁸  :     117821.868941
 Mol. α(0) /au        :        106.518214

 
 Wiberg/Mayer (AO) data. WBOs > 0.1 written file <wbo>
 largest (>0.05) Wiberg bond orders for each atom
           total WBO             WBO to atom ...
     1  S   4.893    O    4 1.362    O    2 1.306    O    3 1.286    O    5 0.902
     2  O   1.723    S    1 1.306    O    4 0.112    O    3 0.110    H   11 0.086    O    5 0.073
     3  O   1.740    S    1 1.286    O    4 0.112    O    2 0.110    H   25 0.108    O    5 0.072
     4  O   1.735    S    1 1.362    O    2 0.112    O    3 0.112    O    5 0.062
     5  O   1.984    S    1 0.902    H    6 0.866    O    2 0.073    O    3 0.072    O    4 0.062
     6  H   0.883    O    5 0.866
     7  O   1.916    H    8 0.861    H   19 0.825    H   24 0.089
     8  H   0.894    O    7 0.861
     9  O   1.858    H   10 0.909    H   11 0.794    H   23 0.051
    10  H   0.918    O    9 0.909
    11  H   0.887    O    9 0.794    O    2 0.086
    12  O   1.890    H   14 0.915    H   13 0.834    H   26 0.074
    13  H   0.890    O   12 0.834    O   15 0.054
    14  H   0.918    O   12 0.915
    15  O   1.865    H   16 0.914    H   17 0.852    H   13 0.054
    16  H   0.918    O   15 0.914
    17  H   0.891    O   15 0.852
    18  O   1.862    H   20 0.878    H   21 0.868    H   19 0.054
    19  H   0.887    O    7 0.825    O   18 0.054
    20  H   0.905    O   18 0.878
    21  H   0.903    O   18 0.868
    22  N   3.523    H   23 0.871    H   26 0.843    H   24 0.825    H   25 0.803
    23  H   0.927    N   22 0.871    O    9 0.051
    24  H   0.922    N   22 0.825    O    7 0.089
    25  H   0.920    N   22 0.803    O    3 0.108
    26  H   0.921    N   22 0.843    O   12 0.074
 MOs/occ written to file <molden.input>
 
molecular dipole:
                 x           y           z       tot (Debye)
 q only:        1.593       0.880      -1.204
   full:        1.330       0.605      -0.355       3.823
molecular quadrupole (traceless):
                xx          xy          yy          xz          yz          zz
 q only:       -3.739      -4.027       0.452       4.538      -2.560       3.287
  q+dip:       -7.168      -5.685      -0.285       4.148      -5.546       7.452
   full:       -7.328      -5.830      -0.752       3.848      -5.362       8.079

SCC energy    :     -50.7566099
rep           :       0.2947710
ES            :       0.2660851
AES           :      -0.0719785
AXC           :      -0.0085555
disp          :      -0.0181396
XB            :       0.0000000
fix           :       0.0000000
total E       :     -50.4616185
atomizationE  :       4.9919227     3132.48
(atE without considering molecular charge,
 total energy contains solvation terms)
H-L gap (eV)  :          9.3404
optimized geometry written to: xtbopt.xyz


------------------------------------------------------------------------
 * finished run on 2019/09/16 at 11:18:36.901     
------------------------------------------------------------------------
 total:
 * wall-time:     0 d,  0 h,  0 min,  2.380 sec
 *  cpu-time:     0 d,  0 h,  0 min,  2.023 sec
 * ratio c/w:     0.850 speedup
 SCF:
 * wall-time:     0 d,  0 h,  0 min,  0.462 sec
 *  cpu-time:     0 d,  0 h,  0 min,  0.155 sec
 * ratio c/w:     0.335 speedup
 ANC optimizer:
 * wall-time:     0 d,  0 h,  0 min,  1.888 sec
 *  cpu-time:     0 d,  0 h,  0 min,  1.840 sec
 * ratio c/w:     0.975 speedup

