      -----------------------------------------------------------      
     |                   =====================                   |     
     |                           x T B                           |     
     |                   =====================                   |     
     |                         S. Grimme                         |     
     |          Mulliken Center for Theoretical Chemistry        |     
     |                    University of Bonn                     |     
     |                 Version 6.0.1 (SAW181210)                 |     
      -----------------------------------------------------------      

   This program is distributed in the hope that it will be useful,
   but WITHOUT ANY WARRANTY; without even the implied warranty of
   MERCHANTABILITY or FITNESS FOR A PARTICULAR PURPOSE.
   
   FOR NON-COMMERCIAL, ACADEMIA USE ONLY.
   
   Cite this work as:
   S. Grimme, C. Bannwarth, P. Shushkov, J. Comput. Theory Chem., 2017,
   13, 1989-2009.
   C. Bannwarth, S. Ehlert and S. Grimme., ChemRxiv, 2018, preprint.
   http://doi.org/10.26434/chemrxiv.7246238.v1
   
   for sTDA-xTB:
   S. Grimme and C. Bannwarth, J. Chem. Phys., 2016, 145, 054103.
   
   in the mass-spec context:
   V. Asgeirsson, C. Bauer and S. Grimme, Chem. Sci., 2017, 8, 4879.
   
   if GBSA is used:
   P. Shushkov, F. März and S. Grimme, unpublished.
   
   for ANC optimizer:
   S. Grimme, unpublished.
   Rational Function algorithm used in ANCopt:
   F. Eckert, P. Pulay, H.-J. Werner, J. Comput. Chem., 1997, 18, 1473.
   
   with help from (in alphabetical order)
   C. Bannwarth, F. Bohle, G. Brandenburg, E. Caldeweyher, M. Checinski,
   S. Dohm, S. Ehlert, S. Ehrlich, F. März, H. Neugebauer, J. Pisarek,
   P. Pracht, P. Shushkov, and S. Spicher.
   
 * started run on 2019/09/16 at 12:45:19.446     
========================================================================
 # omp threads = 1
========================================================================
number of atoms            : 26
number of electrons        : 80
charge                     : 0
spin                       : .0
first test random number   : .7311

########################################################################
# WARNING! Please study the warnings concerning your input carefully
#  - XTBPATH is not set, using XTBHOME instead
#  - the use of '-opt' is discouraged, please use '--opt' next time
#  - the use of '-chrg' is discouraged, please use '--chrg' next time
#  - the use of '-uhf' is discouraged, please use '--uhf' next time
########################################################################

           ------------------------------------------------- 
          |                 G F N 2 - x T B                 |
          | Geometry, Frequencies, Noncovalent interactions |
          |            JCTC 2018 parametrisation            |
           ------------------------------------------------- 
      method parameters     
 k(s)        :  1.8500
 k(p)        :  2.2300
 k(d)        :  2.2300
 k(f)        :  2.0000
 kEN (H0ij)  : -2.0000
 D4 a1       :  0.5200
 D4 a2       :  5.0000
 D4 s6       :  1.0000
 D4 s8       :  2.7000
 D4 s9       :  5.0000
 alphaj      :  2.0000


            Z     q(EN)     CN     RAES       Cart. coordinates
     1  S   6.0    0.64    4.28    4.20    -2.16509    -3.73823     0.15062
     2  O   6.0   -0.31    1.23    1.80    -3.44947    -1.83404     1.77928
     3  O   6.0   -0.32    1.19    1.80    -1.69763    -2.63238    -2.39628
     4  O   6.0   -0.32    1.23    1.80     0.28898    -4.47129     1.32037
     5  O   6.0   -0.25    2.08    1.84    -3.77982    -5.98403    -0.09745
     6  H   1.0    0.15    1.21    1.47    -5.36124    -5.51259    -0.85107
     7  O   6.0   -0.42    1.75    1.81     2.36732     2.08640     0.78700
     8  H   1.0    0.17    0.95    1.42     3.63160     3.43265     1.05712
     9  O   6.0   -0.29    2.04    1.83    -0.23560     2.21115    -3.16623
    10  H   1.0    0.17    1.11    1.45     0.88908     2.27634    -1.73603
    11  H   1.0    0.17    1.03    1.43    -0.87883     0.50821    -3.19567
    12  O   6.0   -0.29    2.04    1.83    -3.61855     5.38423    -1.24151
    13  H   1.0    0.16    1.03    1.43    -2.48951     4.45957    -2.33004
    14  H   1.0    0.15    0.97    1.43    -4.46690     6.57433    -2.32712
    15  O   6.0   -0.26    1.96    1.82     3.37283    -1.22974     4.08285
    16  H   1.0    0.17    1.01    1.43     2.19084    -2.52869     3.60298
    17  H   1.0    0.17    1.10    1.44     3.01288     0.17790     2.98576
    18  O   6.0   -0.22    2.92    2.58    -1.80996     2.72602     2.48905
    19  H   1.0    0.16    1.19    1.46    -0.00912     2.57076     2.01712
    20  H   1.0    0.14    1.05    1.44    -2.72515     3.91638     1.37754
    21  H   1.0    0.16    1.06    1.44    -2.65553     1.06210     2.57777
    22  N   5.0   -0.14    3.96    2.75     3.91777    -1.89101    -1.37721
    23  H   1.0    0.08    0.99    1.43     5.82948    -2.22283    -1.23672
    24  H   1.0    0.12    1.15    1.45     3.49987    -0.16276    -0.58794
    25  H   1.0    0.09    0.99    1.43     3.39556    -1.89138    -3.25117
    26  H   1.0    0.11    1.06    1.44     2.94619    -3.28706    -0.43302

  Z AO/shell   Hii/eV     exponent
  1     Wed Apr 25 08:07:45 CEST 2018   EN: 2.200 GM2: 0.406  GM3: 0.0800  RAES: 1.40
     1s    -10.707211    1.230000
  7     Wed Apr 25 08:07:45 CEST 2018   EN: 3.040 GM2: 0.461  GM3:-0.0640  RAES: 1.90
     2s    -16.686243    2.339881
     2p    -12.523956    2.014332
  8     Wed Apr 25 08:07:45 CEST 2018   EN: 3.440 GM2: 0.452  GM3:-0.0517  RAES: 1.80
     2s    -20.229985    2.439742
     2p    -15.503117    2.137023
 16     Tue Apr 24 11:44:34 CEST 2018   EN: 2.580 GM2: 0.340  GM3:-0.0502  RAES: 3.10
     3s    -20.029654    1.981333
     3p    -11.377694    2.025643
     3d     -0.420282    1.702555
 no old-style atom pair restraining (fixing) potential

molecular fragmentation (1/2 indicates fragments):
11111122222222222222222222
# atoms in fragment 1/2:     6    20
 fragment masses (1/2) :       97.07      108.11
CMA distance (Bohr)    :   6.007
constraining FC (au)   :  0.0500
           ------------------------------------------------- 
          |        Self-Consistent Charge Iterations        |
           ------------------------------------------------- 

 Ncao       : 65
 Nao        : 64
 Nshell     : 38
 Nel        : 80
 T(el)      :   300.0
 intcut     :    25.0
 scfconv/Eh :  0.100E-05
   qconv/e  :  0.100E-03
 intneglect :  0.100E-07
 broydamp   :      0.250
 iter      E             dE          RMSdq      gap      omega  full diag
   1    -50.5917395 -0.505917E+02  0.703E+00   10.38       0.0  T
   2    -50.6427048 -0.509653E-01  0.507E+00    9.75       1.0  T
   3    -50.6830533 -0.403485E-01  0.133E+00    7.77       1.0  T
   4    -50.6877926 -0.473926E-02  0.583E-01    8.23       1.0  T
   5    -50.6885297 -0.737105E-03  0.295E-01    8.26       1.0  T
   6    -50.6889287 -0.398995E-03  0.133E-01    8.33       1.0  T
   7    -50.6890291 -0.100427E-03  0.461E-02    8.32       1.0  T
   8    -50.6890386 -0.950245E-05  0.296E-02    8.31       1.0  T
   9    -50.6890441 -0.542065E-05  0.882E-03    8.33       2.2  T
  10    -50.6890445 -0.441571E-06  0.209E-03    8.33       9.4  T
  11    -50.6890445 -0.148250E-07  0.110E-03    8.33      17.9  T
  12    -50.6890445 -0.599253E-08  0.340E-04    8.33      57.6  T
  13    -50.6890445 -0.512898E-09  0.132E-04    8.33     148.4  T
speedup  0.96
cpu  time for SCC    0.01 s
wall time for SCC    0.02 s

   *** convergence criteria satisfied after 13 iterations ***

          eigenvalues
 #    :          28         29         30         31         32         33         34         35
 occ. :        2.000      2.000      2.000      2.000      2.000      2.000      2.000      2.000
 eps  :       -12.854    -12.341    -12.101    -11.776    -11.720    -11.489    -11.205    -11.154
 #    :          36         37         38         39         40         41         42         43
 occ. :        2.000      2.000      2.000      2.000      2.000      0.000      0.000      0.000
 eps  :       -11.096    -11.069    -10.901    -10.322    -10.278     -1.948     -0.965     -0.186
 #    :          44         45         46         47         48         49         50         51
 occ. :        0.000      0.000      0.000      0.000      0.000      0.000      0.000      0.000
 eps  :         0.076      1.099      1.339      2.325      3.221      3.721      4.166      4.697


   #   Z            q   n(s)   n(p)   n(d)      C6AA      α(0)
   1  16 S      1.603  1.584  1.838  0.976    91.006    16.056
   2   8 O     -0.758  1.770  4.988  0.000    30.338     7.385
   3   8 O     -0.767  1.778  4.989  0.000    30.608     7.418
   4   8 O     -0.734  1.770  4.963  0.000    29.639     7.299
   5   8 O     -0.547  1.721  4.826  0.000    23.914     6.602
   6   1 H      0.360  0.640  0.000  0.000     0.558     1.169
   7   8 O     -0.838  1.838  5.000  0.000    32.744     7.673
   8   1 H      0.226  0.774  0.000  0.000     0.994     1.567
   9   8 O     -0.685  1.763  4.922  0.000    27.302     7.052
  10   1 H      0.321  0.679  0.000  0.000     0.660     1.275
  11   1 H      0.309  0.691  0.000  0.000     0.694     1.308
  12   8 O     -0.623  1.732  4.891  0.000    25.739     6.847
  13   1 H      0.337  0.663  0.000  0.000     0.620     1.237
  14   1 H      0.283  0.717  0.000  0.000     0.774     1.382
  15   8 O     -0.675  1.764  4.911  0.000    27.041     7.018
  16   1 H      0.289  0.711  0.000  0.000     0.755     1.365
  17   1 H      0.305  0.695  0.000  0.000     0.705     1.318
  18   8 O     -0.453  1.656  4.797  0.000    21.842     6.312
  19   1 H      0.408  0.592  0.000  0.000     0.464     1.067
  20   1 H      0.402  0.598  0.000  0.000     0.481     1.089
  21   1 H      0.403  0.597  0.000  0.000     0.479     1.088
  22   7 N     -0.291  1.255  4.036  0.000    27.487     7.787
  23   1 H      0.242  0.758  0.000  0.000     0.916     1.499
  24   1 H      0.326  0.674  0.000  0.000     0.639     1.251
  25   1 H      0.255  0.745  0.000  0.000     0.866     1.458
  26   1 H      0.301  0.699  0.000  0.000     0.712     1.322

 Mol. C6AA /au·bohr⁶  :       5486.639308
 Mol. C8AA /au·bohr⁸  :     118998.071449
 Mol. α(0) /au        :        106.844521

 
 Wiberg/Mayer (AO) data. WBOs > 0.1 written file <wbo>
 largest (>0.05) Wiberg bond orders for each atom
           total WBO             WBO to atom ...
     1  S   4.911    O    4 1.307    O    3 1.297    O    2 1.278    O    5 0.992
     2  O   1.686    S    1 1.278    O    3 0.115    O    4 0.110    H   21 0.083    O    5 0.070
     3  O   1.660    S    1 1.297    O    2 0.115    O    4 0.114    O    5 0.074
     4  O   1.719    S    1 1.307    O    3 0.114    O    2 0.110    H   26 0.057    O    5 0.054
     5  O   2.043    S    1 0.992    H    6 0.847    O    3 0.074    O    2 0.070    O    4 0.054
     6  H   0.870    O    5 0.847
     7  O   1.663    H    8 0.941    H   19 0.180    H   24 0.146    H   10 0.097    H   17 0.086    N   22 0.062    O   18 0.056
     8  H   0.949    O    7 0.941
     9  O   1.824    H   11 0.860    H   10 0.795    H   13 0.062
    10  H   0.897    O    9 0.795    O    7 0.097
    11  H   0.904    O    9 0.860
    12  O   1.842    H   14 0.905    H   13 0.823    H   20 0.063
    13  H   0.887    O   12 0.823    O    9 0.062
    14  H   0.920    O   12 0.905
    15  O   1.775    H   16 0.888    H   17 0.816
    16  H   0.916    O   15 0.888
    17  H   0.907    O   15 0.816    O    7 0.086
    18  O   2.291    H   20 0.767    H   21 0.747    H   19 0.646    O    7 0.056
    19  H   0.833    O   18 0.646    O    7 0.180
    20  H   0.838    O   18 0.767    O   12 0.063
    21  H   0.838    O   18 0.747    O    2 0.083
    22  N   3.551    H   23 0.937    H   25 0.928    H   26 0.843    H   24 0.735    O    7 0.062
    23  H   0.942    N   22 0.937
    24  H   0.894    N   22 0.735    O    7 0.146
    25  H   0.935    N   22 0.928
    26  H   0.910    N   22 0.843    O    4 0.057
 MOs/occ written to file <molden.input>
 
molecular dipole:
                 x           y           z       tot (Debye)
 q only:        0.624       0.859      -1.518
   full:        0.200       0.338      -2.035       5.267
molecular quadrupole (traceless):
                xx          xy          yy          xz          yz          zz
 q only:       14.967      -5.943      -0.875     -10.655       9.594     -14.092
  q+dip:       16.698      -1.045       2.635     -10.505       8.892     -19.333
   full:       16.851      -0.698       2.916     -10.016       8.753     -19.767

SCC energy    :     -50.6890445
rep           :       0.2954684
ES            :       0.3217170
AES           :      -0.0751989
AXC           :      -0.0086752
disp          :      -0.0196980
XB            :       0.0000000
fix           :       0.0000000
total E       :     -50.3932604
atomizationE  :       4.9235645     3089.58
(atE without considering molecular charge,
 total energy contains solvation terms)
H-L gap (eV)  :          8.3302
           ------------------------------------------------- 
          |                 ===============                 |
          |                   A N C O P T                   |
          |                 ===============                 |
          |          Approximate Normal Coordinate          |
          |           Rational Function Optimizer           |
           ------------------------------------------------- 
dumping coords to <xtbopt.coord> and <xtbopt.log>
 optlevel               2
 Maxcycle             520
 Maxmicro              25
 Econv         1.000000000000000E-007
 Gconv         2.000000000000000E-004
 Maxdispl       1.00000000000000     
 Hlow          5.000000000000000E-003
 S6             20.0000000000000     
 Nvar               72

generating ANC from model Hessian ...
 Shifting diagonal of input Hessian by   5.617937821380441E-003
 Lowest  eigenvalues of input Hessian
    0.005000    0.005588   -0.000000   -0.000000    0.000000    0.000000
    0.000000    0.000000    0.006131    0.006289    0.006663    0.007363
    0.007807    0.008065    0.008590    0.009125    0.010272    0.010943
 Highest eigenvalues
    1.453533    1.560253    1.586711    3.143362    3.212234    3.317471
 
cpu  time for ANC gen    0.02 s
wall time for ANC gen    0.03 s
................................................................................
.............................. CYCLE    1 ......................................
................................................................................
   1    -50.6890445 -0.506890E+02  0.711E-05    8.33       0.0  T
   2    -50.6890445 -0.103313E-10  0.545E-05    8.33     359.6  T
   3    -50.6890445 -0.113758E-10  0.231E-05    8.33     848.5  T
speedup  1.07
cpu  time for SCC    0.00 s
wall time for SCC    0.00 s
speedup  0.97
cpu  time for grad    0.01 s
wall time for grad    0.01 s
 E :    -50.39326032  G :  0.196751    pred/act E change:  0.000D+00  0.461D-07
Maxdispl :   0.1471   ||displ|| :   0.3489   Lambda : -0.284D-01
Largest |displ|/coords:  0.1471 (  32)  0.1226 (  23)  0.1091 (  26)
................................................................................
.............................. CYCLE    2 ......................................
................................................................................
   1    -50.6949259 -0.506949E+02  0.296E-01    8.22       0.0  T
   2    -50.6950985 -0.172620E-03  0.220E-01    8.27       1.0  T
   3    -50.6951751 -0.765989E-04  0.808E-02    8.35       1.0  T
   4    -50.6951873 -0.122045E-04  0.188E-02    8.33       1.0  T
   5    -50.6951879 -0.621154E-06  0.446E-03    8.32       4.4  T
   6    -50.6951880 -0.262594E-07  0.280E-03    8.32       7.0  T
speedup  1.13
cpu  time for SCC    0.01 s
wall time for SCC    0.01 s
speedup  1.06
cpu  time for grad    0.01 s
wall time for grad    0.01 s
 E :    -50.41488187  G :  0.116511    pred/act E change:  0.000D+00 -0.216D-01
Maxdispl :   0.1232   ||displ|| :   0.3499   Lambda : -0.125D-01
Largest |displ|/coords:  0.1232 (  12)  0.1217 (  26)  0.1213 (  23)
................................................................................
.............................. CYCLE    3 ......................................
................................................................................
   1    -50.7003823 -0.507004E+02  0.199E-01    8.26       0.0  T
   2    -50.7005279 -0.145560E-03  0.148E-01    8.29       1.0  T
   3    -50.7005834 -0.555698E-04  0.715E-02    8.33       1.0  T
   4    -50.7005881 -0.469684E-05  0.148E-02    8.32       1.3  T
   5    -50.7005885 -0.345851E-06  0.406E-03    8.32       4.8  T
   6    -50.7005885 -0.282802E-07  0.222E-03    8.32       8.8  T
speedup  1.13
cpu  time for SCC    0.01 s
wall time for SCC    0.01 s
speedup  1.05
cpu  time for grad    0.01 s
wall time for grad    0.01 s
 E :    -50.42491141  G :  0.072138    pred/act E change: -0.160D-01 -0.100D-01
Maxdispl :   0.1196   ||displ|| :   0.3290   Lambda : -0.628D-02
Largest |displ|/coords:  0.1196 (  23)  0.1046 (  10)  0.0994 (  26)
................................................................................
.............................. CYCLE    4 ......................................
................................................................................
   1    -50.7034269 -0.507034E+02  0.168E-01    8.29       0.0  T
   2    -50.7035476 -0.120641E-03  0.123E-01    8.31       1.0  T
   3    -50.7035930 -0.454241E-04  0.611E-02    8.34       1.0  T
   4    -50.7035961 -0.310900E-05  0.125E-02    8.34       1.6  T
   5    -50.7035964 -0.265930E-06  0.347E-03    8.33       5.7  T
   6    -50.7035964 -0.203917E-07  0.189E-03    8.33      10.4  T
speedup  0.93
cpu  time for SCC    0.00 s
wall time for SCC    0.01 s
speedup  0.97
cpu  time for grad    0.01 s
wall time for grad    0.01 s
 E :    -50.42980033  G :  0.043231    pred/act E change: -0.701D-02 -0.489D-02
Maxdispl :   0.1470   ||displ|| :   0.4008   Lambda : -0.482D-02
Largest |displ|/coords:  0.1470 (  23)  0.1348 (  10)  0.1162 (   2)
................................................................................
.............................. CYCLE    5 ......................................
................................................................................
   1    -50.7063517 -0.507064E+02  0.213E-01    8.32       0.0  T
   2    -50.7065231 -0.171407E-03  0.155E-01    8.36       1.0  T
   3    -50.7065895 -0.663328E-04  0.713E-02    8.41       1.0  T
   4    -50.7065949 -0.541156E-05  0.148E-02    8.41       1.3  T
   5    -50.7065953 -0.400515E-06  0.398E-03    8.41       4.9  T
   6    -50.7065953 -0.208590E-07  0.219E-03    8.41       8.9  T
speedup  1.13
cpu  time for SCC    0.01 s
wall time for SCC    0.01 s
speedup  1.05
cpu  time for grad    0.01 s
wall time for grad    0.01 s
 E :    -50.43292437  G :  0.018421    pred/act E change: -0.348D-02 -0.312D-02
Maxdispl :   0.1894   ||displ|| :   0.3742   Lambda : -0.193D-02
Largest |displ|/coords:  0.1894 (   4)  0.1298 (  10)  0.1238 (   2)
................................................................................
.............................. CYCLE    6 ......................................
................................................................................
   1    -50.7054421 -0.507054E+02  0.374E-01    8.42       0.0  T
   2    -50.7055251 -0.829879E-04  0.284E-01    8.45       1.0  T
   3    -50.7055662 -0.411022E-04  0.507E-02    8.52       1.0  T
   4    -50.7055808 -0.146833E-04  0.141E-02    8.51       1.4  T
   5    -50.7055814 -0.564252E-06  0.412E-03    8.51       4.8  T
   6    -50.7055814 -0.914518E-08  0.208E-03    8.50       9.4  T
   7    -50.7055814 -0.614182E-08  0.611E-04    8.50      32.1  T
speedup  1.11
cpu  time for SCC    0.01 s
wall time for SCC    0.01 s
speedup  1.04
cpu  time for grad    0.01 s
wall time for grad    0.01 s
 E :    -50.43373176  G :  0.030295    pred/act E change: -0.280D-02 -0.807D-03
Maxdispl :   0.2058   ||displ|| :   0.4877   Lambda : -0.339D-02
Largest |displ|/coords:  0.2058 (   2)  0.1572 (   4)  0.1531 (  29)
................................................................................
.............................. CYCLE    7 ......................................
................................................................................
   1    -50.7121182 -0.507121E+02  0.404E-01    8.40       0.0  T
   2    -50.7122979 -0.179634E-03  0.305E-01    8.45       1.0  T
   3    -50.7123833 -0.853821E-04  0.711E-02    8.57       1.0  T
   4    -50.7124102 -0.269675E-04  0.199E-02    8.56       1.0  T
   5    -50.7124112 -0.973421E-06  0.605E-03    8.55       3.2  T
   6    -50.7124112 -0.291104E-07  0.326E-03    8.55       6.0  T
   7    -50.7124112 -0.121923E-07  0.811E-04    8.55      24.2  T
speedup  0.95
cpu  time for SCC    0.01 s
wall time for SCC    0.01 s
speedup  0.97
cpu  time for grad    0.01 s
wall time for grad    0.01 s
 E :    -50.43505040  G :  0.038756    pred/act E change: -0.110D-02 -0.132D-02
Maxdispl :   0.0864   ||displ|| :   0.1889   Lambda : -0.140D-02
Largest |displ|/coords:  0.0864 (   2)  0.0594 (   3)  0.0548 (   7)
................................................................................
.............................. CYCLE    8 ......................................
................................................................................
   1    -50.7136103 -0.507136E+02  0.136E-01    8.56       0.0  T
   2    -50.7136280 -0.176489E-04  0.102E-01    8.57       1.0  T
   3    -50.7136359 -0.793693E-05  0.234E-02    8.59       1.0  T
   4    -50.7136387 -0.281458E-05  0.541E-03    8.59       3.6  T
   5    -50.7136388 -0.502247E-07  0.195E-03    8.59      10.1  T
speedup  1.04
cpu  time for SCC    0.00 s
wall time for SCC    0.00 s
speedup  0.98
cpu  time for grad    0.01 s
wall time for grad    0.01 s
 E :    -50.43626031  G :  0.031503    pred/act E change: -0.210D-02 -0.121D-02
Maxdispl :   0.1813   ||displ|| :   0.5559   Lambda : -0.497D-02
Largest |displ|/coords:  0.1813 (  31)  0.1801 (  29)  0.1786 (   2)
................................................................................
.............................. CYCLE    9 ......................................
................................................................................
   1    -50.7149719 -0.507150E+02  0.488E-01    8.64       0.0  T
   2    -50.7153627 -0.390792E-03  0.363E-01    8.67       1.0  T
   3    -50.7155448 -0.182089E-03  0.107E-01    8.75       1.0  T
   4    -50.7155920 -0.472317E-04  0.246E-02    8.76       1.0  T
   5    -50.7155932 -0.119111E-05  0.911E-03    8.76       2.2  T
   6    -50.7155933 -0.614447E-07  0.438E-03    8.76       4.5  T
   7    -50.7155933 -0.356887E-07  0.119E-03    8.75      16.4  T
speedup  1.06
cpu  time for SCC    0.01 s
wall time for SCC    0.01 s
speedup  1.03
cpu  time for grad    0.01 s
wall time for grad    0.01 s
 E :    -50.43983645  G :  0.041080    pred/act E change: -0.727D-03 -0.358D-02
Maxdispl :   0.2161   ||displ|| :   0.5441   Lambda : -0.446D-02
Largest |displ|/coords:  0.2161 (  29)  0.1976 (  31)  0.1632 (   2)
................................................................................
.............................. CYCLE   10 ......................................
................................................................................
   1    -50.7307560 -0.507308E+02  0.425E-01    8.85       0.0  T
   2    -50.7311195 -0.363462E-03  0.314E-01    8.86       1.0  T
   3    -50.7313318 -0.212355E-03  0.100E-01    8.88       1.0  T
   4    -50.7313658 -0.339645E-04  0.247E-02    8.89       1.0  T
   5    -50.7313669 -0.113474E-05  0.101E-02    8.89       1.9  T
   6    -50.7313670 -0.811160E-07  0.473E-03    8.89       4.1  T
   7    -50.7313671 -0.341504E-07  0.119E-03    8.89      16.5  T
speedup  0.97
cpu  time for SCC    0.01 s
wall time for SCC    0.01 s
speedup  0.99
cpu  time for grad    0.01 s
wall time for grad    0.01 s
 E :    -50.44147385  G :  0.053819    pred/act E change: -0.325D-02 -0.164D-02
Maxdispl :   0.1338   ||displ|| :   0.3279   Lambda : -0.544D-02
Largest |displ|/coords:  0.1338 (   3)  0.1065 (  29)  0.1051 (  14)
................................................................................
.............................. CYCLE   11 ......................................
................................................................................
   1    -50.7170640 -0.507171E+02  0.346E-01    8.86       0.0  T
   2    -50.7172747 -0.210673E-03  0.255E-01    8.89       1.0  T
   3    -50.7173887 -0.114032E-03  0.779E-02    8.92       1.0  T
   4    -50.7174098 -0.211129E-04  0.176E-02    8.89       1.1  T
   5    -50.7174104 -0.625069E-06  0.740E-03    8.88       2.7  T
   6    -50.7174105 -0.715038E-07  0.359E-03    8.89       5.5  T
   7    -50.7174105 -0.264934E-07  0.971E-04    8.89      20.2  T
speedup  0.94
cpu  time for SCC    0.01 s
wall time for SCC    0.01 s
speedup  0.97
cpu  time for grad    0.01 s
wall time for grad    0.01 s
 E :    -50.44191215  G :  0.047501    pred/act E change: -0.289D-02 -0.438D-03
Maxdispl :   0.1160   ||displ|| :   0.2876   Lambda : -0.445D-02
Largest |displ|/coords:  0.1160 (  13)  0.1156 (  20)  0.0929 (   5)
................................................................................
.............................. CYCLE   12 ......................................
................................................................................
   1    -50.7296556 -0.507297E+02  0.396E-01    9.04       0.0  T
   2    -50.7297740 -0.118370E-03  0.297E-01    9.01       1.0  T
   3    -50.7298415 -0.675157E-04  0.613E-02    8.88       1.0  T
   4    -50.7298581 -0.165813E-04  0.114E-02    8.94       1.7  T
   5    -50.7298583 -0.250995E-06  0.588E-03    8.95       3.3  T
   6    -50.7298583 -0.202211E-07  0.260E-03    8.95       7.5  T
speedup  0.93
cpu  time for SCC    0.01 s
wall time for SCC    0.01 s
speedup  0.97
cpu  time for grad    0.01 s
wall time for grad    0.01 s
 E :    -50.44256232  G :  0.047790    pred/act E change: -0.301D-02 -0.650D-03
Maxdispl :   0.1907   ||displ|| :   0.4486   Lambda : -0.557D-02
Largest |displ|/coords:  0.1907 (  29)  0.1680 (  31)  0.1195 (  28)
................................................................................
.............................. CYCLE   13 ......................................
................................................................................
   1    -50.7428446 -0.507428E+02  0.450E-01    8.96       0.0  T
   2    -50.7431040 -0.259441E-03  0.336E-01    8.99       1.0  T
   3    -50.7432718 -0.167834E-03  0.894E-02    9.04       1.0  T
   4    -50.7433020 -0.301449E-04  0.207E-02    9.06       1.0  T
   5    -50.7433027 -0.679745E-06  0.928E-03    9.06       2.1  T
   6    -50.7433027 -0.450014E-07  0.402E-03    9.06       4.9  T
   7    -50.7433027 -0.310323E-07  0.946E-04    9.06      20.7  T
speedup  1.11
cpu  time for SCC    0.01 s
wall time for SCC    0.01 s
speedup  0.98
cpu  time for grad    0.01 s
wall time for grad    0.01 s
 E :    -50.44382058  G :  0.047143    pred/act E change: -0.241D-02 -0.126D-02
Maxdispl :   0.0915   ||displ|| :   0.2543   Lambda : -0.426D-02
Largest |displ|/coords:  0.0915 (  29)  0.0825 (  14)  0.0699 (  23)
................................................................................
.............................. CYCLE   14 ......................................
................................................................................
   1    -50.7365595 -0.507366E+02  0.201E-01    9.07       0.0  T
   2    -50.7366305 -0.710488E-04  0.149E-01    9.07       1.0  T
   3    -50.7366781 -0.476287E-04  0.462E-02    9.07       1.0  T
   4    -50.7366849 -0.679370E-05  0.124E-02    9.06       1.6  T
   5    -50.7366852 -0.295578E-06  0.502E-03    9.06       3.9  T
   6    -50.7366853 -0.374958E-07  0.222E-03    9.06       8.8  T
speedup  1.11
cpu  time for SCC    0.01 s
wall time for SCC    0.01 s
speedup  1.05
cpu  time for grad    0.01 s
wall time for grad    0.01 s
 E :    -50.44519248  G :  0.026737    pred/act E change: -0.334D-02 -0.137D-02
Maxdispl :   0.1914   ||displ|| :   0.3035   Lambda : -0.151D-02
Largest |displ|/coords:  0.1914 (   3)  0.0999 (   2)  0.0829 (   8)
................................................................................
.............................. CYCLE   15 ......................................
................................................................................
   1    -50.7327483 -0.507327E+02  0.242E-01    9.02       0.0  T
   2    -50.7327754 -0.271480E-04  0.180E-01    9.04       1.0  T
   3    -50.7327875 -0.121020E-04  0.308E-02    9.06       1.0  T
   4    -50.7327917 -0.418604E-05  0.878E-03    9.06       2.2  T
   5    -50.7327919 -0.173939E-06  0.287E-03    9.05       6.8  T
   6    -50.7327919 -0.563769E-08  0.158E-03    9.05      12.4  T
speedup  1.09
cpu  time for SCC    0.01 s
wall time for SCC    0.01 s
speedup  1.01
cpu  time for grad    0.01 s
wall time for grad    0.01 s
 E :    -50.44577527  G :  0.020819    pred/act E change: -0.227D-02 -0.583D-03
Maxdispl :   0.0844   ||displ|| :   0.2044   Lambda : -0.983D-03
Largest |displ|/coords:  0.0844 (   5)  0.0747 (   6)  0.0617 (  14)
................................................................................
.............................. CYCLE   16 ......................................
................................................................................
   1    -50.7403566 -0.507404E+02  0.150E-01    9.16       0.0  T
   2    -50.7403693 -0.127043E-04  0.112E-01    9.15       1.0  T
   3    -50.7403760 -0.673884E-05  0.197E-02    9.12       1.0  T
   4    -50.7403778 -0.183737E-05  0.462E-03    9.13       4.2  T
   5    -50.7403779 -0.421453E-07  0.205E-03    9.13       9.6  T
speedup  1.11
cpu  time for SCC    0.00 s
wall time for SCC    0.00 s
speedup  1.04
cpu  time for grad    0.01 s
wall time for grad    0.01 s
 E :    -50.44641493  G :  0.010516    pred/act E change: -0.825D-03 -0.640D-03
Maxdispl :   0.1530   ||displ|| :   0.2998   Lambda : -0.792D-03
Largest |displ|/coords:  0.1530 (  14)  0.1060 (   5)  0.1017 (   8)
................................................................................
.............................. CYCLE   17 ......................................
................................................................................
   1    -50.7409196 -0.507409E+02  0.205E-01    9.16       0.0  T
   2    -50.7409450 -0.254375E-04  0.154E-01    9.15       1.0  T
   3    -50.7409608 -0.157920E-04  0.289E-02    9.12       1.0  T
   4    -50.7409646 -0.378659E-05  0.628E-03    9.13       3.1  T
   5    -50.7409646 -0.768425E-07  0.295E-03    9.13       6.6  T
   6    -50.7409647 -0.813893E-08  0.148E-03    9.13      13.3  T
speedup  1.13
cpu  time for SCC    0.01 s
wall time for SCC    0.01 s
speedup  1.05
cpu  time for grad    0.01 s
wall time for grad    0.01 s
 E :    -50.44680209  G :  0.019198    pred/act E change: -0.512D-03 -0.387D-03
Maxdispl :   0.1320   ||displ|| :   0.3421   Lambda : -0.861D-03
Largest |displ|/coords:  0.1320 (   5)  0.1220 (   8)  0.1179 (  14)
................................................................................
.............................. CYCLE   18 ......................................
................................................................................
   1    -50.7446244 -0.507446E+02  0.167E-01    9.16       0.0  T
   2    -50.7446325 -0.806885E-05  0.126E-01    9.15       1.0  T
   3    -50.7446395 -0.696974E-05  0.164E-02    9.13       1.2  T
   4    -50.7446404 -0.968577E-06  0.539E-03    9.13       3.6  T
   5    -50.7446405 -0.499538E-07  0.202E-03    9.13       9.7  T
   6    -50.7446405 -0.352591E-08  0.105E-03    9.13      18.8  T
speedup  0.52
cpu  time for SCC    0.01 s
wall time for SCC    0.01 s
speedup  0.72
cpu  time for grad    0.01 s
wall time for grad    0.02 s
 E :    -50.44735074  G :  0.019734    pred/act E change: -0.431D-03 -0.549D-03
Maxdispl :   0.2117   ||displ|| :   0.4215   Lambda : -0.103D-02
Largest |displ|/coords:  0.2117 (   5)  0.1585 (  14)  0.1539 (   8)
................................................................................
.............................. CYCLE   19 ......................................
................................................................................
   1    -50.7449699 -0.507450E+02  0.193E-01    9.10       0.0  T
   2    -50.7449852 -0.152598E-04  0.145E-01    9.10       1.0  T
   3    -50.7449947 -0.949259E-05  0.243E-02    9.09       1.0  T
   4    -50.7449966 -0.196200E-05  0.747E-03    9.09       2.6  T
   5    -50.7449967 -0.932448E-07  0.210E-03    9.09       9.3  T
   6    -50.7449967 -0.356468E-08  0.119E-03    9.09      16.5  T
speedup  0.98
cpu  time for SCC    0.01 s
wall time for SCC    0.01 s
speedup  0.99
cpu  time for grad    0.01 s
wall time for grad    0.01 s
 E :    -50.44788632  G :  0.020506    pred/act E change: -0.481D-03 -0.536D-03
Maxdispl :   0.2317   ||displ|| :   0.5204   Lambda : -0.136D-02
Largest |displ|/coords:  0.2317 (   5)  0.2084 (  14)  0.1573 (   8)
................................................................................
.............................. CYCLE   20 ......................................
................................................................................
   1    -50.7361201 -0.507361E+02  0.297E-01    9.03       0.0  T
   2    -50.7361491 -0.290168E-04  0.223E-01    9.03       1.0  T
   3    -50.7361732 -0.240424E-04  0.324E-02    9.04       1.0  T
   4    -50.7361770 -0.388603E-05  0.106E-02    9.03       1.9  T
   5    -50.7361772 -0.164221E-06  0.407E-03    9.03       4.8  T
   6    -50.7361772 -0.197417E-07  0.225E-03    9.03       8.7  T
speedup  0.93
cpu  time for SCC    0.00 s
wall time for SCC    0.01 s
speedup  0.98
cpu  time for grad    0.01 s
wall time for grad    0.01 s
 E :    -50.44850331  G :  0.029539    pred/act E change: -0.606D-03 -0.617D-03
Maxdispl :   0.1615   ||displ|| :   0.3204   Lambda : -0.198D-02
Largest |displ|/coords:  0.1615 (   5)  0.1099 (   8)  0.0794 (   7)
................................................................................
.............................. CYCLE   21 ......................................
................................................................................
   1    -50.7410510 -0.507411E+02  0.206E-01    9.02       0.0  T
   2    -50.7410587 -0.766171E-05  0.154E-01    9.03       1.0  T
   3    -50.7410651 -0.644408E-05  0.199E-02    9.03       1.0  T
   4    -50.7410659 -0.803031E-06  0.656E-03    9.04       3.0  T
   5    -50.7410660 -0.506036E-07  0.188E-03    9.04      10.4  T
   6    -50.7410660 -0.226576E-08  0.104E-03    9.04      18.9  T
speedup  0.93
cpu  time for SCC    0.01 s
wall time for SCC    0.01 s
speedup  0.97
cpu  time for grad    0.01 s
wall time for grad    0.01 s
 E :    -50.44940113  G :  0.029289    pred/act E change: -0.862D-03 -0.898D-03
Maxdispl :   0.1701   ||displ|| :   0.3433   Lambda : -0.175D-02
Largest |displ|/coords:  0.1701 (   5)  0.1307 (   8)  0.1115 (   7)
................................................................................
.............................. CYCLE   22 ......................................
................................................................................
   1    -50.7441476 -0.507441E+02  0.193E-01    8.98       0.0  T
   2    -50.7441686 -0.210624E-04  0.143E-01    8.98       1.0  T
   3    -50.7441797 -0.110264E-04  0.274E-02    8.98       1.0  T
   4    -50.7441823 -0.269395E-05  0.715E-03    8.98       2.7  T
   5    -50.7441825 -0.123163E-06  0.246E-03    8.99       8.0  T
   6    -50.7441825 -0.545420E-08  0.129E-03    8.99      15.2  T
speedup  1.05
cpu  time for SCC    0.01 s
wall time for SCC    0.01 s
speedup  1.02
cpu  time for grad    0.01 s
wall time for grad    0.01 s
 E :    -50.45046986  G :  0.017012    pred/act E change: -0.109D-02 -0.107D-02
Maxdispl :   0.3602   ||displ|| :   0.6019   Lambda : -0.140D-02
Largest |displ|/coords:  0.3602 (   5)  0.2154 (  14)  0.1940 (   3)
................................................................................
.............................. CYCLE   23 ......................................
................................................................................
   1    -50.7435213 -0.507435E+02  0.239E-01    8.98       0.0  T
   2    -50.7435332 -0.118555E-04  0.180E-01    8.99       1.0  T
   3    -50.7435429 -0.970292E-05  0.208E-02    8.99       1.0  T
   4    -50.7435444 -0.149809E-05  0.597E-03    8.99       3.3  T
   5    -50.7435444 -0.523400E-07  0.244E-03    8.99       8.0  T
   6    -50.7435444 -0.875409E-08  0.118E-03    8.99      16.6  T
speedup  0.93
cpu  time for SCC    0.00 s
wall time for SCC    0.01 s
speedup  0.94
cpu  time for grad    0.01 s
wall time for grad    0.01 s
 E :    -50.45136306  G :  0.016173    pred/act E change: -0.976D-03 -0.893D-03
Maxdispl :   0.2003   ||displ|| :   0.3783   Lambda : -0.934D-03
Largest |displ|/coords:  0.2003 (   5)  0.1267 (   8)  0.1194 (   3)
................................................................................
.............................. CYCLE   24 ......................................
................................................................................
   1    -50.7433368 -0.507433E+02  0.140E-01    8.99       0.0  T
   2    -50.7433432 -0.639460E-05  0.105E-01    8.97       1.0  T
   3    -50.7433481 -0.488038E-05  0.141E-02    8.94       1.4  T
   4    -50.7433490 -0.869846E-06  0.442E-03    8.95       4.4  T
   5    -50.7433490 -0.318655E-07  0.176E-03    8.95      11.1  T
   6    -50.7433490 -0.321543E-08  0.789E-04    8.95      24.9  T
speedup  0.91
cpu  time for SCC    0.00 s
wall time for SCC    0.01 s
speedup  0.97
cpu  time for grad    0.01 s
wall time for grad    0.01 s
 E :    -50.45186219  G :  0.014391    pred/act E change: -0.952D-03 -0.499D-03
Maxdispl :   0.1140   ||displ|| :   0.2914   Lambda : -0.885D-03
Largest |displ|/coords:  0.1140 (  21)  0.1078 (   6)  0.0914 (   9)
................................................................................
.............................. CYCLE   25 ......................................
................................................................................
   1    -50.7529450 -0.507529E+02  0.157E-01    9.03       0.0  T
   2    -50.7529534 -0.833711E-05  0.116E-01    9.02       1.0  T
   3    -50.7529587 -0.538443E-05  0.194E-02    8.99       1.0  T
   4    -50.7529597 -0.963123E-06  0.443E-03    9.00       4.4  T
   5    -50.7529597 -0.449987E-07  0.185E-03    9.00      10.6  T
   6    -50.7529597 -0.516668E-08  0.961E-04    9.00      20.4  T
speedup  0.94
cpu  time for SCC    0.00 s
wall time for SCC    0.01 s
speedup  0.97
cpu  time for grad    0.01 s
wall time for grad    0.01 s
 E :    -50.45194990  G :  0.019119    pred/act E change: -0.534D-03 -0.877D-04
Maxdispl :   0.1324   ||displ|| :   0.2147   Lambda : -0.912D-03
Largest |displ|/coords:  0.1324 (   8)  0.0808 (  10)  0.0490 (   6)

generating ANC from model Hessian ...
 Shifting diagonal of input Hessian by   4.954786814251728E-003
 Lowest  eigenvalues of input Hessian
   -0.000000   -0.000000   -0.000000   -0.000000    0.000000    0.000000
    0.005000    0.005458    0.005710    0.006112    0.006307    0.006979
    0.007211    0.007741    0.008505    0.008731    0.009357    0.010423
 Highest eigenvalues
    1.414390    1.426463    1.490096    2.581818    3.459591    3.624155
 
cpu  time for ANC gen    0.02 s
wall time for ANC gen    0.02 s
................................................................................
.............................. CYCLE   26 ......................................
................................................................................
   1    -50.7446588 -0.507447E+02  0.148E-01    8.88       0.0  T
   2    -50.7446701 -0.112614E-04  0.111E-01    8.89       1.0  T
   3    -50.7446786 -0.853471E-05  0.198E-02    8.89       1.0  T
   4    -50.7446800 -0.137857E-05  0.769E-03    8.88       2.6  T
   5    -50.7446801 -0.110342E-06  0.238E-03    8.88       8.2  T
   6    -50.7446801 -0.793733E-08  0.139E-03    8.88      14.1  T
   7    -50.7446801 -0.439559E-08  0.338E-04    8.88      58.1  T
   8    -50.7446801 -0.501196E-09  0.124E-04    8.88     157.6  T
speedup  1.00
cpu  time for SCC    0.01 s
wall time for SCC    0.01 s
speedup  1.03
cpu  time for grad    0.02 s
wall time for grad    0.02 s
 E :    -50.45216752  G :  0.019473    pred/act E change:  0.000D+00 -0.218D-03
Maxdispl :   0.0959   ||displ|| :   0.2076   Lambda : -0.791D-03
Largest |displ|/coords:  0.0959 (   6)  0.0839 (   8)  0.0804 (   2)
................................................................................
.............................. CYCLE   27 ......................................
................................................................................
   1    -50.7469515 -0.507470E+02  0.178E-01    8.92       0.0  T
   2    -50.7469573 -0.578119E-05  0.135E-01    8.92       1.0  T
   3    -50.7469630 -0.570085E-05  0.117E-02    8.93       1.7  T
   4    -50.7469636 -0.568002E-06  0.428E-03    8.93       4.6  T
   5    -50.7469636 -0.221917E-07  0.141E-03    8.93      14.0  T
   6    -50.7469636 -0.976407E-09  0.734E-04    8.93      26.7  T
speedup  0.94
cpu  time for SCC    0.00 s
wall time for SCC    0.01 s
speedup  0.98
cpu  time for grad    0.01 s
wall time for grad    0.01 s
 E :    -50.45268305  G :  0.007326    pred/act E change:  0.000D+00 -0.516D-03
Maxdispl :   0.1044   ||displ|| :   0.2694   Lambda : -0.556D-03
Largest |displ|/coords:  0.1044 (   2)  0.0979 (   3)  0.0933 (  13)
................................................................................
.............................. CYCLE   28 ......................................
................................................................................
   1    -50.7489687 -0.507490E+02  0.207E-01    8.98       0.0  T
   2    -50.7489735 -0.478363E-05  0.156E-01    8.99       1.0  T
   3    -50.7489771 -0.358142E-05  0.128E-02    8.99       1.5  T
   4    -50.7489778 -0.679215E-06  0.504E-03    8.99       3.9  T
   5    -50.7489778 -0.344219E-07  0.162E-03    8.99      12.1  T
   6    -50.7489778 -0.157166E-08  0.879E-04    8.99      22.3  T
speedup  0.94
cpu  time for SCC    0.00 s
wall time for SCC    0.01 s
speedup  0.97
cpu  time for grad    0.01 s
wall time for grad    0.01 s
 E :    -50.45289127  G :  0.008876    pred/act E change: -0.412D-03 -0.208D-03
Maxdispl :   0.1005   ||displ|| :   0.2275   Lambda : -0.406D-03
Largest |displ|/coords:  0.1005 (   4)  0.0961 (   6)  0.0883 (   2)
................................................................................
.............................. CYCLE   29 ......................................
................................................................................
   1    -50.7472598 -0.507473E+02  0.252E-01    9.00       0.0  T
   2    -50.7472716 -0.118337E-04  0.192E-01    9.00       1.0  T
   3    -50.7472850 -0.133140E-04  0.144E-02    9.01       1.4  T
   4    -50.7472858 -0.858387E-06  0.453E-03    9.01       4.3  T
   5    -50.7472858 -0.197154E-07  0.188E-03    9.01      10.4  T
   6    -50.7472858 -0.429315E-08  0.859E-04    9.01      22.8  T
speedup  1.07
cpu  time for SCC    0.01 s
wall time for SCC    0.01 s
speedup  1.03
cpu  time for grad    0.01 s
wall time for grad    0.01 s
 E :    -50.45295268  G :  0.019292    pred/act E change: -0.298D-03 -0.614D-04
Maxdispl :   0.1579   ||displ|| :   0.2226   Lambda : -0.706D-03
Largest |displ|/coords:  0.1579 (   2)  0.0881 (   4)  0.0537 (  13)
................................................................................
.............................. CYCLE   30 ......................................
................................................................................
   1    -50.7496343 -0.507496E+02  0.254E-01    9.03       0.0  T
   2    -50.7496505 -0.161836E-04  0.191E-01    9.03       1.0  T
   3    -50.7496613 -0.108530E-04  0.231E-02    9.02       1.0  T
   4    -50.7496638 -0.241991E-05  0.600E-03    9.03       3.3  T
   5    -50.7496638 -0.659886E-07  0.282E-03    9.03       7.0  T
   6    -50.7496638 -0.549166E-08  0.134E-03    9.03      14.7  T
speedup  0.91
cpu  time for SCC    0.01 s
wall time for SCC    0.01 s
speedup  0.96
cpu  time for grad    0.01 s
wall time for grad    0.01 s
 E :    -50.45301146  G :  0.014581    pred/act E change: -0.214D-03 -0.588D-04
Maxdispl :   0.0657   ||displ|| :   0.1383   Lambda : -0.399D-03
Largest |displ|/coords:  0.0657 (   4)  0.0592 (   2)  0.0544 (   3)
................................................................................
.............................. CYCLE   31 ......................................
................................................................................
   1    -50.7495100 -0.507495E+02  0.139E-01    9.01       0.0  T
   2    -50.7495117 -0.172915E-05  0.105E-01    9.01       1.0  T
   3    -50.7495136 -0.195779E-05  0.643E-03    9.01       3.1  T
   4    -50.7495138 -0.120544E-06  0.223E-03    9.01       8.8  T
   5    -50.7495138 -0.226552E-08  0.110E-03    9.01      17.8  T
speedup  0.87
cpu  time for SCC    0.00 s
wall time for SCC    0.00 s
speedup  0.95
cpu  time for grad    0.01 s
wall time for grad    0.01 s
 E :    -50.45320301  G :  0.005214    pred/act E change: -0.370D-03 -0.192D-03
Maxdispl :   0.0647   ||displ|| :   0.1168   Lambda : -0.139D-03
Largest |displ|/coords:  0.0647 (   2)  0.0524 (  13)  0.0299 (   7)
................................................................................
.............................. CYCLE   32 ......................................
................................................................................
   1    -50.7480339 -0.507480E+02  0.115E-01    9.00       0.0  T
   2    -50.7480361 -0.217986E-05  0.864E-02    9.00       1.0  T
   3    -50.7480379 -0.178996E-05  0.868E-03    9.00       2.3  T
   4    -50.7480382 -0.279295E-06  0.266E-03    9.00       7.4  T
   5    -50.7480382 -0.936197E-08  0.959E-04    9.00      20.5  T
speedup  1.06
cpu  time for SCC    0.00 s
wall time for SCC    0.00 s
speedup  1.02
cpu  time for grad    0.01 s
wall time for grad    0.01 s
 E :    -50.45330030  G :  0.005738    pred/act E change: -0.203D-03 -0.973D-04
Maxdispl :   0.0681   ||displ|| :   0.1736   Lambda : -0.152D-03
Largest |displ|/coords:  0.0681 (   2)  0.0680 (  13)  0.0610 (  27)
................................................................................
.............................. CYCLE   33 ......................................
................................................................................
   1    -50.7463697 -0.507464E+02  0.152E-01    8.97       0.0  T
   2    -50.7463751 -0.537880E-05  0.115E-01    8.97       1.0  T
   3    -50.7463788 -0.366921E-05  0.142E-02    8.97       1.4  T
   4    -50.7463796 -0.841424E-06  0.423E-03    8.97       4.6  T
   5    -50.7463796 -0.215314E-07  0.131E-03    8.97      15.0  T
   6    -50.7463796 -0.181916E-08  0.686E-04    8.97      28.6  T
speedup  0.94
cpu  time for SCC    0.00 s
wall time for SCC    0.01 s
speedup  1.04
cpu  time for grad    0.01 s
wall time for grad    0.01 s
 E :    -50.45338657  G :  0.011558    pred/act E change: -0.702D-04 -0.863D-04
Maxdispl :   0.0668   ||displ|| :   0.1593   Lambda : -0.156D-03
Largest |displ|/coords:  0.0668 (  27)  0.0625 (  13)  0.0564 (   5)
................................................................................
.............................. CYCLE   34 ......................................
................................................................................
   1    -50.7462608 -0.507463E+02  0.104E-01    8.95       0.0  T
   2    -50.7462650 -0.423101E-05  0.775E-02    8.95       1.0  T
   3    -50.7462669 -0.189186E-05  0.139E-02    8.95       1.4  T
   4    -50.7462676 -0.726191E-06  0.386E-03    8.95       5.1  T
   5    -50.7462676 -0.158213E-07  0.112E-03    8.95      17.5  T
   6    -50.7462676 -0.198515E-08  0.583E-04    8.95      33.6  T
speedup  1.11
cpu  time for SCC    0.01 s
wall time for SCC    0.01 s
speedup  1.04
cpu  time for grad    0.01 s
wall time for grad    0.01 s
 E :    -50.45350385  G :  0.008747    pred/act E change: -0.780D-04 -0.117D-03
Maxdispl :   0.1181   ||displ|| :   0.2620   Lambda : -0.238D-03
Largest |displ|/coords:  0.1181 (  27)  0.1163 (   5)  0.0891 (   7)
................................................................................
.............................. CYCLE   35 ......................................
................................................................................
   1    -50.7462153 -0.507462E+02  0.161E-01    8.89       0.0  T
   2    -50.7462249 -0.964060E-05  0.120E-01    8.90       1.0  T
   3    -50.7462286 -0.366691E-05  0.208E-02    8.90       1.0  T
   4    -50.7462304 -0.174396E-05  0.622E-03    8.90       3.2  T
   5    -50.7462304 -0.396355E-07  0.174E-03    8.90      11.3  T
   6    -50.7462304 -0.434984E-08  0.925E-04    8.90      21.2  T
speedup  0.93
cpu  time for SCC    0.00 s
wall time for SCC    0.01 s
speedup  0.96
cpu  time for grad    0.01 s
wall time for grad    0.01 s
 E :    -50.45365189  G :  0.006414    pred/act E change: -0.798D-04 -0.148D-03
Maxdispl :   0.1016   ||displ|| :   0.2468   Lambda : -0.178D-03
Largest |displ|/coords:  0.1016 (  27)  0.0871 (   5)  0.0679 (  13)
................................................................................
.............................. CYCLE   36 ......................................
................................................................................
   1    -50.7449113 -0.507449E+02  0.180E-01    8.88       0.0  T
   2    -50.7449197 -0.844115E-05  0.135E-01    8.88       1.0  T
   3    -50.7449240 -0.427012E-05  0.180E-02    8.87       1.1  T
   4    -50.7449256 -0.157791E-05  0.629E-03    8.88       3.1  T
   5    -50.7449256 -0.443196E-07  0.177E-03    8.88      11.1  T
   6    -50.7449256 -0.350951E-08  0.952E-04    8.88      20.6  T
speedup  0.89
cpu  time for SCC    0.01 s
wall time for SCC    0.01 s
speedup  1.02
cpu  time for grad    0.01 s
wall time for grad    0.01 s
 E :    -50.45373944  G :  0.010116    pred/act E change: -0.127D-03 -0.875D-04
Maxdispl :   0.0668   ||displ|| :   0.1862   Lambda : -0.313D-03
Largest |displ|/coords:  0.0668 (   1)  0.0639 (   8)  0.0615 (  27)
................................................................................
.............................. CYCLE   37 ......................................
................................................................................
   1    -50.7500391 -0.507500E+02  0.117E-01    8.94       0.0  T
   2    -50.7500429 -0.373874E-05  0.877E-02    8.94       1.0  T
   3    -50.7500449 -0.208302E-05  0.113E-02    8.94       1.7  T
   4    -50.7500455 -0.608740E-06  0.367E-03    8.94       5.3  T
   5    -50.7500456 -0.196961E-07  0.111E-03    8.94      17.6  T
   6    -50.7500456 -0.146406E-08  0.576E-04    8.94      34.1  T
speedup  0.91
cpu  time for SCC    0.00 s
wall time for SCC    0.01 s
speedup  0.96
cpu  time for grad    0.01 s
wall time for grad    0.01 s
 E :    -50.45387859  G :  0.008051    pred/act E change: -0.946D-04 -0.139D-03
Maxdispl :   0.1274   ||displ|| :   0.2693   Lambda : -0.279D-03
Largest |displ|/coords:  0.1274 (  27)  0.0971 (   5)  0.0760 (   2)
................................................................................
.............................. CYCLE   38 ......................................
................................................................................
   1    -50.7477865 -0.507478E+02  0.202E-01    8.97       0.0  T
   2    -50.7477955 -0.896633E-05  0.153E-01    8.97       1.0  T
   3    -50.7478016 -0.611177E-05  0.188E-02    8.97       1.0  T
   4    -50.7478029 -0.132758E-05  0.735E-03    8.97       2.7  T
   5    -50.7478030 -0.648269E-07  0.170E-03    8.97      11.5  T
   6    -50.7478030 -0.183139E-08  0.102E-03    8.97      19.2  T
speedup  1.11
cpu  time for SCC    0.01 s
wall time for SCC    0.01 s
speedup  0.96
cpu  time for grad    0.01 s
wall time for grad    0.01 s
 E :    -50.45399807  G :  0.011202    pred/act E change: -0.162D-03 -0.119D-03
Maxdispl :   0.0322   ||displ|| :   0.0905   Lambda : -0.193D-03
Largest |displ|/coords:  0.0322 (   2)  0.0311 (   7)  0.0265 (   5)
................................................................................
.............................. CYCLE   39 ......................................
................................................................................
   1    -50.7499165 -0.507499E+02  0.680E-02    9.01       0.0  T
   2    -50.7499200 -0.358553E-05  0.500E-02    9.01       1.0  T
   3    -50.7499222 -0.219997E-05  0.115E-02    9.00       1.7  T
   4    -50.7499226 -0.394997E-06  0.332E-03    9.00       5.9  T
   5    -50.7499227 -0.212146E-07  0.108E-03    9.00      18.2  T
   6    -50.7499227 -0.153987E-08  0.570E-04    9.00      34.4  T
speedup  0.93
cpu  time for SCC    0.00 s
wall time for SCC    0.01 s
speedup  0.96
cpu  time for grad    0.01 s
wall time for grad    0.01 s
 E :    -50.45404489  G :  0.009884    pred/act E change: -0.150D-03 -0.468D-04
Maxdispl :   0.0642   ||displ|| :   0.1662   Lambda : -0.299D-03
Largest |displ|/coords:  0.0642 (  27)  0.0614 (   2)  0.0446 (  26)
................................................................................
.............................. CYCLE   40 ......................................
................................................................................
   1    -50.7490873 -0.507491E+02  0.173E-01    8.99       0.0  T
   2    -50.7490951 -0.777960E-05  0.131E-01    8.98       1.0  T
   3    -50.7491012 -0.612595E-05  0.163E-02    8.98       1.2  T
   4    -50.7491022 -0.994392E-06  0.622E-03    8.98       3.2  T
   5    -50.7491023 -0.604638E-07  0.152E-03    8.98      12.9  T
   6    -50.7491023 -0.126505E-08  0.920E-04    8.98      21.3  T
speedup  0.91
cpu  time for SCC    0.00 s
wall time for SCC    0.01 s
speedup  0.96
cpu  time for grad    0.01 s
wall time for grad    0.01 s
 E :    -50.45411147  G :  0.010119    pred/act E change: -0.972D-04 -0.666D-04
Maxdispl :   0.0349   ||displ|| :   0.0902   Lambda : -0.226D-03
Largest |displ|/coords:  0.0349 (   4)  0.0276 (  20)  0.0255 (  17)
................................................................................
.............................. CYCLE   41 ......................................
................................................................................
   1    -50.7500712 -0.507501E+02  0.847E-02    8.99       0.0  T
   2    -50.7500728 -0.158817E-05  0.640E-02    8.99       1.0  T
   3    -50.7500741 -0.126561E-05  0.788E-03    8.99       2.5  T
   4    -50.7500743 -0.203289E-06  0.211E-03    8.99       9.3  T
   5    -50.7500743 -0.590985E-08  0.651E-04    8.99      30.1  T
speedup  0.87
cpu  time for SCC    0.00 s
wall time for SCC    0.00 s
speedup  0.95
cpu  time for grad    0.01 s
wall time for grad    0.01 s
 E :    -50.45423869  G :  0.007744    pred/act E change: -0.154D-03 -0.127D-03
Maxdispl :   0.1102   ||displ|| :   0.2142   Lambda : -0.160D-03
Largest |displ|/coords:  0.1102 (  27)  0.0746 (  26)  0.0553 (  30)
................................................................................
.............................. CYCLE   42 ......................................
................................................................................
   1    -50.7473153 -0.507473E+02  0.139E-01    8.97       0.0  T
   2    -50.7473226 -0.730822E-05  0.104E-01    8.97       1.0  T
   3    -50.7473253 -0.269312E-05  0.199E-02    8.95       1.0  T
   4    -50.7473265 -0.121737E-05  0.645E-03    8.95       3.0  T
   5    -50.7473266 -0.409979E-07  0.127E-03    8.95      15.4  T
   6    -50.7473266 -0.190410E-08  0.774E-04    8.95      25.4  T
speedup  1.11
cpu  time for SCC    0.01 s
wall time for SCC    0.01 s
speedup  1.03
cpu  time for grad    0.01 s
wall time for grad    0.01 s
 E :    -50.45427263  G :  0.008948    pred/act E change: -0.114D-03 -0.339D-04
Maxdispl :   0.0658   ||displ|| :   0.1428   Lambda : -0.220D-03
Largest |displ|/coords:  0.0658 (   5)  0.0574 (   7)  0.0457 (   4)
................................................................................
.............................. CYCLE   43 ......................................
................................................................................
   1    -50.7502675 -0.507503E+02  0.823E-02    8.99       0.0  T
   2    -50.7502723 -0.478744E-05  0.603E-02    8.99       1.0  T
   3    -50.7502743 -0.192781E-05  0.133E-02    9.00       1.5  T
   4    -50.7502749 -0.640422E-06  0.385E-03    9.00       5.1  T
   5    -50.7502749 -0.197503E-07  0.913E-04    9.00      21.5  T
   6    -50.7502749 -0.136235E-08  0.516E-04    9.00      38.0  T
speedup  0.93
cpu  time for SCC    0.00 s
wall time for SCC    0.01 s
speedup  0.96
cpu  time for grad    0.01 s
wall time for grad    0.01 s
 E :    -50.45435314  G :  0.007150    pred/act E change: -0.837D-04 -0.805D-04
Maxdispl :   0.0517   ||displ|| :   0.1534   Lambda : -0.178D-03
Largest |displ|/coords:  0.0517 (   2)  0.0493 (  27)  0.0424 (   1)
................................................................................
.............................. CYCLE   44 ......................................
................................................................................
   1    -50.7494169 -0.507494E+02  0.126E-01    9.01       0.0  T
   2    -50.7494212 -0.429170E-05  0.942E-02    9.01       1.0  T
   3    -50.7494247 -0.345983E-05  0.134E-02    9.00       1.5  T
   4    -50.7494252 -0.493411E-06  0.381E-03    9.00       5.1  T
   5    -50.7494252 -0.206231E-07  0.128E-03    9.00      15.3  T
   6    -50.7494252 -0.170900E-08  0.738E-04    9.00      26.6  T
speedup  1.11
cpu  time for SCC    0.01 s
wall time for SCC    0.01 s
speedup  1.04
cpu  time for grad    0.01 s
wall time for grad    0.01 s
 E :    -50.45442899  G :  0.008456    pred/act E change: -0.112D-03 -0.758D-04
Maxdispl :   0.0425   ||displ|| :   0.1062   Lambda : -0.114D-03
Largest |displ|/coords:  0.0425 (  27)  0.0310 (  15)  0.0298 (   9)
................................................................................
.............................. CYCLE   45 ......................................
................................................................................
   1    -50.7498454 -0.507498E+02  0.663E-02    8.99       0.0  T
   2    -50.7498468 -0.137958E-05  0.496E-02    8.99       1.0  T
   3    -50.7498477 -0.962811E-06  0.857E-03    8.98       2.3  T
   4    -50.7498479 -0.170597E-06  0.304E-03    8.98       6.4  T
   5    -50.7498479 -0.104648E-07  0.699E-04    8.98      28.1  T
   6    -50.7498479 -0.479886E-09  0.431E-04    8.98      45.5  T
speedup  0.93
cpu  time for SCC    0.01 s
wall time for SCC    0.01 s
speedup  0.96
cpu  time for grad    0.01 s
wall time for grad    0.01 s
 E :    -50.45449360  G :  0.005864    pred/act E change: -0.910D-04 -0.646D-04
Maxdispl :   0.0880   ||displ|| :   0.2068   Lambda : -0.102D-03
Largest |displ|/coords:  0.0880 (  27)  0.0683 (   1)  0.0617 (  15)
................................................................................
.............................. CYCLE   46 ......................................
................................................................................
   1    -50.7481172 -0.507481E+02  0.132E-01    8.99       0.0  T
   2    -50.7481210 -0.380725E-05  0.987E-02    8.98       1.0  T
   3    -50.7481233 -0.233657E-05  0.147E-02    8.97       1.3  T
   4    -50.7481238 -0.527784E-06  0.474E-03    8.98       4.1  T
   5    -50.7481239 -0.263393E-07  0.123E-03    8.98      16.0  T
   6    -50.7481239 -0.134055E-08  0.726E-04    8.98      27.0  T
speedup  1.05
cpu  time for SCC    0.01 s
wall time for SCC    0.01 s
speedup  0.94
cpu  time for grad    0.01 s
wall time for grad    0.01 s
 E :    -50.45453655  G :  0.007682    pred/act E change: -0.577D-04 -0.429D-04
Maxdispl :   0.0429   ||displ|| :   0.1162   Lambda : -0.134D-03
Largest |displ|/coords:  0.0429 (   6)  0.0428 (   5)  0.0363 (  14)
................................................................................
.............................. CYCLE   47 ......................................
................................................................................
   1    -50.7496711 -0.507497E+02  0.660E-02    8.98       0.0  T
   2    -50.7496728 -0.170057E-05  0.492E-02    8.98       1.0  T
   3    -50.7496738 -0.978591E-06  0.822E-03    8.98       2.4  T
   4    -50.7496741 -0.255443E-06  0.208E-03    8.98       9.4  T
   5    -50.7496741 -0.787142E-08  0.684E-04    8.98      28.7  T
speedup  1.09
cpu  time for SCC    0.00 s
wall time for SCC    0.00 s
speedup  1.02
cpu  time for grad    0.01 s
wall time for grad    0.01 s
 E :    -50.45461935  G :  0.005342    pred/act E change: -0.530D-04 -0.828D-04
Maxdispl :   0.0773   ||displ|| :   0.2484   Lambda : -0.151D-03
Largest |displ|/coords:  0.0773 (  15)  0.0741 (   2)  0.0681 (  27)
................................................................................
.............................. CYCLE   48 ......................................
................................................................................
   1    -50.7492152 -0.507492E+02  0.156E-01    8.97       0.0  T
   2    -50.7492207 -0.549874E-05  0.117E-01    8.97       1.0  T
   3    -50.7492250 -0.435753E-05  0.159E-02    8.97       1.2  T
   4    -50.7492257 -0.680752E-06  0.411E-03    8.97       4.8  T
   5    -50.7492258 -0.267580E-07  0.163E-03    8.97      12.1  T
   6    -50.7492258 -0.226091E-08  0.745E-04    8.97      26.3  T
speedup  0.91
cpu  time for SCC    0.00 s
wall time for SCC    0.01 s
speedup  0.96
cpu  time for grad    0.01 s
wall time for grad    0.01 s
 E :    -50.45469530  G :  0.009515    pred/act E change: -0.679D-04 -0.760D-04
Maxdispl :   0.0354   ||displ|| :   0.1114   Lambda : -0.993D-04
Largest |displ|/coords:  0.0354 (   6)  0.0346 (  27)  0.0313 (  14)
................................................................................
.............................. CYCLE   49 ......................................
................................................................................
   1    -50.7495714 -0.507496E+02  0.641E-02    9.00       0.0  T
   2    -50.7495727 -0.126001E-05  0.479E-02    8.99       1.0  T
   3    -50.7495735 -0.832786E-06  0.738E-03    8.99       2.7  T
   4    -50.7495737 -0.178080E-06  0.253E-03    8.99       7.8  T
   5    -50.7495737 -0.101488E-07  0.721E-04    8.99      27.2  T
speedup  0.89
cpu  time for SCC    0.00 s
wall time for SCC    0.00 s
speedup  0.96
cpu  time for grad    0.01 s
wall time for grad    0.01 s
 E :    -50.45476969  G :  0.006218    pred/act E change: -0.799D-04 -0.744D-04
Maxdispl :   0.0747   ||displ|| :   0.2023   Lambda : -0.133D-03
Largest |displ|/coords:  0.0747 (   6)  0.0652 (  27)  0.0623 (   2)
................................................................................
.............................. CYCLE   50 ......................................
................................................................................
   1    -50.7492833 -0.507493E+02  0.111E-01    9.03       0.0  T
   2    -50.7492866 -0.325988E-05  0.827E-02    9.03       1.0  T
   3    -50.7492884 -0.182876E-05  0.124E-02    9.02       1.6  T
   4    -50.7492889 -0.531422E-06  0.429E-03    9.02       4.6  T
   5    -50.7492889 -0.227269E-07  0.112E-03    9.02      17.5  T
   6    -50.7492889 -0.151390E-08  0.685E-04    9.02      28.6  T
speedup  1.11
cpu  time for SCC    0.01 s
wall time for SCC    0.01 s
speedup  1.04
cpu  time for grad    0.01 s
wall time for grad    0.01 s
 E :    -50.45485551  G :  0.004911    pred/act E change: -0.502D-04 -0.858D-04
Maxdispl :   0.0607   ||displ|| :   0.1641   Lambda : -0.112D-03
Largest |displ|/coords:  0.0607 (   6)  0.0551 (   4)  0.0548 (   5)
................................................................................
.............................. CYCLE   51 ......................................
................................................................................
   1    -50.7505452 -0.507505E+02  0.839E-02    9.08       0.0  T
   2    -50.7505481 -0.286662E-05  0.631E-02    9.07       1.0  T
   3    -50.7505498 -0.169559E-05  0.110E-02    9.07       1.8  T
   4    -50.7505502 -0.454792E-06  0.417E-03    9.07       4.7  T
   5    -50.7505503 -0.221561E-07  0.956E-04    9.07      20.5  T
   6    -50.7505503 -0.881215E-09  0.622E-04    9.07      31.5  T
speedup  0.91
cpu  time for SCC    0.01 s
wall time for SCC    0.01 s
speedup  0.96
cpu  time for grad    0.01 s
wall time for grad    0.01 s
 E :    -50.45491421  G :  0.005904    pred/act E change: -0.693D-04 -0.587D-04
Maxdispl :   0.1267   ||displ|| :   0.3331   Lambda : -0.130D-03
Largest |displ|/coords:  0.1267 (   5)  0.1124 (  27)  0.0980 (   2)
................................................................................
.............................. CYCLE   52 ......................................
................................................................................
   1    -50.7467939 -0.507468E+02  0.181E-01    9.09       0.0  T
   2    -50.7468022 -0.824110E-05  0.135E-01    9.08       1.0  T
   3    -50.7468090 -0.679793E-05  0.216E-02    9.07       1.0  T
   4    -50.7468100 -0.102379E-05  0.728E-03    9.07       2.7  T
   5    -50.7468101 -0.689064E-07  0.212E-03    9.07       9.3  T
   6    -50.7468101 -0.436339E-08  0.128E-03    9.07      15.4  T
speedup  1.11
cpu  time for SCC    0.01 s
wall time for SCC    0.01 s
speedup  1.04
cpu  time for grad    0.01 s
wall time for grad    0.01 s
 E :    -50.45493773  G :  0.011373    pred/act E change: -0.575D-04 -0.235D-04
Maxdispl :   0.0533   ||displ|| :   0.1403   Lambda : -0.243D-03
Largest |displ|/coords:  0.0533 (  17)  0.0519 (  16)  0.0448 (  15)

generating ANC from model Hessian ...
 Shifting diagonal of input Hessian by   5.034838994772205E-003
 Lowest  eigenvalues of input Hessian
    0.005000   -0.000000   -0.000000   -0.000000   -0.000000    0.000000
    0.000000    0.005283    0.005474    0.005772    0.005952    0.006337
    0.006731    0.006892    0.007315    0.007796    0.008194    0.008831
 Highest eigenvalues
    1.412343    1.416272    1.483890    2.611146    3.390372    3.699566
 
cpu  time for ANC gen    0.02 s
wall time for ANC gen    0.02 s
................................................................................
.............................. CYCLE   53 ......................................
................................................................................
   1    -50.7501700 -0.507502E+02  0.878E-02    9.13       0.0  T
   2    -50.7501732 -0.315882E-05  0.656E-02    9.14       1.0  T
   3    -50.7501752 -0.199476E-05  0.108E-02    9.15       1.8  T
   4    -50.7501756 -0.431417E-06  0.323E-03    9.15       6.1  T
   5    -50.7501756 -0.144175E-07  0.931E-04    9.15      21.1  T
   6    -50.7501756 -0.108399E-08  0.549E-04    9.15      35.7  T
speedup  0.89
cpu  time for SCC    0.00 s
wall time for SCC    0.01 s
speedup  0.99
cpu  time for grad    0.01 s
wall time for grad    0.01 s
 E :    -50.45504086  G :  0.006835    pred/act E change:  0.000D+00 -0.103D-03
Maxdispl :   0.0668   ||displ|| :   0.1394   Lambda : -0.226D-03
Largest |displ|/coords:  0.0668 (   1)  0.0599 (   3)  0.0524 (   2)
................................................................................
.............................. CYCLE   54 ......................................
................................................................................
   1    -50.7494548 -0.507495E+02  0.117E-01    9.13       0.0  T
   2    -50.7494568 -0.194731E-05  0.893E-02    9.13       1.0  T
   3    -50.7494592 -0.248066E-05  0.590E-03    9.12       3.3  T
   4    -50.7494593 -0.848676E-07  0.201E-03    9.12       9.7  T
   5    -50.7494593 -0.310042E-08  0.922E-04    9.12      21.3  T
speedup  0.87
cpu  time for SCC    0.00 s
wall time for SCC    0.00 s
speedup  0.95
cpu  time for grad    0.01 s
wall time for grad    0.01 s
 E :    -50.45520600  G :  0.003754    pred/act E change:  0.000D+00 -0.165D-03
Maxdispl :   0.1527   ||displ|| :   0.3062   Lambda : -0.312D-03
Largest |displ|/coords:  0.1527 (   2)  0.1312 (   5)  0.1212 (   1)
................................................................................
.............................. CYCLE   55 ......................................
................................................................................
   1    -50.7465080 -0.507465E+02  0.221E-01    9.09       0.0  T
   2    -50.7465143 -0.635976E-05  0.166E-01    9.08       1.0  T
   3    -50.7465218 -0.749232E-05  0.133E-02    9.07       1.5  T
   4    -50.7465223 -0.447015E-06  0.450E-03    9.08       4.4  T
   5    -50.7465223 -0.164013E-07  0.219E-03    9.08       9.0  T
   6    -50.7465223 -0.755271E-08  0.744E-04    9.08      26.4  T
   7    -50.7465223 -0.130489E-08  0.174E-04    9.08     112.9  T
speedup  0.94
cpu  time for SCC    0.01 s
wall time for SCC    0.01 s
speedup  0.99
cpu  time for grad    0.01 s
wall time for grad    0.02 s
 E :    -50.45535350  G :  0.012021    pred/act E change: -0.115D-03 -0.147D-03
Maxdispl :   0.0399   ||displ|| :   0.0790   Lambda : -0.153D-03
Largest |displ|/coords:  0.0399 (   3)  0.0325 (   6)  0.0316 (   2)
................................................................................
.............................. CYCLE   56 ......................................
................................................................................
   1    -50.7480396 -0.507480E+02  0.475E-02    9.08       0.0  T
   2    -50.7480406 -0.989714E-06  0.354E-02    9.08       1.0  T
   3    -50.7480414 -0.780475E-06  0.611E-03    9.07       3.2  T
   4    -50.7480415 -0.118368E-06  0.153E-03    9.07      12.8  T
   5    -50.7480415 -0.559444E-08  0.627E-04    9.07      31.3  T
speedup  1.06
cpu  time for SCC    0.01 s
wall time for SCC    0.00 s
speedup  1.02
cpu  time for grad    0.01 s
wall time for grad    0.01 s
 E :    -50.45545818  G :  0.006191    pred/act E change: -0.171D-03 -0.105D-03
Maxdispl :   0.1066   ||displ|| :   0.2330   Lambda : -0.187D-03
Largest |displ|/coords:  0.1066 (   1)  0.1026 (   2)  0.0816 (   5)
................................................................................
.............................. CYCLE   57 ......................................
................................................................................
   1    -50.7487321 -0.507487E+02  0.147E-01    9.07       0.0  T
   2    -50.7487360 -0.395194E-05  0.110E-01    9.06       1.0  T
   3    -50.7487398 -0.376596E-05  0.128E-02    9.06       1.5  T
   4    -50.7487402 -0.419768E-06  0.333E-03    9.06       5.9  T
   5    -50.7487402 -0.199582E-07  0.142E-03    9.06      13.9  T
   6    -50.7487402 -0.329341E-08  0.705E-04    9.06      27.8  T
speedup  0.91
cpu  time for SCC    0.00 s
wall time for SCC    0.01 s
speedup  1.03
cpu  time for grad    0.01 s
wall time for grad    0.01 s
 E :    -50.45559861  G :  0.004892    pred/act E change: -0.768D-04 -0.140D-03
Maxdispl :   0.1644   ||displ|| :   0.3464   Lambda : -0.204D-03
Largest |displ|/coords:  0.1644 (   1)  0.1466 (   5)  0.1418 (   2)
................................................................................
.............................. CYCLE   58 ......................................
................................................................................
   1    -50.7477261 -0.507477E+02  0.215E-01    9.05       0.0  T
   2    -50.7477328 -0.667320E-05  0.161E-01    9.05       1.0  T
   3    -50.7477402 -0.746100E-05  0.164E-02    9.04       1.2  T
   4    -50.7477407 -0.522792E-06  0.480E-03    9.04       4.1  T
   5    -50.7477408 -0.321124E-07  0.203E-03    9.04       9.6  T
   6    -50.7477408 -0.626036E-08  0.103E-03    9.04      19.1  T
speedup  1.09
cpu  time for SCC    0.01 s
wall time for SCC    0.01 s
speedup  1.03
cpu  time for grad    0.01 s
wall time for grad    0.01 s
 E :    -50.45572971  G :  0.008536    pred/act E change: -0.987D-04 -0.131D-03
Maxdispl :   0.1168   ||displ|| :   0.2570   Lambda : -0.184D-03
Largest |displ|/coords:  0.1168 (   1)  0.1104 (   4)  0.1081 (   6)
................................................................................
.............................. CYCLE   59 ......................................
................................................................................
   1    -50.7491268 -0.507491E+02  0.137E-01    9.05       0.0  T
   2    -50.7491315 -0.468399E-05  0.102E-01    9.05       1.0  T
   3    -50.7491351 -0.365919E-05  0.135E-02    9.06       1.4  T
   4    -50.7491357 -0.600066E-06  0.381E-03    9.06       5.1  T
   5    -50.7491358 -0.211325E-07  0.137E-03    9.06      14.3  T
   6    -50.7491358 -0.219411E-08  0.747E-04    9.06      26.2  T
speedup  0.91
cpu  time for SCC    0.00 s
wall time for SCC    0.01 s
speedup  0.96
cpu  time for grad    0.01 s
wall time for grad    0.01 s
 E :    -50.45583869  G :  0.007869    pred/act E change: -0.114D-03 -0.109D-03
Maxdispl :   0.2066   ||displ|| :   0.5020   Lambda : -0.287D-03
Largest |displ|/coords:  0.2066 (   1)  0.2065 (   6)  0.1898 (   4)
................................................................................
.............................. CYCLE   60 ......................................
................................................................................
   1    -50.7450544 -0.507451E+02  0.292E-01    9.04       0.0  T
   2    -50.7450659 -0.114910E-04  0.220E-01    9.05       1.0  T
   3    -50.7450785 -0.125407E-04  0.223E-02    9.06       1.0  T
   4    -50.7450793 -0.894289E-06  0.807E-03    9.06       2.4  T
   5    -50.7450794 -0.633306E-07  0.250E-03    9.06       7.8  T
   6    -50.7450794 -0.535341E-08  0.144E-03    9.06      13.6  T
speedup  1.07
cpu  time for SCC    0.01 s
wall time for SCC    0.01 s
speedup  1.02
cpu  time for grad    0.01 s
wall time for grad    0.01 s
 E :    -50.45600851  G :  0.012792    pred/act E change: -0.982D-04 -0.170D-03
Maxdispl :   0.1572   ||displ|| :   0.2938   Lambda : -0.397D-03
Largest |displ|/coords:  0.1572 (   4)  0.1472 (   6)  0.0972 (  11)
................................................................................
.............................. CYCLE   61 ......................................
................................................................................
   1    -50.7470000 -0.507470E+02  0.133E-01    9.15       0.0  T
   2    -50.7470048 -0.473691E-05  0.994E-02    9.14       1.0  T
   3    -50.7470082 -0.342854E-05  0.135E-02    9.13       1.5  T
   4    -50.7470088 -0.606750E-06  0.431E-03    9.13       4.5  T
   5    -50.7470088 -0.278545E-07  0.149E-03    9.13      13.1  T
   6    -50.7470088 -0.194228E-08  0.827E-04    9.13      23.7  T
speedup  0.93
cpu  time for SCC    0.00 s
wall time for SCC    0.01 s
speedup  0.97
cpu  time for grad    0.01 s
wall time for grad    0.01 s
 E :    -50.45626124  G :  0.011761    pred/act E change: -0.180D-03 -0.253D-03
Maxdispl :   0.3040   ||displ|| :   0.5711   Lambda : -0.884D-03
Largest |displ|/coords:  0.3040 (   6)  0.2468 (   4)  0.2022 (  11)
................................................................................
.............................. CYCLE   62 ......................................
................................................................................
   1    -50.7465011 -0.507465E+02  0.299E-01    9.20       0.0  T
   2    -50.7465242 -0.230795E-04  0.224E-01    9.21       1.0  T
   3    -50.7465400 -0.158099E-04  0.283E-02    9.23       1.0  T
   4    -50.7465432 -0.319762E-05  0.861E-03    9.22       2.3  T
   5    -50.7465433 -0.105339E-06  0.323E-03    9.22       6.1  T
   6    -50.7465433 -0.941763E-08  0.165E-03    9.22      11.9  T
   7    -50.7465433 -0.497165E-08  0.395E-04    9.22      49.6  T
speedup  0.95
cpu  time for SCC    0.01 s
wall time for SCC    0.01 s
speedup  0.90
cpu  time for grad    0.01 s
wall time for grad    0.01 s
 E :    -50.45632453  G :  0.029344    pred/act E change: -0.216D-03 -0.633D-04
Maxdispl :   0.1434   ||displ|| :   0.2936   Lambda : -0.132D-02
Largest |displ|/coords:  0.1434 (   6)  0.1306 (   4)  0.1143 (   5)
................................................................................
.............................. CYCLE   63 ......................................
................................................................................
   1    -50.7461074 -0.507461E+02  0.169E-01    9.23       0.0  T
   2    -50.7461176 -0.101937E-04  0.126E-01    9.22       1.0  T
   3    -50.7461243 -0.662246E-05  0.189E-02    9.19       1.0  T
   4    -50.7461256 -0.137299E-05  0.499E-03    9.20       3.9  T
   5    -50.7461257 -0.407358E-07  0.201E-03    9.20       9.8  T
speedup  0.87
cpu  time for SCC    0.00 s
wall time for SCC    0.00 s
speedup  0.95
cpu  time for grad    0.01 s
wall time for grad    0.01 s
 E :    -50.45718878  G :  0.015709    pred/act E change: -0.586D-03 -0.864D-03
Maxdispl :   0.2962   ||displ|| :   0.5585   Lambda : -0.173D-02
Largest |displ|/coords:  0.2962 (   4)  0.2062 (   7)  0.1896 (   5)
................................................................................
.............................. CYCLE   64 ......................................
................................................................................
   1    -50.7462752 -0.507463E+02  0.305E-01    9.09       0.0  T
   2    -50.7463082 -0.329477E-04  0.228E-01    9.09       1.0  T
   3    -50.7463271 -0.189241E-04  0.335E-02    9.08       1.0  T
   4    -50.7463326 -0.549856E-05  0.109E-02    9.08       1.8  T
   5    -50.7463327 -0.121799E-06  0.305E-03    9.08       6.4  T
   6    -50.7463327 -0.938615E-08  0.151E-03    9.08      13.0  T
   7    -50.7463327 -0.242125E-08  0.466E-04    9.08      42.1  T
speedup  0.92
cpu  time for SCC    0.01 s
wall time for SCC    0.01 s
speedup  0.97
cpu  time for grad    0.01 s
wall time for grad    0.01 s
 E :    -50.45701039  G :  0.035560    pred/act E change: -0.714D-03  0.178D-03
Maxdispl :   0.1875   ||displ|| :   0.3639   Lambda : -0.251D-02
Largest |displ|/coords:  0.1875 (   6)  0.1870 (  13)  0.1362 (   4)
................................................................................
.............................. CYCLE   65 ......................................
................................................................................
   1    -50.7439037 -0.507439E+02  0.250E-01    9.11       0.0  T
   2    -50.7439332 -0.294958E-04  0.187E-01    9.11       1.0  T
   3    -50.7439499 -0.166349E-04  0.311E-02    9.11       1.0  T
   4    -50.7439540 -0.417257E-05  0.803E-03    9.11       2.4  T
   5    -50.7439542 -0.166062E-06  0.274E-03    9.11       7.1  T
   6    -50.7439542 -0.485643E-08  0.157E-03    9.11      12.5  T
speedup  1.11
cpu  time for SCC    0.01 s
wall time for SCC    0.01 s
speedup  1.05
cpu  time for grad    0.01 s
wall time for grad    0.01 s
 E :    -50.45871997  G :  0.016848    pred/act E change: -0.113D-02 -0.171D-02
Maxdispl :   0.2786   ||displ|| :   0.5288   Lambda : -0.136D-02
[...]
   2    -50.7563663 -0.902645E-07  0.179E-02    8.53       1.1  T
   3    -50.7563664 -0.749260E-07  0.194E-03    8.53      10.1  T
   4    -50.7563664 -0.122956E-07  0.591E-04    8.53      33.2  T
   5    -50.7563664 -0.536964E-09  0.212E-04    8.53      92.5  T
speedup  0.87
cpu  time for SCC    0.00 s
wall time for SCC    0.00 s
speedup  0.98
cpu  time for grad    0.01 s
wall time for grad    0.01 s
 E :    -50.46626564  G :  0.000994    pred/act E change: -0.408D-05 -0.430D-05
Maxdispl :   0.0278   ||displ|| :   0.0386   Lambda : -0.375D-05
Largest |displ|/coords:  0.0278 (   2)  0.0140 (   3)  0.0076 (  13)
................................................................................
.............................. CYCLE  141 ......................................
................................................................................
   1    -50.7563354 -0.507563E+02  0.251E-02    8.52       0.0  T
   2    -50.7563354 -0.818234E-07  0.190E-02    8.52       1.0  T
   3    -50.7563355 -0.788420E-07  0.174E-03    8.52      11.3  T
   4    -50.7563355 -0.935700E-08  0.571E-04    8.52      34.3  T
   5    -50.7563355 -0.290626E-09  0.186E-04    8.52     105.5  T
speedup  1.09
cpu  time for SCC    0.00 s
wall time for SCC    0.00 s
speedup  0.97
cpu  time for grad    0.01 s
wall time for grad    0.01 s
 E :    -50.46626806  G :  0.000952    pred/act E change: -0.334D-05 -0.242D-05
Maxdispl :   0.0175   ||displ|| :   0.0278   Lambda : -0.208D-05
Largest |displ|/coords:  0.0175 (   2)  0.0108 (   9)  0.0072 (   3)
................................................................................
.............................. CYCLE  142 ......................................
................................................................................
   1    -50.7563753 -0.507564E+02  0.182E-02    8.52       0.0  T
   2    -50.7563754 -0.468690E-07  0.138E-02    8.52       1.4  T
   3    -50.7563754 -0.486100E-07  0.110E-03    8.52      17.8  T
   4    -50.7563754 -0.435206E-08  0.419E-04    8.52      46.8  T
   5    -50.7563754 -0.215650E-09  0.121E-04    8.52     162.4  T
speedup  0.87
cpu  time for SCC    0.00 s
wall time for SCC    0.00 s
speedup  0.98
cpu  time for grad    0.01 s
wall time for grad    0.01 s
 E :    -50.46626936  G :  0.000755    pred/act E change: -0.188D-05 -0.130D-05
Maxdispl :   0.0113   ||displ|| :   0.0185   Lambda : -0.104D-05
Largest |displ|/coords:  0.0113 (   2)  0.0086 (   3)  0.0038 (   9)
................................................................................
.............................. CYCLE  143 ......................................
................................................................................
   1    -50.7564537 -0.507565E+02  0.106E-02    8.52       0.0  T
   2    -50.7564537 -0.184251E-07  0.805E-03    8.52       2.4  T
   3    -50.7564537 -0.130516E-07  0.720E-04    8.52      27.2  T
   4    -50.7564537 -0.294172E-08  0.262E-04    8.52      75.0  T
speedup  1.08
cpu  time for SCC    0.00 s
wall time for SCC    0.00 s
speedup  0.98
cpu  time for grad    0.01 s
wall time for grad    0.01 s
 E :    -50.46627005  G :  0.000502    pred/act E change: -0.104D-05 -0.691D-06
Maxdispl :   0.0093   ||displ|| :   0.0164   Lambda : -0.804D-06
Largest |displ|/coords:  0.0093 (   3)  0.0080 (   2)  0.0048 (   8)
................................................................................
.............................. CYCLE  144 ......................................
................................................................................
   1    -50.7564861 -0.507565E+02  0.843E-03    8.52       0.0  T
   2    -50.7564862 -0.105118E-07  0.635E-03    8.52       3.1  T
   3    -50.7564862 -0.775969E-08  0.741E-04    8.52      26.5  T
   4    -50.7564862 -0.150757E-08  0.247E-04    8.52      79.4  T
speedup  0.81
cpu  time for SCC    0.00 s
wall time for SCC    0.00 s
speedup  0.96
cpu  time for grad    0.01 s
wall time for grad    0.01 s
 E :    -50.46627056  G :  0.000366    pred/act E change: -0.520D-06 -0.511D-06
Maxdispl :   0.0093   ||displ|| :   0.0142   Lambda : -0.569D-06
Largest |displ|/coords:  0.0093 (   3)  0.0053 (   2)  0.0040 (   8)
................................................................................
.............................. CYCLE  145 ......................................
................................................................................
   1    -50.7565063 -0.507565E+02  0.706E-03    8.53       0.0  T
   2    -50.7565063 -0.814860E-08  0.528E-03    8.53       3.7  T
   3    -50.7565063 -0.710325E-08  0.769E-04    8.53      25.5  T
   4    -50.7565063 -0.996359E-09  0.179E-04    8.53     109.3  T
speedup  1.08
cpu  time for SCC    0.00 s
wall time for SCC    0.00 s
speedup  1.05
cpu  time for grad    0.01 s
wall time for grad    0.01 s
 E :    -50.46627094  G :  0.000394    pred/act E change: -0.402D-06 -0.373D-06
Maxdispl :   0.0087   ||displ|| :   0.0145   Lambda : -0.399D-06
Largest |displ|/coords:  0.0087 (   3)  0.0052 (   2)  0.0046 (   8)
................................................................................
.............................. CYCLE  146 ......................................
................................................................................
   1    -50.7564774 -0.507565E+02  0.748E-03    8.53       0.0  T
   2    -50.7564774 -0.976268E-08  0.560E-03    8.53       3.5  T
   3    -50.7564775 -0.868108E-08  0.697E-04    8.53      28.1  T
   4    -50.7564775 -0.126014E-08  0.279E-04    8.53      70.4  T
speedup  1.08
cpu  time for SCC    0.00 s
wall time for SCC    0.00 s
speedup  1.03
cpu  time for grad    0.01 s
wall time for grad    0.01 s
 E :    -50.46627122  G :  0.000389    pred/act E change: -0.285D-06 -0.287D-06
Maxdispl :   0.0062   ||displ|| :   0.0110   Lambda : -0.321D-06
Largest |displ|/coords:  0.0062 (  10)  0.0050 (   3)  0.0041 (   8)

generating ANC from model Hessian ...
 Shifting diagonal of input Hessian by   4.711193650128937E-003
 Lowest  eigenvalues of input Hessian
   -0.000000   -0.000000   -0.000000   -0.000000    0.000000    0.000000
    0.005000    0.005308    0.005593    0.006508    0.007406    0.007720
    0.008330    0.008675    0.009125    0.010294    0.010933    0.011891
 Highest eigenvalues
    1.399774    1.415207    1.455646    2.579356    3.421910    3.732056
 
cpu  time for ANC gen    0.02 s
wall time for ANC gen    0.03 s
................................................................................
.............................. CYCLE  147 ......................................
................................................................................
   1    -50.7564837 -0.507565E+02  0.555E-03    8.53       0.0  T
   2    -50.7564838 -0.107145E-07  0.412E-03    8.53       4.8  T
   3    -50.7564838 -0.771225E-08  0.721E-04    8.53      27.2  T
   4    -50.7564838 -0.151290E-08  0.350E-04    8.53      56.0  T
speedup  1.05
cpu  time for SCC    0.00 s
wall time for SCC    0.00 s
speedup  1.04
cpu  time for grad    0.01 s
wall time for grad    0.01 s
 E :    -50.46627145  G :  0.000312    pred/act E change:  0.000D+00 -0.231D-06
Maxdispl :   0.0019   ||displ|| :   0.0038   Lambda : -0.198D-06
Largest |displ|/coords:  0.0019 (   8)  0.0017 (   7)  0.0015 (   3)
................................................................................
.............................. CYCLE  148 ......................................
................................................................................
   1    -50.7565072 -0.507565E+02  0.248E-03    8.53       0.0  T
   2    -50.7565072 -0.108576E-08  0.186E-03    8.53      10.5  T
   3    -50.7565072 -0.110398E-08  0.209E-04    8.53      94.0  T
   4    -50.7565072 -0.117652E-09  0.101E-04    8.53     193.8  T
speedup  1.08
cpu  time for SCC    0.00 s
wall time for SCC    0.00 s
speedup  1.04
cpu  time for grad    0.01 s
wall time for grad    0.01 s
 E :    -50.46627158  G :  0.000197    pred/act E change:  0.000D+00 -0.129D-06
Maxdispl :   0.0027   ||displ|| :   0.0046   Lambda : -0.158D-06
Largest |displ|/coords:  0.0027 (   3)  0.0025 (  11)  0.0010 (   8)
................................................................................
.............................. CYCLE  149 ......................................
................................................................................
   1    -50.7565387 -0.507565E+02  0.284E-03    8.53       0.0  T
   2    -50.7565387 -0.195507E-08  0.212E-03    8.53       9.3  T
   3    -50.7565387 -0.109021E-08  0.299E-04    8.53      65.6  T
   4    -50.7565387 -0.319439E-09  0.143E-04    8.53     137.1  T
speedup  1.00
cpu  time for SCC    0.00 s
wall time for SCC    0.00 s
speedup  1.02
cpu  time for grad    0.01 s
wall time for grad    0.01 s
 E :    -50.46627167  G :  0.000123    pred/act E change: -0.988D-07 -0.888D-07
Maxdispl :   0.0030   ||displ|| :   0.0057   Lambda : -0.140D-06
Largest |displ|/coords:  0.0030 (  11)  0.0025 (   3)  0.0019 (   5)

   *** GEOMETRY OPTIMIZATION CONVERGED AFTER 149 ITERATIONS ***

------------------------------------------------------------------------
 total energy gain (kcal):     -0.0001
------------------------------------------------------------------------
================
 final structure:
================
$coord
       -2.80565384822316       -2.50600759470024       -0.12969211181576      S 
       -5.11630166755204       -1.15648687875389       -0.56403172398930      O 
       -0.91182928522682       -2.13518123396008       -2.12083372049245      O 
       -1.65314190635188       -2.08617223350278        2.33265530073408      O 
       -3.52120282195330       -5.41564246424040       -0.22663719035679      O 
       -5.23186196450712       -5.29714919298142       -0.76139814835233      H 
        3.35419043481066        3.33838879769328       -0.49630282784010      O 
        4.31090523260792        4.79127097980000        0.00071613029502      H 
       -0.44186306810117        2.55440914803041       -4.30867021708463      O 
        1.02296467427024        3.07888827221919       -3.35328362791183      H 
       -0.74912205488411        0.80767661456867       -3.84077359333189      H 
       -4.07139173899407        3.88012535587653       -0.86289496675913      O 
       -3.04396850006672        3.81689572105367       -2.39264799518231      H 
       -4.85453197749072        2.22212918165174       -0.75541561958448      H 
        2.82050921895380       -3.23160035968037        4.08445756963221      O 
        1.02208702526284       -3.08704518421226        3.61860776825317      H 
        3.03860015331319       -2.13338667987613        5.51075569654485      H 
       -0.48522584788045        2.87509969627086        2.42984834868171      O 
        1.85655897907341        3.25286316885586        0.69573098696985      H 
       -1.89146337312874        3.58573570064512        1.41347401689723      H 
       -0.93739661054735        1.10308658374127        2.63111530492050      H 
        3.72006966154250       -1.66692041084707       -0.59491938204652      N 
        5.02214988797769       -2.56089886966003       -1.67964109154171      H 
        3.96905932005201        0.29762224576638       -0.61261385027594      H 
        1.85079610648680       -1.99753400912750       -1.30054930592187      H 
        3.72706395189262       -2.33016635462746        1.28294430614777      H 
$end
 
 Bond Distances (Angstroems)
 ---------------------------
S1-O2=1.4345         S1-O3=1.4673         S1-O4=1.4557         S1-O5=1.5864         O2-S1=1.4345         O3-S1=1.4673         
O4-S1=1.4557         O5-S1=1.5864         O5-H6=0.9505         H6-O5=0.9505         O7-H8=0.9574         O7-H19=1.0139        
H8-O7=0.9574         O9-H10=0.9662        O9-H11=0.9706        H10-O9=0.9662        H11-O9=0.9706        O12-H13=0.9757       
O12-H14=0.9720       H13-O12=0.9757       H14-O12=0.9720       O15-H16=0.9861       O15-H17=0.9595       H16-O15=0.9861       
H17-O15=0.9595       O18-H20=0.9922       O18-H21=0.9736       H19-O7=1.0139        H20-O18=0.9922       H21-O18=0.9736       
N22-H23=1.0139       N22-H24=1.0479       N22-H25=1.0717       N22-H26=1.0539       H23-N22=1.0139       H24-N22=1.0479       
H25-N22=1.0717       H26-N22=1.0539       
 N  H  Rav=1.0469 sigma=0.0209  Rmin=1.0139  Rmax=1.0717     4
 O  H  Rav=0.9743 sigma=0.0170  Rmin=0.9505  Rmax=1.0139    11
 S  O  Rav=1.4860 sigma=0.0592  Rmin=1.4345  Rmax=1.5864     4
 
 selected bond angles (degree)
 --------------------
O3-S1-O2=113.61                O4-S1-O2=115.12                O4-S1-O3=109.65                O5-S1-O2=105.93                
O5-S1-O3=105.64                O5-S1-O4=106.09                H6-O5-S1= 99.96                H19-O7-H8=106.16               
H11-O9-H10=105.93              
 
 selected dihedral angles (degree)
 ---------------------------------
H6-O5-S1-O2=  7.13            H6-O5-S1-O3=246.30            H6-O5-S1-O4=129.94            
 
 CMA Distance (Angstroems)
 ---------------------------
R(CMA):  2.8327

========================================================================
 FINAL SINGLEPOINT CALCULATION ON OPTIMIZED GEOMETRY
========================================================================

 Ncao       : 65
 Nao        : 64
 Nshell     : 38
 Nel        : 80
 T(el)      :   300.0
 intcut     :    25.0
 scfconv/Eh :  0.100E-05
   qconv/e  :  0.100E-03
 intneglect :  0.100E-07
 broydamp   :      0.250
 iter      E             dE          RMSdq      gap      omega  full diag
   1    -50.7565387 -0.507565E+02  0.449E-05    8.53       0.0  T
   2    -50.7565387 -0.895284E-12  0.297E-05    8.53     660.4  T
   3    -50.7565387 -0.625278E-12  0.576E-06    8.53    3403.8  T
speedup  1.11
cpu  time for SCC    0.00 s
wall time for SCC    0.00 s

   *** convergence criteria satisfied after 3 iterations ***

          eigenvalues
 #    :          28         29         30         31         32         33         34         35
 occ. :        2.000      2.000      2.000      2.000      2.000      2.000      2.000      2.000
 eps  :       -13.449    -13.353    -12.749    -12.574    -12.513    -12.428    -12.373    -12.269
 #    :          36         37         38         39         40         41         42         43
 occ. :        2.000      2.000      2.000      2.000      2.000      0.000      0.000      0.000
 eps  :       -12.105    -11.970    -11.748    -11.473    -11.207     -2.681     -1.215     -0.562
 #    :          44         45         46         47         48         49         50         51
 occ. :        0.000      0.000      0.000      0.000      0.000      0.000      0.000      0.000
 eps  :         0.676      0.768      1.060      2.360      3.032      3.808      4.685      5.028


   #   Z            q   n(s)   n(p)   n(d)      C6AA      α(0)
   1  16 S      1.692  1.581  1.781  0.946    88.951    15.874
   2   8 O     -0.724  1.770  4.954  0.000    29.375     7.267
   3   8 O     -0.742  1.766  4.977  0.000    29.879     7.329
   4   8 O     -0.745  1.766  4.979  0.000    29.967     7.339
   5   8 O     -0.597  1.752  4.845  0.000    25.088     6.762
   6   1 H      0.350  0.650  0.000  0.000     0.578     1.189
   7   8 O     -0.642  1.752  4.890  0.000    26.230     6.912
   8   1 H      0.285  0.715  0.000  0.000     0.769     1.377
   9   8 O     -0.621  1.755  4.867  0.000    25.707     6.843
  10   1 H      0.305  0.695  0.000  0.000     0.707     1.320
  11   1 H      0.307  0.693  0.000  0.000     0.701     1.315
  12   8 O     -0.625  1.755  4.870  0.000    25.800     6.855
  13   1 H      0.317  0.683  0.000  0.000     0.673     1.289
  14   1 H      0.309  0.691  0.000  0.000     0.695     1.310
  15   8 O     -0.603  1.743  4.860  0.000    25.261     6.783
  16   1 H      0.338  0.662  0.000  0.000     0.617     1.234
  17   1 H      0.296  0.704  0.000  0.000     0.733     1.345
  18   8 O     -0.645  1.760  4.885  0.000    26.299     6.921
  19   1 H      0.348  0.652  0.000  0.000     0.594     1.211
  20   1 H      0.332  0.668  0.000  0.000     0.632     1.249
  21   1 H      0.307  0.693  0.000  0.000     0.699     1.314
  22   7 N     -0.349  1.274  4.074  0.000    28.957     7.992
  23   1 H      0.230  0.770  0.000  0.000     0.967     1.541
  24   1 H      0.292  0.708  0.000  0.000     0.739     1.347
  25   1 H      0.299  0.701  0.000  0.000     0.715     1.324
  26   1 H      0.289  0.711  0.000  0.000     0.747     1.354

 Mol. C6AA /au·bohr⁶  :       5451.163013
 Mol. C8AA /au·bohr⁸  :     117952.048428
 Mol. α(0) /au        :        106.596028

 
 Wiberg/Mayer (AO) data. WBOs > 0.1 written file <wbo>
 largest (>0.05) Wiberg bond orders for each atom
           total WBO             WBO to atom ...
     1  S   4.847    O    2 1.381    O    4 1.290    O    3 1.245    O    5 0.887
     2  O   1.738    S    1 1.381    O    4 0.107    O    3 0.105    O    5 0.080
     3  O   1.753    S    1 1.245    H   25 0.126    O    4 0.109    O    2 0.105    O    5 0.067
     4  O   1.729    S    1 1.290    O    3 0.109    O    2 0.107    O    5 0.067    H   16 0.062
     5  O   1.966    S    1 0.887    H    6 0.860    O    2 0.080    O    3 0.067    O    4 0.067
     6  H   0.877    O    5 0.860
     7  O   1.877    H    8 0.908    H   19 0.754    H   24 0.086    O   18 0.050
     8  H   0.919    O    7 0.908
     9  O   1.853    H   10 0.882    H   11 0.868
    10  H   0.907    O    9 0.882
    11  H   0.906    O    9 0.868
    12  O   1.884    H   14 0.865    H   13 0.854    H   20 0.081
    13  H   0.900    O   12 0.854
    14  H   0.905    O   12 0.865
    15  O   1.911    H   17 0.908    H   16 0.819    H   26 0.099
    16  H   0.886    O   15 0.819    O    4 0.062
    17  H   0.912    O   15 0.908
    18  O   1.901    H   21 0.853    H   20 0.806    H   19 0.123    O    7 0.050
    19  H   0.879    O    7 0.754    O   18 0.123
    20  H   0.889    O   18 0.806    O   12 0.081
    21  H   0.905    O   18 0.853
    22  N   3.523    H   23 0.944    H   24 0.824    H   26 0.813    H   25 0.777
    23  H   0.947    N   22 0.944
    24  H   0.915    N   22 0.824    O    7 0.086
    25  H   0.910    N   22 0.777    O    3 0.126
    26  H   0.916    N   22 0.813    O   15 0.099
 MOs/occ written to file <molden.input>
 
molecular dipole:
                 x           y           z       tot (Debye)
 q only:        2.878      -0.709       0.207
   full:        2.447      -1.118       0.335       6.892
molecular quadrupole (traceless):
                xx          xy          yy          xz          yz          zz
 q only:        8.789       5.731      -3.956      -0.811       5.356      -4.833
  q+dip:       10.898      11.886      -5.294      -0.867       7.285      -5.604
   full:       11.095      12.491      -4.903      -0.695       7.427      -6.192

SCC energy    :     -50.7565387
rep           :       0.2899192
ES            :       0.2671123
AES           :      -0.0756808
AXC           :      -0.0084022
disp          :      -0.0198629
XB            :       0.0000000
fix           :       0.0000000
total E       :     -50.4662717
atomizationE  :       4.9965758     3135.40
(atE without considering molecular charge,
 total energy contains solvation terms)
H-L gap (eV)  :          8.5257
optimized geometry written to: xtbopt.xyz


------------------------------------------------------------------------
 * finished run on 2019/09/16 at 12:45:22.881     
------------------------------------------------------------------------
 total:
 * wall-time:     0 d,  0 h,  0 min,  3.432 sec
 *  cpu-time:     0 d,  0 h,  0 min,  3.384 sec
 * ratio c/w:     0.986 speedup
 SCF:
 * wall-time:     0 d,  0 h,  0 min,  0.157 sec
 *  cpu-time:     0 d,  0 h,  0 min,  0.154 sec
 * ratio c/w:     0.980 speedup
 ANC optimizer:
 * wall-time:     0 d,  0 h,  0 min,  3.246 sec
 *  cpu-time:     0 d,  0 h,  0 min,  3.206 sec
 * ratio c/w:     0.988 speedup

