      -----------------------------------------------------------      
     |                   =====================                   |     
     |                           x T B                           |     
     |                   =====================                   |     
     |                         S. Grimme                         |     
     |          Mulliken Center for Theoretical Chemistry        |     
     |                    University of Bonn                     |     
     |                 Version 6.0.1 (SAW181210)                 |     
      -----------------------------------------------------------      

   This program is distributed in the hope that it will be useful,
   but WITHOUT ANY WARRANTY; without even the implied warranty of
   MERCHANTABILITY or FITNESS FOR A PARTICULAR PURPOSE.
   
   FOR NON-COMMERCIAL, ACADEMIA USE ONLY.
   
   Cite this work as:
   S. Grimme, C. Bannwarth, P. Shushkov, J. Comput. Theory Chem., 2017,
   13, 1989-2009.
   C. Bannwarth, S. Ehlert and S. Grimme., ChemRxiv, 2018, preprint.
   http://doi.org/10.26434/chemrxiv.7246238.v1
   
   for sTDA-xTB:
   S. Grimme and C. Bannwarth, J. Chem. Phys., 2016, 145, 054103.
   
   in the mass-spec context:
   V. Asgeirsson, C. Bauer and S. Grimme, Chem. Sci., 2017, 8, 4879.
   
   if GBSA is used:
   P. Shushkov, F. März and S. Grimme, unpublished.
   
   for ANC optimizer:
   S. Grimme, unpublished.
   Rational Function algorithm used in ANCopt:
   F. Eckert, P. Pulay, H.-J. Werner, J. Comput. Chem., 1997, 18, 1473.
   
   with help from (in alphabetical order)
   C. Bannwarth, F. Bohle, G. Brandenburg, E. Caldeweyher, M. Checinski,
   S. Dohm, S. Ehlert, S. Ehrlich, F. März, H. Neugebauer, J. Pisarek,
   P. Pracht, P. Shushkov, and S. Spicher.
   
 * started run on 2019/09/16 at 12:09:44.371     
========================================================================
 # omp threads = 1
========================================================================
number of atoms            : 26
number of electrons        : 80
charge                     : 0
spin                       : .0
first test random number   : .9276

########################################################################
# WARNING! Please study the warnings concerning your input carefully
#  - XTBPATH is not set, using XTBHOME instead
#  - the use of '-opt' is discouraged, please use '--opt' next time
#  - the use of '-chrg' is discouraged, please use '--chrg' next time
#  - the use of '-uhf' is discouraged, please use '--uhf' next time
########################################################################

           ------------------------------------------------- 
          |                 G F N 2 - x T B                 |
          | Geometry, Frequencies, Noncovalent interactions |
          |            JCTC 2018 parametrisation            |
           ------------------------------------------------- 
      method parameters     
 k(s)        :  1.8500
 k(p)        :  2.2300
 k(d)        :  2.2300
 k(f)        :  2.0000
 kEN (H0ij)  : -2.0000
 D4 a1       :  0.5200
 D4 a2       :  5.0000
 D4 s6       :  1.0000
 D4 s8       :  2.7000
 D4 s9       :  5.0000
 alphaj      :  2.0000


            Z     q(EN)     CN     RAES       Cart. coordinates
     1  S   6.0    0.64    4.26    4.17    -0.44093    -3.80807    -1.71221
     2  O   6.0   -0.33    1.22    1.80    -0.35942    -1.26620    -2.92067
     3  O   6.0   -0.31    1.22    1.80     2.10307    -4.44080    -0.68466
     4  O   6.0   -0.30    1.22    1.80    -2.32184    -3.79131     0.38302
     5  O   6.0   -0.25    2.08    1.84    -1.17532    -5.70761    -3.60031
     6  H   1.0    0.14    1.21    1.47     0.03607    -5.71907    -4.95068
     7  O   6.0   -0.39    1.69    1.81     0.65538     1.70376     3.27219
     8  H   1.0    0.17    0.95    1.42     0.99762     2.89911     4.66422
     9  O   6.0   -0.36    1.51    1.80    -5.75893     2.72494     1.15346
    10  H   1.0    0.18    0.94    1.42    -7.47762     3.43578     0.99671
    11  O   6.0   -0.22    2.92    2.59     4.18739    -0.66876     1.66744
    12  H   1.0    0.12    1.04    1.44     4.86483     0.30456     0.22398
    13  H   1.0    0.16    1.20    1.46     2.83206     0.25562     2.56108
    14  H   1.0    0.15    1.06    1.44     3.64699    -2.38452     1.16184
    15  O   6.0   -0.22    2.94    2.63    -3.49120    -0.30123     3.63427
    16  H   1.0    0.16    1.04    1.44    -3.40029    -1.91270     2.69366
    17  H   1.0    0.16    1.14    1.45    -1.80527     0.46826     3.86988
    18  H   1.0    0.16    1.19    1.46    -4.70232     0.89280     2.86033
    19  O   6.0   -0.23    2.94    2.63    -1.59020     2.93959    -0.54528
    20  H   1.0    0.17    1.20    1.47    -3.39456     3.11057    -0.09263
    21  H   1.0    0.16    1.16    1.46    -0.50679     2.73000     0.96214
    22  H   1.0    0.15    1.04    1.43    -1.30969     1.58482    -1.80123
    23  N   5.0   -0.22    3.02    1.93     4.75088     1.60400    -2.92177
    24  H   1.0    0.12    1.00    1.43     3.10665     0.76695    -3.47577
    25  H   1.0    0.10    0.99    1.43     6.06843     1.08397    -4.22740
    26  H   1.0    0.10    0.99    1.43     4.48501     3.49555    -3.17163

  Z AO/shell   Hii/eV     exponent
  1     Wed Apr 25 08:07:45 CEST 2018   EN: 2.200 GM2: 0.406  GM3: 0.0800  RAES: 1.40
     1s    -10.707211    1.230000
  7     Wed Apr 25 08:07:45 CEST 2018   EN: 3.040 GM2: 0.461  GM3:-0.0640  RAES: 1.90
     2s    -16.686243    2.339881
     2p    -12.523956    2.014332
  8     Wed Apr 25 08:07:45 CEST 2018   EN: 3.440 GM2: 0.452  GM3:-0.0517  RAES: 1.80
     2s    -20.229985    2.439742
     2p    -15.503117    2.137023
 16     Tue Apr 24 11:44:34 CEST 2018   EN: 2.580 GM2: 0.340  GM3:-0.0502  RAES: 3.10
     3s    -20.029654    1.981333
     3p    -11.377694    2.025643
     3d     -0.420282    1.702555
 no old-style atom pair restraining (fixing) potential

molecular fragmentation (1/2 indicates fragments):
11111122222222222222222222
# atoms in fragment 1/2:     6    20
 fragment masses (1/2) :       97.07      108.11
CMA distance (Bohr)    :   5.846
constraining FC (au)   :  0.0500
           ------------------------------------------------- 
          |        Self-Consistent Charge Iterations        |
           ------------------------------------------------- 

 Ncao       : 65
 Nao        : 64
 Nshell     : 38
 Nel        : 80
 T(el)      :   300.0
 intcut     :    25.0
 scfconv/Eh :  0.100E-05
   qconv/e  :  0.100E-03
 intneglect :  0.100E-07
 broydamp   :      0.250
 iter      E             dE          RMSdq      gap      omega  full diag
   1    -50.5257308 -0.505257E+02  0.706E+00   10.12       0.0  T
   2    -50.5758245 -0.500937E-01  0.509E+00    9.28       1.0  T
   3    -50.6146940 -0.388695E-01  0.134E+00    5.73       1.0  T
   4    -50.6201003 -0.540630E-02  0.578E-01    6.09       1.0  T
   5    -50.6207553 -0.655014E-03  0.315E-01    6.05       1.0  T
   6    -50.6212033 -0.448034E-03  0.137E-01    6.18       1.0  T
   7    -50.6213081 -0.104748E-03  0.493E-02    6.19       1.0  T
   8    -50.6213196 -0.114647E-04  0.308E-02    6.18       1.0  T
   9    -50.6213250 -0.549731E-05  0.129E-02    6.20       1.5  T
  10    -50.6213261 -0.105512E-05  0.223E-03    6.20       8.8  T
  11    -50.6213261 -0.160231E-07  0.127E-03    6.20      15.4  T
  12    -50.6213261 -0.577958E-08  0.518E-04    6.20      37.9  T
  13    -50.6213261 -0.163804E-08  0.152E-04    6.20     128.8  T
speedup  0.97
cpu  time for SCC    0.01 s
wall time for SCC    0.01 s

   *** convergence criteria satisfied after 13 iterations ***

          eigenvalues
 #    :          28         29         30         31         32         33         34         35
 occ. :        2.000      2.000      2.000      2.000      2.000      2.000      2.000      2.000
 eps  :       -13.080    -12.109    -11.970    -11.898    -11.798    -11.374    -11.280    -11.272
 #    :          36         37         38         39         40         41         42         43
 occ. :        2.000      2.000      2.000      2.000      2.000      0.000      0.000      0.000
 eps  :       -11.057    -10.976    -10.866     -8.798     -8.317     -2.115     -0.457     -0.240
 #    :          44         45         46         47         48         49         50         51
 occ. :        0.000      0.000      0.000      0.000      0.000      0.000      0.000      0.000
 eps  :         0.678      0.805      1.082      2.184      3.348      3.680      3.753      4.606


   #   Z            q   n(s)   n(p)   n(d)      C6AA      α(0)
   1  16 S      1.610  1.583  1.833  0.975    90.846    16.042
   2   8 O     -0.770  1.769  5.001  0.000    30.700     7.429
   3   8 O     -0.763  1.776  4.988  0.000    30.491     7.403
   4   8 O     -0.723  1.765  4.958  0.000    29.345     7.263
   5   8 O     -0.543  1.722  4.820  0.000    23.827     6.590
   6   1 H      0.356  0.644  0.000  0.000     0.566     1.177
   7   8 O     -0.840  1.829  5.011  0.000    32.767     7.677
   8   1 H      0.219  0.781  0.000  0.000     1.027     1.592
   9   8 O     -0.896  1.813  5.083  0.000    34.588     7.887
  10   1 H      0.176  0.824  0.000  0.000     1.249     1.756
  11   8 O     -0.451  1.653  4.798  0.000    21.800     6.306
  12   1 H      0.381  0.619  0.000  0.000     0.521     1.134
  13   1 H      0.404  0.596  0.000  0.000     0.471     1.075
  14   1 H      0.398  0.602  0.000  0.000     0.488     1.097
  15   8 O     -0.478  1.666  4.812  0.000    22.366     6.387
  16   1 H      0.387  0.613  0.000  0.000     0.509     1.121
  17   1 H      0.389  0.611  0.000  0.000     0.503     1.113
  18   1 H      0.404  0.596  0.000  0.000     0.472     1.077
  19   8 O     -0.483  1.668  4.815  0.000    22.481     6.404
  20   1 H      0.406  0.594  0.000  0.000     0.468     1.072
  21   1 H      0.393  0.607  0.000  0.000     0.494     1.102
  22   1 H      0.378  0.622  0.000  0.000     0.527     1.141
  23   7 N     -0.454  1.384  4.069  0.000    31.925     8.391
  24   1 H      0.190  0.810  0.000  0.000     1.157     1.685
  25   1 H      0.151  0.849  0.000  0.000     1.392     1.848
  26   1 H      0.159  0.841  0.000  0.000     1.339     1.813

 Mol. C6AA /au·bohr⁶  :       5560.468065
 Mol. C8AA /au·bohr⁸  :     120401.586467
 Mol. α(0) /au        :        107.581648

 
 Wiberg/Mayer (AO) data. WBOs > 0.1 written file <wbo>
 largest (>0.05) Wiberg bond orders for each atom
           total WBO             WBO to atom ...
     1  S   4.905    O    4 1.335    O    3 1.273    O    2 1.264    O    5 0.995
     2  O   1.671    S    1 1.264    O    4 0.114    O    3 0.112    O    5 0.071    H   22 0.065
     3  O   1.683    S    1 1.273    O    4 0.113    O    2 0.112    H   14 0.081    O    5 0.071
     4  O   1.714    S    1 1.335    O    2 0.114    O    3 0.113    H   16 0.062    O    5 0.054
     5  O   2.048    S    1 0.995    H    6 0.849    O    2 0.071    O    3 0.071    O    4 0.054
     6  H   0.873    O    5 0.849
     7  O   1.650    H    8 0.946    H   13 0.198    H   21 0.161    H   17 0.155    O   11 0.062    O   19 0.055    O   15 0.054
     8  H   0.952    O    7 0.946
     9  O   1.452    H   10 0.943    H   20 0.191    H   18 0.190    O   15 0.058    O   19 0.057
    10  H   0.969    O    9 0.943
    11  O   2.290    H   12 0.769    H   14 0.752    H   13 0.634    O    7 0.062
    12  H   0.855    O   11 0.769    N   23 0.080
    13  H   0.837    O   11 0.634    O    7 0.198
    14  H   0.841    O   11 0.752    O    3 0.081
    15  O   2.264    H   16 0.779    H   17 0.689    H   18 0.641    O    9 0.058    O    7 0.054
    16  H   0.850    O   15 0.779    O    4 0.062
    17  H   0.849    O   15 0.689    O    7 0.155
    18  H   0.837    O   15 0.641    O    9 0.190
    19  O   2.258    H   22 0.782    H   21 0.679    H   20 0.637    O    9 0.057    O    7 0.055
    20  H   0.835    O   19 0.637    O    9 0.191
    21  H   0.846    O   19 0.679    O    7 0.161
    22  H   0.857    O   19 0.782    O    2 0.065
    23  N   3.018    H   25 0.974    H   26 0.971    H   24 0.947    H   12 0.080
    24  H   0.964    N   23 0.947
    25  H   0.977    N   23 0.974
    26  H   0.975    N   23 0.971
 MOs/occ written to file <molden.input>
 
molecular dipole:
                 x           y           z       tot (Debye)
 q only:        2.886       0.574      -0.418
   full:        2.541       0.331      -1.360       7.373
molecular quadrupole (traceless):
                xx          xy          yy          xz          yz          zz
 q only:       -4.705       6.617      -6.517      -2.389       1.635      11.221
  q+dip:       -7.632       6.217      -5.035      -4.420       6.407      12.667
   full:       -7.469       6.114      -5.029      -4.519       6.959      12.498

SCC energy    :     -50.6213261
rep           :       0.2758947
ES            :       0.3168692
AES           :      -0.0694068
AXC           :      -0.0072651
disp          :      -0.0188186
XB            :       0.0000000
fix           :       0.0000000
total E       :     -50.3451121
atomizationE  :       4.8754163     3059.37
(atE without considering molecular charge,
 total energy contains solvation terms)
H-L gap (eV)  :          6.2020
           ------------------------------------------------- 
          |                 ===============                 |
          |                   A N C O P T                   |
          |                 ===============                 |
          |          Approximate Normal Coordinate          |
          |           Rational Function Optimizer           |
           ------------------------------------------------- 
dumping coords to <xtbopt.coord> and <xtbopt.log>
 optlevel               2
 Maxcycle             520
 Maxmicro              25
 Econv         1.000000000000000E-007
 Gconv         2.000000000000000E-004
 Maxdispl       1.00000000000000     
 Hlow          5.000000000000000E-003
 S6             20.0000000000000     
 Nvar               72

generating ANC from model Hessian ...
 Shifting diagonal of input Hessian by   4.888552550408573E-003
 Lowest  eigenvalues of input Hessian
   -0.000000   -0.000000    0.000000    0.000000    0.000000    0.000000
    0.005000    0.005059    0.005317    0.006040    0.006253    0.007195
    0.008060    0.008223    0.008842    0.009431    0.010781    0.011225
 Highest eigenvalues
    1.582799    1.590117    1.598462    3.143117    3.217312    3.317893
 
cpu  time for ANC gen    0.02 s
wall time for ANC gen    0.02 s
................................................................................
.............................. CYCLE    1 ......................................
................................................................................
   1    -50.6213261 -0.506213E+02  0.751E-05    6.20       0.0  T
   2    -50.6213261 -0.139480E-10  0.566E-05    6.20     346.7  T
   3    -50.6213261 -0.121716E-10  0.264E-05    6.20     742.8  T
speedup  1.03
cpu  time for SCC    0.00 s
wall time for SCC    0.00 s
speedup  0.98
cpu  time for grad    0.01 s
wall time for grad    0.01 s
 E :    -50.34511209  G :  0.235292    pred/act E change:  0.000D+00  0.476D-07
Maxdispl :   0.1184   ||displ|| :   0.3034   Lambda : -0.455D-01
Largest |displ|/coords:  0.1184 (  54)  0.1108 (  55)  0.1002 (  17)
................................................................................
.............................. CYCLE    2 ......................................
................................................................................
   1    -50.6393365 -0.506393E+02  0.345E-01    6.35       0.0  T
   2    -50.6396099 -0.273369E-03  0.259E-01    6.47       1.0  T
   3    -50.6397436 -0.133761E-03  0.801E-02    6.73       1.0  T
   4    -50.6397634 -0.197444E-04  0.206E-02    6.71       1.0  T
   5    -50.6397645 -0.117584E-05  0.590E-03    6.69       3.3  T
   6    -50.6397646 -0.678721E-07  0.321E-03    6.69       6.1  T
speedup  1.11
cpu  time for SCC    0.01 s
wall time for SCC    0.01 s
speedup  1.04
cpu  time for grad    0.01 s
wall time for grad    0.01 s
 E :    -50.38145205  G :  0.146785    pred/act E change:  0.000D+00 -0.363D-01
Maxdispl :   0.1480   ||displ|| :   0.3246   Lambda : -0.234D-01
Largest |displ|/coords:  0.1480 (  17)  0.1281 (  28)  0.0969 (  21)
................................................................................
.............................. CYCLE    3 ......................................
................................................................................
   1    -50.6481631 -0.506482E+02  0.299E-01    6.86       0.0  T
   2    -50.6485503 -0.387135E-03  0.219E-01    7.01       1.0  T
   3    -50.6487264 -0.176079E-03  0.880E-02    7.27       1.0  T
   4    -50.6487388 -0.124911E-04  0.179E-02    7.27       1.1  T
   5    -50.6487395 -0.644603E-06  0.540E-03    7.26       3.6  T
   6    -50.6487396 -0.620290E-07  0.298E-03    7.26       6.6  T
speedup  1.13
cpu  time for SCC    0.01 s
wall time for SCC    0.01 s
speedup  1.06
cpu  time for grad    0.01 s
wall time for grad    0.01 s
 E :    -50.40023512  G :  0.097037    pred/act E change: -0.249D-01 -0.188D-01
Maxdispl :   0.1394   ||displ|| :   0.3281   Lambda : -0.118D-01
Largest |displ|/coords:  0.1394 (  17)  0.0985 (  13)  0.0904 (  28)
................................................................................
.............................. CYCLE    4 ......................................
................................................................................
   1    -50.6535323 -0.506535E+02  0.241E-01    7.41       0.0  T
   2    -50.6539170 -0.384621E-03  0.167E-01    7.56       1.0  T
   3    -50.6540913 -0.174310E-03  0.749E-02    7.79       1.0  T
   4    -50.6540972 -0.593174E-05  0.145E-02    7.82       1.4  T
   5    -50.6540976 -0.410982E-06  0.489E-03    7.81       4.0  T
   6    -50.6540977 -0.541775E-07  0.276E-03    7.81       7.1  T
speedup  0.93
cpu  time for SCC    0.00 s
wall time for SCC    0.01 s
speedup  0.98
cpu  time for grad    0.01 s
wall time for grad    0.01 s
 E :    -50.40977376  G :  0.067364    pred/act E change: -0.129D-01 -0.954D-02
Maxdispl :   0.1122   ||displ|| :   0.3101   Lambda : -0.615D-02
Largest |displ|/coords:  0.1122 (  13)  0.0930 (   3)  0.0921 (   8)
................................................................................
.............................. CYCLE    5 ......................................
................................................................................
   1    -50.6574857 -0.506575E+02  0.217E-01    7.92       0.0  T
   2    -50.6577409 -0.255204E-03  0.151E-01    8.07       1.0  T
   3    -50.6578580 -0.117117E-03  0.623E-02    8.30       1.0  T
   4    -50.6578641 -0.602905E-05  0.125E-02    8.32       1.6  T
   5    -50.6578645 -0.389389E-06  0.408E-03    8.31       4.8  T
   6    -50.6578645 -0.348677E-07  0.229E-03    8.31       8.6  T
speedup  0.94
cpu  time for SCC    0.00 s
wall time for SCC    0.01 s
speedup  0.98
cpu  time for grad    0.01 s
wall time for grad    0.01 s
 E :    -50.41493506  G :  0.048659    pred/act E change: -0.654D-02 -0.516D-02
Maxdispl :   0.2811   ||displ|| :   0.5250   Lambda : -0.945D-02
Largest |displ|/coords:  0.2811 (  10)  0.1634 (  11)  0.1625 (   8)
................................................................................
.............................. CYCLE    6 ......................................
................................................................................
   1    -50.6568853 -0.506569E+02  0.709E-01    8.49       0.0  T
   2    -50.6585265 -0.164124E-02  0.501E-01    8.88       1.0  T
   3    -50.6592117 -0.685184E-03  0.177E-01    9.02       1.0  T
   4    -50.6592862 -0.744727E-04  0.340E-02    9.03       1.0  T
   5    -50.6592901 -0.387222E-05  0.137E-02    9.03       1.4  T
   6    -50.6592907 -0.602275E-06  0.634E-03    9.03       3.1  T
   7    -50.6592907 -0.729670E-07  0.209E-03    9.03       9.4  T
   8    -50.6592908 -0.122324E-07  0.544E-04    9.03      36.0  T
speedup  0.99
cpu  time for SCC    0.01 s
wall time for SCC    0.01 s
speedup  1.00
cpu  time for grad    0.01 s
wall time for grad    0.01 s
 E :    -50.42144658  G :  0.052414    pred/act E change: -0.337D-02 -0.651D-02
Maxdispl :   0.1393   ||displ|| :   0.3207   Lambda : -0.401D-02
Largest |displ|/coords:  0.1393 (   1)  0.1131 (   7)  0.1116 (  11)
................................................................................
.............................. CYCLE    7 ......................................
................................................................................
   1    -50.6697351 -0.506697E+02  0.239E-01    8.93       0.0  T
   2    -50.6698080 -0.728668E-04  0.180E-01    8.92       1.0  T
   3    -50.6698459 -0.378769E-04  0.390E-02    8.90       1.0  T
   4    -50.6698561 -0.102440E-04  0.927E-03    8.91       2.1  T
   5    -50.6698563 -0.160031E-06  0.359E-03    8.91       5.5  T
   6    -50.6698563 -0.180205E-07  0.137E-03    8.91      14.3  T
speedup  0.96
cpu  time for SCC    0.01 s
wall time for SCC    0.01 s
speedup  0.98
cpu  time for grad    0.01 s
wall time for grad    0.01 s
 E :    -50.42307472  G :  0.034695    pred/act E change: -0.603D-02 -0.163D-02
Maxdispl :   0.3188   ||displ|| :   0.5291   Lambda : -0.602D-02
Largest |displ|/coords:  0.3188 (  10)  0.1854 (   8)  0.1417 (  11)
................................................................................
.............................. CYCLE    8 ......................................
................................................................................
   1    -50.6701439 -0.506701E+02  0.674E-01    8.78       0.0  T
   2    -50.6714684 -0.132452E-02  0.469E-01    8.75       1.0  T
   3    -50.6720008 -0.532404E-03  0.161E-01    8.69       1.0  T
   4    -50.6720637 -0.628943E-04  0.294E-02    8.70       1.0  T
   5    -50.6720664 -0.268845E-05  0.130E-02    8.70       1.5  T
   6    -50.6720672 -0.757968E-06  0.639E-03    8.70       3.1  T
   7    -50.6720672 -0.508647E-07  0.151E-03    8.70      13.0  T
   8    -50.6720672 -0.888853E-08  0.441E-04    8.70      44.4  T
speedup  0.99
cpu  time for SCC    0.01 s
wall time for SCC    0.01 s
speedup  0.93
cpu  time for grad    0.01 s
wall time for grad    0.01 s
 E :    -50.42613194  G :  0.057003    pred/act E change: -0.221D-02 -0.306D-02
Maxdispl :   0.2150   ||displ|| :   0.3519   Lambda : -0.613D-02
Largest |displ|/coords:  0.2150 (   7)  0.1226 (  11)  0.1221 (  13)
................................................................................
.............................. CYCLE    9 ......................................
................................................................................
   1    -50.6843421 -0.506843E+02  0.379E-01    8.80       0.0  T
   2    -50.6845427 -0.200606E-03  0.274E-01    8.80       1.0  T
   3    -50.6846437 -0.101036E-03  0.712E-02    8.81       1.0  T
   4    -50.6846617 -0.179418E-04  0.181E-02    8.80       1.1  T
   5    -50.6846624 -0.737318E-06  0.673E-03    8.80       2.9  T
   6    -50.6846624 -0.253085E-07  0.317E-03    8.80       6.2  T
   7    -50.6846625 -0.343772E-07  0.933E-04    8.80      21.0  T
speedup  0.95
cpu  time for SCC    0.01 s
wall time for SCC    0.01 s
speedup  0.98
cpu  time for grad    0.01 s
wall time for grad    0.01 s
 E :    -50.42695692  G :  0.046892    pred/act E change: -0.385D-02 -0.825D-03
Maxdispl :   0.1693   ||displ|| :   0.3260   Lambda : -0.410D-02
Largest |displ|/coords:  0.1693 (   1)  0.1569 (   7)  0.1205 (   6)
................................................................................
.............................. CYCLE   10 ......................................
................................................................................
   1    -50.6840509 -0.506841E+02  0.268E-01    8.77       0.0  T
   2    -50.6841359 -0.850073E-04  0.199E-01    8.75       1.0  T
   3    -50.6841829 -0.470283E-04  0.470E-02    8.72       1.0  T
   4    -50.6841942 -0.112269E-04  0.105E-02    8.72       1.9  T
   5    -50.6841943 -0.155773E-06  0.464E-03    8.72       4.2  T
   6    -50.6841943 -0.305710E-07  0.221E-03    8.72       8.9  T
speedup  0.93
cpu  time for SCC    0.01 s
wall time for SCC    0.01 s
speedup  0.96
cpu  time for grad    0.01 s
wall time for grad    0.01 s
 E :    -50.42978246  G :  0.032230    pred/act E change: -0.344D-02 -0.283D-02
Maxdispl :   0.1803   ||displ|| :   0.4331   Lambda : -0.589D-02
Largest |displ|/coords:  0.1803 (  10)  0.1486 (  11)  0.1082 (   7)
................................................................................
.............................. CYCLE   11 ......................................
................................................................................
   1    -50.6831523 -0.506832E+02  0.497E-01    8.63       0.0  T
   2    -50.6837065 -0.554242E-03  0.349E-01    8.58       1.0  T
   3    -50.6839493 -0.242835E-03  0.111E-01    8.50       1.0  T
   4    -50.6839853 -0.359679E-04  0.214E-02    8.50       1.0  T
   5    -50.6839861 -0.803434E-06  0.964E-03    8.50       2.0  T
   6    -50.6839864 -0.311696E-06  0.472E-03    8.50       4.2  T
   7    -50.6839865 -0.302782E-07  0.108E-03    8.50      18.2  T
speedup  0.97
cpu  time for SCC    0.01 s
wall time for SCC    0.01 s
speedup  0.99
cpu  time for grad    0.01 s
wall time for grad    0.01 s
 E :    -50.43061943  G :  0.064498    pred/act E change: -0.227D-02 -0.837D-03
Maxdispl :   0.1101   ||displ|| :   0.2868   Lambda : -0.811D-02
Largest |displ|/coords:  0.1101 (  11)  0.1101 (  15)  0.1003 (  10)
................................................................................
.............................. CYCLE   12 ......................................
................................................................................
   1    -50.6938690 -0.506939E+02  0.363E-01    8.61       0.0  T
   2    -50.6940738 -0.204873E-03  0.258E-01    8.62       1.0  T
   3    -50.6941747 -0.100884E-03  0.670E-02    8.63       1.0  T
   4    -50.6941894 -0.147231E-04  0.128E-02    8.63       1.5  T
   5    -50.6941898 -0.403463E-06  0.591E-03    8.63       3.3  T
   6    -50.6941899 -0.284932E-07  0.271E-03    8.63       7.2  T
speedup  1.13
cpu  time for SCC    0.01 s
wall time for SCC    0.01 s
speedup  1.06
cpu  time for grad    0.01 s
wall time for grad    0.01 s
 E :    -50.43324961  G :  0.029232    pred/act E change: -0.350D-02 -0.263D-02
Maxdispl :   0.0818   ||displ|| :   0.2144   Lambda : -0.230D-02
Largest |displ|/coords:  0.0818 (  12)  0.0677 (  13)  0.0639 (   8)
................................................................................
.............................. CYCLE   13 ......................................
................................................................................
   1    -50.6959493 -0.506959E+02  0.178E-01    8.62       0.0  T
   2    -50.6960010 -0.517428E-04  0.130E-01    8.60       1.0  T
   3    -50.6960293 -0.282686E-04  0.366E-02    8.56       1.0  T
   4    -50.6960344 -0.514557E-05  0.806E-03    8.56       2.4  T
   5    -50.6960345 -0.897212E-07  0.334E-03    8.56       5.9  T
   6    -50.6960345 -0.121401E-07  0.161E-03    8.56      12.2  T
speedup  0.94
cpu  time for SCC    0.00 s
wall time for SCC    0.01 s
speedup  0.98
cpu  time for grad    0.01 s
wall time for grad    0.01 s
 E :    -50.43505846  G :  0.027379    pred/act E change: -0.439D-02 -0.181D-02
Maxdispl :   0.1435   ||displ|| :   0.4105   Lambda : -0.377D-02
Largest |displ|/coords:  0.1435 (  12)  0.1206 (  13)  0.1119 (  30)
................................................................................
.............................. CYCLE   14 ......................................
................................................................................
   1    -50.7012895 -0.507013E+02  0.296E-01    8.55       0.0  T
   2    -50.7013909 -0.101415E-03  0.217E-01    8.52       1.0  T
   3    -50.7014513 -0.604063E-04  0.543E-02    8.46       1.0  T
   4    -50.7014617 -0.104308E-04  0.148E-02    8.46       1.3  T
   5    -50.7014620 -0.292230E-06  0.526E-03    8.46       3.7  T
   6    -50.7014620 -0.326892E-07  0.278E-03    8.46       7.0  T
speedup  0.94
cpu  time for SCC    0.00 s
wall time for SCC    0.01 s
speedup  0.98
cpu  time for grad    0.01 s
wall time for grad    0.01 s
 E :    -50.43682562  G :  0.028215    pred/act E change: -0.120D-02 -0.177D-02
Maxdispl :   0.0928   ||displ|| :   0.2261   Lambda : -0.174D-02
Largest |displ|/coords:  0.0928 (   1)  0.0702 (   9)  0.0673 (  12)
................................................................................
.............................. CYCLE   15 ......................................
................................................................................
   1    -50.7035285 -0.507035E+02  0.138E-01    8.50       0.0  T
   2    -50.7035524 -0.239079E-04  0.101E-01    8.48       1.0  T
   3    -50.7035644 -0.120482E-04  0.254E-02    8.45       1.0  T
   4    -50.7035670 -0.253745E-05  0.513E-03    8.45       3.8  T
   5    -50.7035670 -0.350774E-07  0.218E-03    8.45       9.0  T
speedup  0.91
cpu  time for SCC    0.00 s
wall time for SCC    0.00 s
speedup  0.98
cpu  time for grad    0.01 s
wall time for grad    0.01 s
 E :    -50.43777136  G :  0.026451    pred/act E change: -0.220D-02 -0.946D-03
Maxdispl :   0.0600   ||displ|| :   0.1520   Lambda : -0.126D-02
Largest |displ|/coords:  0.0600 (  13)  0.0488 (  19)  0.0436 (   8)
................................................................................
.............................. CYCLE   16 ......................................
................................................................................
   1    -50.7045806 -0.507046E+02  0.108E-01    8.51       0.0  T
   2    -50.7046230 -0.423613E-04  0.743E-02    8.51       1.0  T
   3    -50.7046432 -0.201889E-04  0.276E-02    8.51       1.0  T
   4    -50.7046451 -0.190383E-05  0.522E-03    8.51       3.8  T
   5    -50.7046451 -0.520696E-07  0.236E-03    8.51       8.3  T
speedup  0.91
cpu  time for SCC    0.00 s
wall time for SCC    0.00 s
speedup  0.98
cpu  time for grad    0.01 s
wall time for grad    0.01 s
 E :    -50.43821450  G :  0.015486    pred/act E change: -0.915D-03 -0.443D-03
Maxdispl :   0.0753   ||displ|| :   0.1418   Lambda : -0.714D-03
Largest |displ|/coords:  0.0753 (   9)  0.0621 (   7)  0.0319 (   4)
................................................................................
.............................. CYCLE   17 ......................................
................................................................................
   1    -50.7097406 -0.507097E+02  0.104E-01    8.51       0.0  T
   2    -50.7097566 -0.160230E-04  0.773E-02    8.50       1.0  T
   3    -50.7097675 -0.109249E-04  0.211E-02    8.48       1.0  T
   4    -50.7097694 -0.187189E-05  0.476E-03    8.48       4.1  T
   5    -50.7097694 -0.217711E-07  0.198E-03    8.48       9.9  T
   6    -50.7097694 -0.303813E-08  0.562E-04    8.48      34.9  T
speedup  1.13
cpu  time for SCC    0.01 s
wall time for SCC    0.01 s
speedup  0.98
cpu  time for grad    0.01 s
wall time for grad    0.01 s
 E :    -50.43855006  G :  0.012047    pred/act E change: -0.642D-03 -0.336D-03
Maxdispl :   0.0676   ||displ|| :   0.1128   Lambda : -0.440D-03
Largest |displ|/coords:  0.0676 (   6)  0.0309 (   1)  0.0297 (  27)
................................................................................
.............................. CYCLE   18 ......................................
................................................................................
   1    -50.7090859 -0.507091E+02  0.883E-02    8.47       0.0  T
   2    -50.7090917 -0.575206E-05  0.660E-02    8.47       1.0  T
   3    -50.7090948 -0.315865E-05  0.121E-02    8.47       1.6  T
   4    -50.7090957 -0.857084E-06  0.315E-03    8.47       6.2  T
   5    -50.7090957 -0.138848E-07  0.113E-03    8.47      17.4  T
   6    -50.7090957 -0.151950E-08  0.530E-04    8.47      37.0  T
speedup  0.93
cpu  time for SCC    0.00 s
wall time for SCC    0.01 s
speedup  0.97
cpu  time for grad    0.01 s
wall time for grad    0.01 s
 E :    -50.43882724  G :  0.014018    pred/act E change: -0.364D-03 -0.277D-03
Maxdispl :   0.0470   ||displ|| :   0.1382   Lambda : -0.384D-03
Largest |displ|/coords:  0.0470 (  17)  0.0465 (   6)  0.0451 (  16)
................................................................................
.............................. CYCLE   19 ......................................
................................................................................
   1    -50.7071839 -0.507072E+02  0.957E-02    8.44       0.0  T
   2    -50.7072032 -0.193381E-04  0.696E-02    8.44       1.0  T
   3    -50.7072113 -0.809185E-05  0.208E-02    8.44       1.0  T
   4    -50.7072131 -0.178720E-05  0.468E-03    8.44       4.2  T
   5    -50.7072131 -0.270637E-07  0.152E-03    8.44      12.9  T
   6    -50.7072131 -0.277560E-08  0.770E-04    8.44      25.5  T
speedup  0.94
cpu  time for SCC    0.01 s
wall time for SCC    0.01 s
speedup  0.98
cpu  time for grad    0.01 s
wall time for grad    0.01 s
 E :    -50.43912395  G :  0.015243    pred/act E change: -0.223D-03 -0.297D-03
Maxdispl :   0.1315   ||displ|| :   0.3457   Lambda : -0.848D-03
Largest |displ|/coords:  0.1315 (  16)  0.1206 (   6)  0.1155 (   1)
................................................................................
.............................. CYCLE   20 ......................................
................................................................................
   1    -50.7067811 -0.507068E+02  0.230E-01    8.36       0.0  T
   2    -50.7068821 -0.100996E-03  0.169E-01    8.36       1.0  T
   3    -50.7069250 -0.429013E-04  0.490E-02    8.35       1.0  T
   4    -50.7069355 -0.104995E-04  0.114E-02    8.35       1.7  T
   5    -50.7069357 -0.158738E-06  0.389E-03    8.35       5.0  T
   6    -50.7069357 -0.173952E-07  0.190E-03    8.35      10.3  T
   7    -50.7069357 -0.560780E-08  0.637E-04    8.35      30.8  T
speedup  1.13
cpu  time for SCC    0.01 s
wall time for SCC    0.01 s
speedup  0.99
cpu  time for grad    0.01 s
wall time for grad    0.01 s
 E :    -50.43974347  G :  0.020489    pred/act E change: -0.196D-03 -0.620D-03
Maxdispl :   0.2004   ||displ|| :   0.4397   Lambda : -0.114D-02
Largest |displ|/coords:  0.2004 (  16)  0.1741 (   3)  0.1615 (   1)
................................................................................
.............................. CYCLE   21 ......................................
................................................................................
   1    -50.7057166 -0.507057E+02  0.280E-01    8.23       0.0  T
   2    -50.7059046 -0.188002E-03  0.205E-01    8.23       1.0  T
   3    -50.7059915 -0.869157E-04  0.670E-02    8.22       1.0  T
   4    -50.7060080 -0.165253E-04  0.142E-02    8.22       1.4  T
   5    -50.7060083 -0.279728E-06  0.557E-03    8.22       3.5  T
   6    -50.7060083 -0.307608E-07  0.251E-03    8.22       7.8  T
speedup  0.93
cpu  time for SCC    0.01 s
wall time for SCC    0.01 s
speedup  0.98
cpu  time for grad    0.01 s
wall time for grad    0.01 s
 E :    -50.44060901  G :  0.027882    pred/act E change: -0.475D-03 -0.866D-03
Maxdispl :   0.1853   ||displ|| :   0.4022   Lambda : -0.166D-02
Largest |displ|/coords:  0.1853 (  16)  0.1302 (   3)  0.1244 (   1)
................................................................................
.............................. CYCLE   22 ......................................
................................................................................
   1    -50.7118220 -0.507118E+02  0.242E-01    8.09       0.0  T
   2    -50.7119422 -0.120172E-03  0.180E-01    8.08       1.0  T
   3    -50.7120068 -0.646564E-04  0.568E-02    8.07       1.0  T
   4    -50.7120189 -0.121182E-04  0.134E-02    8.07       1.5  T
   5    -50.7120192 -0.275412E-06  0.518E-03    8.07       3.8  T
   6    -50.7120192 -0.212109E-07  0.242E-03    8.07       8.1  T
speedup  1.13
cpu  time for SCC    0.01 s
wall time for SCC    0.01 s
speedup  1.04
cpu  time for grad    0.01 s
wall time for grad    0.01 s
 E :    -50.44164713  G :  0.030493    pred/act E change: -0.679D-03 -0.104D-02
Maxdispl :   0.1613   ||displ|| :   0.2731   Lambda : -0.195D-02
Largest |displ|/coords:  0.1613 (   1)  0.1300 (   8)  0.0558 (   3)
................................................................................
.............................. CYCLE   23 ......................................
................................................................................
   1    -50.7180955 -0.507181E+02  0.143E-01    8.13       0.0  T
   2    -50.7181225 -0.270059E-04  0.105E-01    8.13       1.0  T
   3    -50.7181365 -0.139362E-04  0.324E-02    8.12       1.0  T
   4    -50.7181387 -0.227817E-05  0.903E-03    8.12       2.2  T
   5    -50.7181390 -0.264547E-06  0.294E-03    8.12       6.7  T
   6    -50.7181390 -0.818583E-08  0.158E-03    8.12      12.4  T
speedup  1.13
cpu  time for SCC    0.01 s
wall time for SCC    0.01 s
speedup  0.98
cpu  time for grad    0.01 s
wall time for grad    0.01 s
 E :    -50.44287686  G :  0.021757    pred/act E change: -0.964D-03 -0.123D-02
Maxdispl :   0.1304   ||displ|| :   0.3051   Lambda : -0.196D-02
Largest |displ|/coords:  0.1304 (  12)  0.1257 (   8)  0.0766 (  15)
................................................................................
.............................. CYCLE   24 ......................................
................................................................................
   1    -50.7227973 -0.507228E+02  0.160E-01    8.18       0.0  T
   2    -50.7228330 -0.357043E-04  0.116E-01    8.18       1.0  T
   3    -50.7228507 -0.177283E-04  0.340E-02    8.18       1.0  T
   4    -50.7228533 -0.264682E-05  0.844E-03    8.18       2.3  T
   5    -50.7228535 -0.175766E-06  0.304E-03    8.18       6.5  T
   6    -50.7228535 -0.955711E-08  0.158E-03    8.18      12.4  T
speedup  0.94
cpu  time for SCC    0.01 s
wall time for SCC    0.01 s
speedup  0.98
cpu  time for grad    0.01 s
wall time for grad    0.01 s
 E :    -50.44344260  G :  0.026816    pred/act E change: -0.105D-02 -0.566D-03
Maxdispl :   0.1665   ||displ|| :   0.3104   Lambda : -0.156D-02
Largest |displ|/coords:  0.1665 (   1)  0.0882 (  14)  0.0751 (  22)
................................................................................
.............................. CYCLE   25 ......................................
................................................................................
   1    -50.7199033 -0.507199E+02  0.176E-01    8.18       0.0  T
   2    -50.7199161 -0.127837E-04  0.133E-01    8.19       1.0  T
   3    -50.7199295 -0.133815E-04  0.210E-02    8.19       1.0  T
   4    -50.7199306 -0.116552E-05  0.802E-03    8.18       2.4  T
   5    -50.7199307 -0.795201E-07  0.243E-03    8.18       8.1  T
   6    -50.7199307 -0.777742E-08  0.123E-03    8.18      15.9  T
speedup  0.94
cpu  time for SCC    0.00 s
wall time for SCC    0.01 s
speedup  0.99
cpu  time for grad    0.01 s
wall time for grad    0.01 s
 E :    -50.44408664  G :  0.020253    pred/act E change: -0.107D-02 -0.644D-03
Maxdispl :   0.0883   ||displ|| :   0.2218   Lambda : -0.961D-03
Largest |displ|/coords:  0.0883 (   6)  0.0709 (   2)  0.0668 (   8)

generating ANC from model Hessian ...
 Shifting diagonal of input Hessian by   4.918034914312999E-003
 Lowest  eigenvalues of input Hessian
   -0.000000   -0.000000   -0.000000    0.000000    0.000000    0.000000
    0.005000    0.005252    0.005646    0.006358    0.006751    0.007041
    0.007565    0.008836    0.009153    0.009913    0.012455    0.012802
 Highest eigenvalues
    1.385956    1.388835    1.412804    2.579334    3.538478    3.659250
 
cpu  time for ANC gen    0.02 s
wall time for ANC gen    0.02 s
................................................................................
.............................. CYCLE   26 ......................................
................................................................................
   1    -50.7224044 -0.507224E+02  0.152E-01    8.34       0.0  T
   2    -50.7224204 -0.159260E-04  0.112E-01    8.34       1.0  T
   3    -50.7224325 -0.121137E-04  0.237E-02    8.35       1.0  T
   4    -50.7224342 -0.173918E-05  0.920E-03    8.35       2.1  T
   5    -50.7224343 -0.127891E-06  0.265E-03    8.35       7.4  T
   6    -50.7224344 -0.114305E-07  0.143E-03    8.35      13.7  T
   7    -50.7224344 -0.451161E-08  0.494E-04    8.35      39.7  T
   8    -50.7224344 -0.466066E-09  0.139E-04    8.35     141.3  T
speedup  1.00
cpu  time for SCC    0.01 s
wall time for SCC    0.01 s
speedup  0.97
cpu  time for grad    0.01 s
wall time for grad    0.02 s
 E :    -50.44442325  G :  0.015570    pred/act E change:  0.000D+00 -0.337D-03
Maxdispl :   0.1510   ||displ|| :   0.2395   Lambda : -0.817D-03
Largest |displ|/coords:  0.1510 (   6)  0.1122 (   4)  0.0872 (   3)
................................................................................
.............................. CYCLE   27 ......................................
................................................................................
   1    -50.7210877 -0.507211E+02  0.129E-01    8.33       0.0  T
   2    -50.7210945 -0.677008E-05  0.969E-02    8.33       1.0  T
   3    -50.7210984 -0.390920E-05  0.159E-02    8.33       1.2  T
   4    -50.7210995 -0.105575E-05  0.386E-03    8.33       5.1  T
   5    -50.7210995 -0.409139E-07  0.171E-03    8.33      11.4  T
   6    -50.7210995 -0.228926E-08  0.883E-04    8.33      22.2  T
speedup  0.94
cpu  time for SCC    0.00 s
wall time for SCC    0.01 s
speedup  0.98
cpu  time for grad    0.01 s
wall time for grad    0.01 s
 E :    -50.44483705  G :  0.010383    pred/act E change:  0.000D+00 -0.414D-03
Maxdispl :   0.0785   ||displ|| :   0.1630   Lambda : -0.433D-03
Largest |displ|/coords:  0.0785 (  10)  0.0665 (   7)  0.0478 (  13)
................................................................................
.............................. CYCLE   28 ......................................
................................................................................
   1    -50.7211738 -0.507212E+02  0.998E-02    8.32       0.0  T
   2    -50.7211777 -0.397076E-05  0.750E-02    8.32       1.0  T
   3    -50.7211812 -0.350224E-05  0.114E-02    8.32       1.7  T
   4    -50.7211817 -0.502788E-06  0.331E-03    8.32       5.9  T
   5    -50.7211818 -0.121297E-07  0.144E-03    8.32      13.7  T
   6    -50.7211818 -0.288576E-08  0.565E-04    8.32      34.7  T
speedup  0.91
cpu  time for SCC    0.00 s
wall time for SCC    0.01 s
speedup  0.97
cpu  time for grad    0.01 s
wall time for grad    0.01 s
 E :    -50.44511586  G :  0.005787    pred/act E change: -0.432D-03 -0.279D-03
Maxdispl :   0.0813   ||displ|| :   0.1700   Lambda : -0.227D-03
Largest |displ|/coords:  0.0813 (  10)  0.0616 (   2)  0.0532 (   6)
................................................................................
.............................. CYCLE   29 ......................................
................................................................................
   1    -50.7219683 -0.507220E+02  0.843E-02    8.33       0.0  T
   2    -50.7219708 -0.245417E-05  0.630E-02    8.33       1.0  T
   3    -50.7219725 -0.177375E-05  0.929E-03    8.32       2.1  T
   4    -50.7219729 -0.332093E-06  0.268E-03    8.32       7.3  T
   5    -50.7219729 -0.865342E-08  0.111E-03    8.32      17.7  T
speedup  0.87
cpu  time for SCC    0.00 s
wall time for SCC    0.00 s
speedup  0.97
cpu  time for grad    0.01 s
wall time for grad    0.01 s
 E :    -50.44526683  G :  0.005732    pred/act E change: -0.222D-03 -0.151D-03
Maxdispl :   0.0676   ||displ|| :   0.1598   Lambda : -0.141D-03
Largest |displ|/coords:  0.0676 (   2)  0.0595 (   3)  0.0575 (   7)
................................................................................
.............................. CYCLE   30 ......................................
................................................................................
   1    -50.7227797 -0.507228E+02  0.775E-02    8.34       0.0  T
   2    -50.7227813 -0.162799E-05  0.582E-02    8.34       1.0  T
   3    -50.7227826 -0.132586E-05  0.743E-03    8.33       2.6  T
   4    -50.7227828 -0.210100E-06  0.287E-03    8.34       6.8  T
   5    -50.7227829 -0.988471E-08  0.910E-04    8.34      21.5  T
speedup  1.11
cpu  time for SCC    0.00 s
wall time for SCC    0.00 s
speedup  1.05
cpu  time for grad    0.01 s
wall time for grad    0.01 s
 E :    -50.44536881  G :  0.005355    pred/act E change: -0.117D-03 -0.102D-03
Maxdispl :   0.0925   ||displ|| :   0.1914   Lambda : -0.128D-03
Largest |displ|/coords:  0.0925 (   2)  0.0790 (   3)  0.0583 (   1)
................................................................................
.............................. CYCLE   31 ......................................
................................................................................
   1    -50.7234662 -0.507235E+02  0.907E-02    8.34       0.0  T
   2    -50.7234677 -0.157604E-05  0.679E-02    8.34       1.0  T
   3    -50.7234692 -0.147073E-05  0.756E-03    8.34       2.6  T
   4    -50.7234694 -0.160360E-06  0.312E-03    8.34       6.3  T
   5    -50.7234694 -0.103188E-07  0.920E-04    8.34      21.3  T
   6    -50.7234694 -0.104482E-08  0.539E-04    8.34      36.4  T
speedup  1.11
cpu  time for SCC    0.01 s
wall time for SCC    0.01 s
speedup  1.05
cpu  time for grad    0.01 s
wall time for grad    0.01 s
 E :    -50.44545891  G :  0.003966    pred/act E change: -0.723D-04 -0.901D-04
Maxdispl :   0.1066   ||displ|| :   0.2272   Lambda : -0.114D-03
Largest |displ|/coords:  0.1066 (   2)  0.1014 (   3)  0.0661 (   7)
................................................................................
.............................. CYCLE   32 ......................................
................................................................................
   1    -50.7234550 -0.507235E+02  0.112E-01    8.34       0.0  T
   2    -50.7234576 -0.256390E-05  0.838E-02    8.35       1.0  T
   3    -50.7234599 -0.232764E-05  0.101E-02    8.35       1.9  T
   4    -50.7234602 -0.269061E-06  0.347E-03    8.35       5.6  T
   5    -50.7234602 -0.144289E-07  0.120E-03    8.35      16.4  T
   6    -50.7234602 -0.175496E-08  0.661E-04    8.35      29.7  T
   7    -50.7234602 -0.865590E-09  0.172E-04    8.35     114.3  T
speedup  1.13
cpu  time for SCC    0.01 s
wall time for SCC    0.01 s
speedup  1.03
cpu  time for grad    0.01 s
wall time for grad    0.01 s
 E :    -50.44553521  G :  0.003727    pred/act E change: -0.661D-04 -0.763D-04
Maxdispl :   0.1038   ||displ|| :   0.2070   Lambda : -0.103D-03
Largest |displ|/coords:  0.1038 (   3)  0.0976 (   2)  0.0713 (   8)
................................................................................
.............................. CYCLE   33 ......................................
................................................................................
   1    -50.7237651 -0.507238E+02  0.928E-02    8.35       0.0  T
   2    -50.7237676 -0.248383E-05  0.689E-02    8.35       1.0  T
   3    -50.7237695 -0.187216E-05  0.989E-03    8.35       2.0  T
   4    -50.7237697 -0.285553E-06  0.300E-03    8.35       6.5  T
   5    -50.7237698 -0.128399E-07  0.110E-03    8.35      17.8  T
   6    -50.7237698 -0.157140E-08  0.598E-04    8.35      32.8  T
   7    -50.7237698 -0.843393E-09  0.164E-04    8.35     119.9  T
speedup  0.98
cpu  time for SCC    0.01 s
wall time for SCC    0.01 s
speedup  0.97
cpu  time for grad    0.01 s
wall time for grad    0.01 s
 E :    -50.44560324  G :  0.004007    pred/act E change: -0.598D-04 -0.680D-04
Maxdispl :   0.1159   ||displ|| :   0.2080   Lambda : -0.869D-04
Largest |displ|/coords:  0.1159 (   3)  0.0801 (   8)  0.0772 (   2)
................................................................................
.............................. CYCLE   34 ......................................
................................................................................
   1    -50.7230717 -0.507231E+02  0.102E-01    8.34       0.0  T
   2    -50.7230743 -0.252440E-05  0.764E-02    8.34       1.0  T
   3    -50.7230763 -0.202993E-05  0.103E-02    8.34       1.9  T
   4    -50.7230766 -0.295682E-06  0.284E-03    8.34       6.9  T
   5    -50.7230766 -0.118843E-07  0.115E-03    8.34      17.1  T
speedup  0.89
cpu  time for SCC    0.00 s
wall time for SCC    0.00 s
speedup  1.03
cpu  time for grad    0.01 s
wall time for grad    0.01 s
 E :    -50.44565790  G :  0.005259    pred/act E change: -0.538D-04 -0.547D-04
Maxdispl :   0.1207   ||displ|| :   0.2126   Lambda : -0.119D-03
Largest |displ|/coords:  0.1207 (   8)  0.0938 (   3)  0.0719 (   4)
................................................................................
.............................. CYCLE   35 ......................................
................................................................................
   1    -50.7236795 -0.507237E+02  0.984E-02    8.34       0.0  T
   2    -50.7236834 -0.388499E-05  0.732E-02    8.34       1.0  T
   3    -50.7236863 -0.286541E-05  0.128E-02    8.33       1.5  T
   4    -50.7236868 -0.499051E-06  0.307E-03    8.33       6.4  T
   5    -50.7236868 -0.192789E-07  0.143E-03    8.33      13.7  T
   6    -50.7236868 -0.252162E-08  0.728E-04    8.33      26.9  T
speedup  0.94
cpu  time for SCC    0.00 s
wall time for SCC    0.01 s
speedup  0.98
cpu  time for grad    0.01 s
wall time for grad    0.01 s
 E :    -50.44570186  G :  0.006245    pred/act E change: -0.453D-04 -0.440D-04
Maxdispl :   0.0737   ||displ|| :   0.1074   Lambda : -0.712D-04
Largest |displ|/coords:  0.0737 (   3)  0.0429 (   2)  0.0341 (   8)
................................................................................
.............................. CYCLE   36 ......................................
................................................................................
   1    -50.7227418 -0.507227E+02  0.516E-02    8.33       0.0  T
   2    -50.7227425 -0.687973E-06  0.383E-02    8.33       1.0  T
   3    -50.7227429 -0.456471E-06  0.615E-03    8.33       3.2  T
   4    -50.7227430 -0.969181E-07  0.185E-03    8.33      10.6  T
   5    -50.7227430 -0.409472E-08  0.530E-04    8.33      37.0  T
speedup  0.89
cpu  time for SCC    0.00 s
wall time for SCC    0.00 s
speedup  0.98
cpu  time for grad    0.01 s
wall time for grad    0.01 s
 E :    -50.44575574  G :  0.003778    pred/act E change: -0.623D-04 -0.539D-04
Maxdispl :   0.1254   ||displ|| :   0.1845   Lambda : -0.973D-04
Largest |displ|/coords:  0.1254 (   3)  0.0630 (   8)  0.0608 (   2)
................................................................................
.............................. CYCLE   37 ......................................
................................................................................
   1    -50.7218608 -0.507219E+02  0.884E-02    8.34       0.0  T
   2    -50.7218628 -0.197778E-05  0.657E-02    8.34       1.0  T
   3    -50.7218642 -0.134152E-05  0.111E-02    8.33       1.8  T
   4    -50.7218644 -0.276755E-06  0.308E-03    8.33       6.4  T
   5    -50.7218644 -0.124631E-07  0.866E-04    8.33      22.6  T
   6    -50.7218644 -0.842689E-09  0.509E-04    8.33      38.5  T
speedup  0.93
cpu  time for SCC    0.00 s
wall time for SCC    0.01 s
speedup  1.01
cpu  time for grad    0.01 s
wall time for grad    0.01 s
 E :    -50.44582153  G :  0.004173    pred/act E change: -0.360D-04 -0.658D-04
Maxdispl :   0.1102   ||displ|| :   0.1663   Lambda : -0.596D-04
Largest |displ|/coords:  0.1102 (   3)  0.0698 (   8)  0.0469 (   2)
................................................................................
.............................. CYCLE   38 ......................................
................................................................................
   1    -50.7218328 -0.507218E+02  0.773E-02    8.34       0.0  T
   2    -50.7218343 -0.152016E-05  0.576E-02    8.34       1.0  T
   3    -50.7218355 -0.123691E-05  0.933E-03    8.34       2.1  T
   4    -50.7218357 -0.191749E-06  0.273E-03    8.34       7.2  T
   5    -50.7218357 -0.106083E-07  0.802E-04    8.34      24.4  T
speedup  0.89
cpu  time for SCC    0.00 s
wall time for SCC    0.00 s
speedup  0.98
cpu  time for grad    0.01 s
wall time for grad    0.01 s
 E :    -50.44586484  G :  0.004553    pred/act E change: -0.503D-04 -0.433D-04
Maxdispl :   0.1457   ||displ|| :   0.2270   Lambda : -0.652D-04
Largest |displ|/coords:  0.1457 (   3)  0.0959 (   8)  0.0576 (   2)
................................................................................
.............................. CYCLE   39 ......................................
................................................................................
   1    -50.7216760 -0.507217E+02  0.106E-01    8.34       0.0  T
   2    -50.7216784 -0.240310E-05  0.792E-02    8.34       1.0  T
   3    -50.7216808 -0.233844E-05  0.118E-02    8.34       1.7  T
   4    -50.7216810 -0.245369E-06  0.351E-03    8.34       5.6  T
   5    -50.7216810 -0.185572E-07  0.113E-03    8.34      17.4  T
   6    -50.7216810 -0.168510E-08  0.669E-04    8.34      29.3  T
speedup  0.94
cpu  time for SCC    0.00 s
wall time for SCC    0.01 s
speedup  0.98
cpu  time for grad    0.01 s
wall time for grad    0.01 s
 E :    -50.44591206  G :  0.005001    pred/act E change: -0.306D-04 -0.472D-04
Maxdispl :   0.1118   ||displ|| :   0.1713   Lambda : -0.812D-04
Largest |displ|/coords:  0.1118 (   3)  0.0713 (   8)  0.0410 (  20)
................................................................................
.............................. CYCLE   40 ......................................
................................................................................
   1    -50.7240897 -0.507241E+02  0.866E-02    8.36       0.0  T
   2    -50.7240919 -0.214641E-05  0.649E-02    8.36       1.0  T
   3    -50.7240939 -0.203598E-05  0.995E-03    8.35       2.0  T
   4    -50.7240942 -0.227787E-06  0.251E-03    8.36       7.8  T
   5    -50.7240942 -0.101727E-07  0.939E-04    8.36      20.9  T
speedup  1.11
cpu  time for SCC    0.00 s
wall time for SCC    0.00 s
speedup  1.05
cpu  time for grad    0.01 s
wall time for grad    0.01 s
 E :    -50.44595194  G :  0.004250    pred/act E change: -0.343D-04 -0.399D-04
Maxdispl :   0.2107   ||displ|| :   0.3503   Lambda : -0.924D-04
Largest |displ|/coords:  0.2107 (   3)  0.1447 (   8)  0.1067 (   2)
................................................................................
.............................. CYCLE   41 ......................................
................................................................................
   1    -50.7214158 -0.507214E+02  0.173E-01    8.31       0.0  T
   2    -50.7214222 -0.642646E-05  0.128E-01    8.31       1.0  T
   3    -50.7214282 -0.593316E-05  0.187E-02    8.32       1.0  T
   4    -50.7214288 -0.643220E-06  0.567E-03    8.31       3.5  T
   5    -50.7214289 -0.441796E-07  0.201E-03    8.31       9.7  T
   6    -50.7214289 -0.651026E-08  0.111E-03    8.31      17.6  T
speedup  1.11
cpu  time for SCC    0.01 s
wall time for SCC    0.01 s
speedup  1.04
cpu  time for grad    0.01 s
wall time for grad    0.01 s
 E :    -50.44596866  G :  0.007996    pred/act E change: -0.418D-04 -0.167D-04
Maxdispl :   0.0845   ||displ|| :   0.1406   Lambda : -0.810D-04
Largest |displ|/coords:  0.0845 (   3)  0.0666 (   8)  0.0544 (   2)
................................................................................
.............................. CYCLE   42 ......................................
................................................................................
   1    -50.7234801 -0.507235E+02  0.629E-02    8.34       0.0  T
   2    -50.7234815 -0.143398E-05  0.465E-02    8.34       1.0  T
   3    -50.7234826 -0.109234E-05  0.811E-03    8.33       2.4  T
   4    -50.7234828 -0.176188E-06  0.270E-03    8.33       7.3  T
   5    -50.7234828 -0.107856E-07  0.884E-04    8.33      22.2  T
speedup  1.14
cpu  time for SCC    0.00 s
wall time for SCC    0.00 s
speedup  0.98
cpu  time for grad    0.01 s
wall time for grad    0.01 s
 E :    -50.44600982  G :  0.002528    pred/act E change: -0.519D-04 -0.412D-04
Maxdispl :   0.0432   ||displ|| :   0.0687   Lambda : -0.265D-04
Largest |displ|/coords:  0.0432 (   3)  0.0220 (  37)  0.0217 (   8)
................................................................................
.............................. CYCLE   43 ......................................
................................................................................
   1    -50.7238302 -0.507238E+02  0.427E-02    8.34       0.0  T
   2    -50.7238306 -0.463813E-06  0.320E-02    8.34       1.0  T
   3    -50.7238310 -0.368226E-06  0.501E-03    8.33       3.9  T
   4    -50.7238311 -0.612400E-07  0.177E-03    8.33      11.1  T
   5    -50.7238311 -0.271509E-08  0.410E-04    8.33      47.8  T
   6    -50.7238311 -0.231658E-09  0.252E-04    8.33      77.9  T
speedup  0.93
cpu  time for SCC    0.00 s
wall time for SCC    0.01 s
speedup  1.01
cpu  time for grad    0.01 s
wall time for grad    0.01 s
 E :    -50.44603090  G :  0.002902    pred/act E change: -0.413D-04 -0.211D-04
Maxdispl :   0.0989   ||displ|| :   0.1998   Lambda : -0.875D-04
Largest |displ|/coords:  0.0989 (   3)  0.0763 (  37)  0.0681 (  10)
................................................................................
.............................. CYCLE   44 ......................................
................................................................................
   1    -50.7243414 -0.507243E+02  0.149E-01    8.35       0.0  T
   2    -50.7243465 -0.507394E-05  0.112E-01    8.34       1.0  T
   3    -50.7243507 -0.424802E-05  0.159E-02    8.34       1.2  T
   4    -50.7243513 -0.593278E-06  0.641E-03    8.34       3.1  T
   5    -50.7243514 -0.285256E-07  0.136E-03    8.34      14.4  T
   6    -50.7243514 -0.190622E-08  0.835E-04    8.34      23.5  T
   7    -50.7243514 -0.101493E-08  0.234E-04    8.34      83.7  T
speedup  0.97
cpu  time for SCC    0.01 s
wall time for SCC    0.01 s
speedup  0.96
cpu  time for grad    0.01 s
wall time for grad    0.01 s
 E :    -50.44608226  G :  0.005587    pred/act E change: -0.133D-04 -0.514D-04
Maxdispl :   0.0497   ||displ|| :   0.1060   Lambda : -0.446D-04
Largest |displ|/coords:  0.0497 (   3)  0.0429 (   8)  0.0411 (  37)
................................................................................
.............................. CYCLE   45 ......................................
................................................................................
   1    -50.7238169 -0.507238E+02  0.738E-02    8.32       0.0  T
   2    -50.7238183 -0.137309E-05  0.551E-02    8.32       1.0  T
   3    -50.7238193 -0.104485E-05  0.859E-03    8.32       2.3  T
   4    -50.7238195 -0.175703E-06  0.334E-03    8.32       5.9  T
   5    -50.7238195 -0.843118E-08  0.695E-04    8.32      28.2  T
   6    -50.7238195 -0.589452E-09  0.434E-04    8.32      45.2  T
speedup  0.93
cpu  time for SCC    0.00 s
wall time for SCC    0.01 s
speedup  0.98
cpu  time for grad    0.01 s
wall time for grad    0.01 s
 E :    -50.44611654  G :  0.006407    pred/act E change: -0.455D-04 -0.343D-04
Maxdispl :   0.0701   ||displ|| :   0.1377   Lambda : -0.146D-03
Largest |displ|/coords:  0.0701 (  37)  0.0416 (   1)  0.0399 (  11)
................................................................................
.............................. CYCLE   46 ......................................
................................................................................
   1    -50.7241319 -0.507241E+02  0.132E-01    8.30       0.0  T
   2    -50.7241378 -0.586871E-05  0.979E-02    8.29       1.0  T
   3    -50.7241409 -0.307522E-05  0.173E-02    8.28       1.1  T
   4    -50.7241417 -0.847793E-06  0.676E-03    8.28       2.9  T
   5    -50.7241418 -0.345120E-07  0.121E-03    8.29      16.2  T
   6    -50.7241418 -0.137739E-08  0.704E-04    8.28      27.9  T
speedup  1.13
cpu  time for SCC    0.01 s
wall time for SCC    0.01 s
speedup  1.07
cpu  time for grad    0.01 s
wall time for grad    0.01 s
 E :    -50.44619372  G :  0.005831    pred/act E change: -0.225D-04 -0.772D-04
Maxdispl :   0.1187   ||displ|| :   0.2413   Lambda : -0.114D-03
Largest |displ|/coords:  0.1187 (  37)  0.1029 (   8)  0.0689 (   3)
................................................................................
.............................. CYCLE   47 ......................................
................................................................................
   1    -50.7213294 -0.507213E+02  0.201E-01    8.25       0.0  T
   2    -50.7213399 -0.104714E-04  0.151E-01    8.25       1.0  T
   3    -50.7213479 -0.796329E-05  0.224E-02    8.24       1.0  T
   4    -50.7213493 -0.139019E-05  0.950E-03    8.24       2.1  T
   5    -50.7213493 -0.759209E-07  0.199E-03    8.24       9.9  T
   6    -50.7213493 -0.335579E-08  0.130E-03    8.24      15.0  T
speedup  0.94
cpu  time for SCC    0.00 s
wall time for SCC    0.01 s
speedup  0.98
cpu  time for grad    0.01 s
wall time for grad    0.01 s
 E :    -50.44613603  G :  0.017981    pred/act E change: -0.744D-04  0.577D-04
Maxdispl :   0.0747   ||displ|| :   0.1607   Lambda : -0.344D-03
Largest |displ|/coords:  0.0747 (   3)  0.0647 (  37)  0.0600 (   8)
................................................................................
.............................. CYCLE   48 ......................................
................................................................................
   1    -50.7239716 -0.507240E+02  0.123E-01    8.25       0.0  T
   2    -50.7239774 -0.577315E-05  0.919E-02    8.26       1.0  T
   3    -50.7239816 -0.427952E-05  0.155E-02    8.27       1.3  T
   4    -50.7239824 -0.737094E-06  0.675E-03    8.27       2.9  T
   5    -50.7239824 -0.560592E-07  0.159E-03    8.27      12.3  T
   6    -50.7239824 -0.282423E-08  0.999E-04    8.27      19.6  T
speedup  0.91
cpu  time for SCC    0.00 s
wall time for SCC    0.01 s
speedup  0.98
cpu  time for grad    0.01 s
wall time for grad    0.01 s
 E :    -50.44628602  G :  0.004117    pred/act E change: -0.602D-04 -0.150D-03
Maxdispl :   0.0346   ||displ|| :   0.0698   Lambda : -0.657D-04
Largest |displ|/coords:  0.0346 (   3)  0.0305 (  37)  0.0169 (  69)
................................................................................
.............................. CYCLE   49 ......................................
................................................................................
   1    -50.7242479 -0.507242E+02  0.594E-02    8.26       0.0  T
   2    -50.7242487 -0.843864E-06  0.442E-02    8.27       1.0  T
   3    -50.7242491 -0.413914E-06  0.675E-03    8.27       2.9  T
   4    -50.7242493 -0.136283E-06  0.290E-03    8.27       6.8  T
   5    -50.7242493 -0.522562E-08  0.366E-04    8.27      53.6  T
speedup  0.89
cpu  time for SCC    0.00 s
wall time for SCC    0.00 s
speedup  0.97
cpu  time for grad    0.01 s
wall time for grad    0.01 s
 E :    -50.44634551  G :  0.003281    pred/act E change: -0.176D-03 -0.595D-04
Maxdispl :   0.2370   ||displ|| :   0.4682   Lambda : -0.400D-03
Largest |displ|/coords:  0.2370 (  37)  0.2023 (   3)  0.1289 (  17)
................................................................................
.............................. CYCLE   50 ......................................
................................................................................
   1    -50.7198292 -0.507198E+02  0.426E-01    8.23       0.0  T
   2    -50.7198742 -0.449523E-04  0.319E-01    8.23       1.0  T
   3    -50.7198929 -0.187381E-04  0.477E-02    8.23       1.0  T
   4    -50.7199012 -0.829482E-05  0.176E-02    8.23       1.1  T
   5    -50.7199015 -0.276709E-06  0.320E-03    8.23       6.1  T
   6    -50.7199015 -0.752439E-08  0.190E-03    8.23      10.3  T
   7    -50.7199015 -0.342002E-08  0.532E-04    8.23      36.9  T
   8    -50.7199015 -0.761666E-09  0.128E-04    8.23     153.1  T
speedup  1.00
cpu  time for SCC    0.01 s
wall time for SCC    0.01 s
speedup  1.04
cpu  time for grad    0.02 s
wall time for grad    0.02 s
 E :    -50.44600373  G :  0.032597    pred/act E change: -0.330D-04  0.342D-03
Maxdispl :   0.1616   ||displ|| :   0.2674   Lambda : -0.170D-02
Largest |displ|/coords:  0.1616 (  37)  0.0805 (  69)  0.0704 (  26)
................................................................................
.............................. CYCLE   51 ......................................
................................................................................
   1    -50.7249975 -0.507250E+02  0.278E-01    8.27       0.0  T
   2    -50.7250281 -0.306226E-04  0.208E-01    8.27       1.0  T
   3    -50.7250421 -0.140246E-04  0.373E-02    8.28       1.0  T
   4    -50.7250471 -0.501170E-05  0.147E-02    8.28       1.3  T
   5    -50.7250474 -0.291331E-06  0.337E-03    8.28       5.8  T
   6    -50.7250475 -0.115553E-07  0.204E-03    8.28       9.6  T
speedup  1.11
cpu  time for SCC    0.01 s
wall time for SCC    0.01 s
speedup  0.98
cpu  time for grad    0.01 s
wall time for grad    0.01 s
 E :    -50.44648612  G :  0.004312    pred/act E change: -0.244D-03 -0.482D-03
Maxdispl :   0.0288   ||displ|| :   0.0687   Lambda : -0.634D-04
Largest |displ|/coords:  0.0288 (   3)  0.0284 (  37)  0.0241 (   1)
................................................................................
.............................. CYCLE   52 ......................................
................................................................................
   1    -50.7247569 -0.507248E+02  0.572E-02    8.28       0.0  T
   2    -50.7247578 -0.846490E-06  0.429E-02    8.28       1.0  T
   3    -50.7247581 -0.304603E-06  0.664E-03    8.28       3.0  T
   4    -50.7247583 -0.163282E-06  0.232E-03    8.28       8.5  T
   5    -50.7247583 -0.473178E-08  0.368E-04    8.28      53.3  T
speedup  0.91
cpu  time for SCC    0.00 s
wall time for SCC    0.00 s
speedup  0.98
cpu  time for grad    0.01 s
wall time for grad    0.01 s
 E :    -50.44654342  G :  0.002403    pred/act E change: -0.911D-03 -0.573D-04
Maxdispl :   0.1748   ||displ|| :   0.4086   Lambda : -0.301D-03
Largest |displ|/coords:  0.1748 (  37)  0.1707 (   3)  0.1370 (   1)

generating ANC from model Hessian ...
 Shifting diagonal of input Hessian by   4.950149172577862E-003
 Lowest  eigenvalues of input Hessian
   -0.000000   -0.000000   -0.000000   -0.000000    0.000000    0.000000
    0.005000    0.005188    0.005598    0.005980    0.006438    0.007136
    0.007309    0.008563    0.008739    0.009340    0.011132    0.011965
 Highest eigenvalues
    1.366671    1.376546    1.399582    2.600500    3.452258    3.630664
 
cpu  time for ANC gen    0.02 s
wall time for ANC gen    0.02 s
................................................................................
.............................. CYCLE   53 ......................................
................................................................................
   1    -50.7193576 -0.507194E+02  0.343E-01    8.24       0.0  T
   2    -50.7193917 -0.340711E-04  0.258E-01    8.25       1.0  T
   3    -50.7194020 -0.103002E-04  0.423E-02    8.26       1.0  T
   4    -50.7194088 -0.673814E-05  0.125E-02    8.25       1.6  T
   5    -50.7194089 -0.192251E-06  0.275E-03    8.25       7.1  T
   6    -50.7194090 -0.574431E-08  0.149E-03    8.25      13.2  T
   7    -50.7194090 -0.227934E-08  0.497E-04    8.25      39.4  T
   8    -50.7194090 -0.508209E-09  0.862E-05    8.25     227.5  T
speedup  1.00
cpu  time for SCC    0.01 s
wall time for SCC    0.01 s
speedup  1.03
cpu  time for grad    0.02 s
wall time for grad    0.02 s
 E :    -50.44625615  G :  0.029763    pred/act E change:  0.000D+00  0.287D-03
Maxdispl :   0.0263   ||displ|| :   0.0604   Lambda : -0.791D-03
Largest |displ|/coords:  0.0263 (  12)  0.0219 (   2)  0.0209 (  63)
................................................................................
.............................. CYCLE   54 ......................................
................................................................................
   1    -50.7231378 -0.507231E+02  0.561E-02    8.26       0.0  T
   2    -50.7231434 -0.561722E-05  0.397E-02    8.26       1.0  T
   3    -50.7231459 -0.247166E-05  0.163E-02    8.27       1.2  T
   4    -50.7231464 -0.466867E-06  0.473E-03    8.27       4.1  T
   5    -50.7231464 -0.446211E-07  0.150E-03    8.27      13.1  T
speedup  1.14
cpu  time for SCC    0.00 s
wall time for SCC    0.00 s
speedup  0.98
cpu  time for grad    0.01 s
wall time for grad    0.01 s
 E :    -50.44677749  G :  0.008794    pred/act E change:  0.000D+00 -0.521D-03
Maxdispl :   0.0285   ||displ|| :   0.0682   Lambda : -0.154D-03
Largest |displ|/coords:  0.0285 (   2)  0.0221 (   9)  0.0221 (  14)
................................................................................
.............................. CYCLE   55 ......................................
................................................................................
   1    -50.7249496 -0.507249E+02  0.566E-02    8.26       0.0  T
   2    -50.7249514 -0.180336E-05  0.417E-02    8.26       1.0  T
   3    -50.7249523 -0.959877E-06  0.870E-03    8.26       2.3  T
   4    -50.7249526 -0.241182E-06  0.330E-03    8.26       5.9  T
   5    -50.7249526 -0.142879E-07  0.878E-04    8.26      22.3  T
   6    -50.7249526 -0.980364E-09  0.478E-04    8.26      41.0  T
speedup  0.94
cpu  time for SCC    0.00 s
wall time for SCC    0.01 s
speedup  0.98
cpu  time for grad    0.01 s
wall time for grad    0.01 s
 E :    -50.44685145  G :  0.003177    pred/act E change: -0.397D-03 -0.740D-04
Maxdispl :   0.0297   ||displ|| :   0.0606   Lambda : -0.425D-04
Largest |displ|/coords:  0.0297 (   2)  0.0266 (   7)  0.0221 (   1)
................................................................................
.............................. CYCLE   56 ......................................
................................................................................
   1    -50.7251162 -0.507251E+02  0.432E-02    8.27       0.0  T
   2    -50.7251165 -0.260342E-06  0.322E-02    8.27       1.0  T
   3    -50.7251168 -0.297977E-06  0.368E-03    8.27       5.3  T
   4    -50.7251168 -0.114065E-07  0.878E-04    8.27      22.3  T
   5    -50.7251168 -0.118515E-08  0.393E-04    8.27      49.9  T
speedup  0.89
cpu  time for SCC    0.00 s
wall time for SCC    0.00 s
speedup  1.01
cpu  time for grad    0.01 s
wall time for grad    0.01 s
 E :    -50.44688033  G :  0.003550    pred/act E change: -0.774D-04 -0.289D-04
Maxdispl :   0.0671   ||displ|| :   0.1187   Lambda : -0.707D-04
Largest |displ|/coords:  0.0671 (   2)  0.0425 (   7)  0.0393 (   9)
................................................................................
.............................. CYCLE   57 ......................................
................................................................................
   1    -50.7248570 -0.507249E+02  0.885E-02    8.28       0.0  T
   2    -50.7248583 -0.126622E-05  0.652E-02    8.28       1.0  T
   3    -50.7248594 -0.115531E-05  0.907E-03    8.29       2.2  T
   4    -50.7248595 -0.838422E-07  0.298E-03    8.29       6.6  T
   5    -50.7248595 -0.834933E-08  0.750E-04    8.29      26.1  T
   6    -50.7248595 -0.401315E-09  0.468E-04    8.29      41.9  T
speedup  1.11
cpu  time for SCC    0.01 s
wall time for SCC    0.01 s
speedup  1.01
cpu  time for grad    0.01 s
wall time for grad    0.01 s
 E :    -50.44693662  G :  0.002184    pred/act E change: -0.213D-04 -0.563D-04
Maxdispl :   0.1390   ||displ|| :   0.2538   Lambda : -0.121D-03
Largest |displ|/coords:  0.1390 (   2)  0.1142 (   7)  0.0824 (   9)
................................................................................
.............................. CYCLE   58 ......................................
................................................................................
   1    -50.7236294 -0.507236E+02  0.192E-01    8.28       0.0  T
   2    -50.7236358 -0.648566E-05  0.142E-01    8.28       1.0  T
   3    -50.7236411 -0.528152E-05  0.209E-02    8.29       1.0  T
   4    -50.7236417 -0.565199E-06  0.744E-03    8.29       2.6  T
   5    -50.7236417 -0.438999E-07  0.164E-03    8.29      12.0  T
   6    -50.7236417 -0.208685E-08  0.101E-03    8.29      19.5  T
   7    -50.7236417 -0.923301E-09  0.188E-04    8.29     104.1  T
   8    -50.7236417 -0.146208E-09  0.748E-05    8.29     262.2  T
speedup  1.01
cpu  time for SCC    0.01 s
wall time for SCC    0.01 s
speedup  0.98
cpu  time for grad    0.01 s
wall time for grad    0.02 s
 E :    -50.44699085  G :  0.007232    pred/act E change: -0.358D-04 -0.542D-04
Maxdispl :   0.0134   ||displ|| :   0.0349   Lambda : -0.538D-04
Largest |displ|/coords:  0.0134 (   5)  0.0123 (  14)  0.0117 (   1)
................................................................................
.............................. CYCLE   59 ......................................
................................................................................
   1    -50.7245565 -0.507246E+02  0.217E-02    8.29       0.0  T
   2    -50.7245567 -0.174553E-06  0.161E-02    8.29       1.2  T
   3    -50.7245568 -0.886892E-07  0.280E-03    8.29       7.0  T
   4    -50.7245568 -0.249451E-07  0.794E-04    8.29      24.7  T
speedup  1.14
cpu  time for SCC    0.00 s
wall time for SCC    0.00 s
speedup  1.05
cpu  time for grad    0.01 s
wall time for grad    0.01 s
 E :    -50.44702979  G :  0.004423    pred/act E change: -0.643D-04 -0.389D-04
Maxdispl :   0.0660   ||displ|| :   0.1120   Lambda : -0.740D-04
Largest |displ|/coords:  0.0660 (   2)  0.0427 (   7)  0.0263 (   9)
................................................................................
.............................. CYCLE   60 ......................................
................................................................................
   1    -50.7253650 -0.507254E+02  0.836E-02    8.28       0.0  T
   2    -50.7253664 -0.139412E-05  0.625E-02    8.28       1.0  T
   3    -50.7253672 -0.761681E-06  0.917E-03    8.28       2.1  T
   4    -50.7253674 -0.224632E-06  0.295E-03    8.28       6.7  T
   5    -50.7253674 -0.738962E-08  0.506E-04    8.28      38.7  T
speedup  1.09
cpu  time for SCC    0.00 s
wall time for SCC    0.00 s
speedup  1.04
cpu  time for grad    0.01 s
wall time for grad    0.01 s
 E :    -50.44708799  G :  0.003030    pred/act E change: -0.269D-04 -0.582D-04
Maxdispl :   0.1669   ||displ|| :   0.2860   Lambda : -0.128D-03
Largest |displ|/coords:  0.1669 (   2)  0.1080 (   7)  0.0689 (  28)
................................................................................
.............................. CYCLE   61 ......................................
................................................................................
   1    -50.7241045 -0.507241E+02  0.222E-01    8.24       0.0  T
   2    -50.7241150 -0.104131E-04  0.166E-01    8.25       1.0  T
   3    -50.7241213 -0.634046E-05  0.253E-02    8.25       1.0  T
   4    -50.7241229 -0.156147E-05  0.860E-03    8.25       2.3  T
   5    -50.7241229 -0.593422E-07  0.169E-03    8.25      11.6  T
   6    -50.7241229 -0.217845E-08  0.103E-03    8.25      19.1  T
   7    -50.7241229 -0.127320E-08  0.209E-04    8.25      93.7  T
   8    -50.7241229 -0.160263E-09  0.836E-05    8.25     234.6  T
speedup  1.00
cpu  time for SCC    0.01 s
wall time for SCC    0.01 s
speedup  1.04
cpu  time for grad    0.02 s
wall time for grad    0.02 s
 E :    -50.44715955  G :  0.008658    pred/act E change: -0.375D-04 -0.716D-04
Maxdispl :   0.0614   ||displ|| :   0.1318   Lambda : -0.152D-03
Largest |displ|/coords:  0.0614 (   3)  0.0496 (   1)  0.0435 (   2)
................................................................................
.............................. CYCLE   62 ......................................
................................................................................
   1    -50.7250266 -0.507250E+02  0.849E-02    8.23       0.0  T
   2    -50.7250285 -0.182205E-05  0.635E-02    8.23       1.0  T
   3    -50.7250296 -0.117711E-05  0.103E-02    8.23       1.9  T
   4    -50.7250299 -0.282737E-06  0.328E-03    8.23       6.0  T
   5    -50.7250299 -0.899200E-08  0.664E-04    8.23      29.5  T
   6    -50.7250299 -0.601609E-09  0.416E-04    8.23      47.1  T
speedup  0.96
cpu  time for SCC    0.00 s
wall time for SCC    0.01 s
speedup  0.99
cpu  time for grad    0.01 s
wall time for grad    0.01 s
 E :    -50.44724675  G :  0.004341    pred/act E change: -0.692D-04 -0.872D-04
Maxdispl :   0.0781   ||displ|| :   0.1554   Lambda : -0.773D-04
Largest |displ|/coords:  0.0781 (   2)  0.0501 (   3)  0.0434 (  28)
................................................................................
.............................. CYCLE   63 ......................................
................................................................................
   1    -50.7239013 -0.507239E+02  0.129E-01    8.23       0.0  T
   2    -50.7239052 -0.385153E-05  0.974E-02    8.23       1.0  T
   3    -50.7239075 -0.230768E-05  0.125E-02    8.24       1.6  T
   4    -50.7239082 -0.654334E-06  0.483E-03    8.23       4.1  T
   5    -50.7239082 -0.271747E-07  0.101E-03    8.23      19.4  T
   6    -50.7239082 -0.980677E-09  0.632E-04    8.23      31.0  T
speedup  0.94
cpu  time for SCC    0.00 s
wall time for SCC    0.01 s
speedup  0.99
cpu  time for grad    0.01 s
wall time for grad    0.01 s
 E :    -50.44729105  G :  0.007865    pred/act E change: -0.773D-04 -0.443D-04
Maxdispl :   0.0580   ||displ|| :   0.1297   Lambda : -0.155D-03
Largest |displ|/coords:  0.0580 (   7)  0.0524 (   9)  0.0411 (   3)
................................................................................
.............................. CYCLE   64 ......................................
................................................................................
   1    -50.7247433 -0.507247E+02  0.927E-02    8.29       0.0  T
   2    -50.7247449 -0.156963E-05  0.691E-02    8.29       1.0  T
   3    -50.7247461 -0.123341E-05  0.911E-03    8.30       2.2  T
   4    -50.7247463 -0.168078E-06  0.293E-03    8.30       6.7  T
   5    -50.7247463 -0.964052E-08  0.682E-04    8.30      28.7  T
speedup  1.14
cpu  time for SCC    0.00 s
wall time for SCC    0.00 s
speedup  1.06
cpu  time for grad    0.01 s
wall time for grad    0.01 s
 E :    -50.44737404  G :  0.003421    pred/act E change: -0.396D-04 -0.830D-04
Maxdispl :   0.0382   ||displ|| :   0.0985   Lambda : -0.673D-04
Largest |displ|/coords:  0.0382 (   9)  0.0303 (  28)  0.0278 (  36)
................................................................................
.............................. CYCLE   65 ......................................
................................................................................
   1    -50.7246743 -0.507247E+02  0.871E-02    8.31       0.0  T
   2    -50.7246761 -0.178706E-05  0.657E-02    8.31       1.0  T
   3    -50.7246772 -0.112137E-05  0.823E-03    8.30       2.4  T
   4    -50.7246775 -0.293089E-06  0.384E-03    8.30       5.1  T
   5    -50.7246775 -0.147944E-07  0.692E-04    8.31      28.3  T
   6    -50.7246775 -0.521311E-09  0.423E-04    8.31      46.4  T
speedup  0.94
[...]
   1    -50.7252258 -0.507252E+02  0.232E-02    8.29       0.0  T
   2    -50.7252259 -0.104517E-06  0.173E-02    8.29       1.1  T
   3    -50.7252260 -0.107113E-06  0.240E-03    8.29       8.2  T
   4    -50.7252261 -0.872183E-08  0.795E-04    8.29      24.7  T
   5    -50.7252261 -0.769752E-09  0.177E-04    8.29     111.0  T
speedup  1.09
cpu  time for SCC    0.00 s
wall time for SCC    0.00 s
speedup  1.01
cpu  time for grad    0.01 s
wall time for grad    0.01 s
 E :    -50.44772660  G :  0.000505    pred/act E change: -0.101D-05 -0.109D-05
Maxdispl :   0.0164   ||displ|| :   0.0351   Lambda : -0.133D-05
Largest |displ|/coords:  0.0164 (   7)  0.0144 (   8)  0.0127 (   1)
................................................................................
.............................. CYCLE   91 ......................................
................................................................................
   1    -50.7252165 -0.507252E+02  0.228E-02    8.29       0.0  T
   2    -50.7252166 -0.100119E-06  0.172E-02    8.29       1.1  T
   3    -50.7252167 -0.105921E-06  0.215E-03    8.29       9.1  T
   4    -50.7252167 -0.833175E-08  0.863E-04    8.29      22.7  T
   5    -50.7252167 -0.669999E-09  0.169E-04    8.29     116.0  T
speedup  0.89
cpu  time for SCC    0.00 s
wall time for SCC    0.00 s
speedup  1.01
cpu  time for grad    0.01 s
wall time for grad    0.01 s
 E :    -50.44772752  G :  0.000488    pred/act E change: -0.756D-06 -0.921D-06
Maxdispl :   0.0134   ||displ|| :   0.0272   Lambda : -0.935D-06
Largest |displ|/coords:  0.0134 (   7)  0.0098 (   8)  0.0091 (   3)
................................................................................
.............................. CYCLE   92 ......................................
................................................................................
   1    -50.7252109 -0.507252E+02  0.179E-02    8.29       0.0  T
   2    -50.7252109 -0.591287E-07  0.135E-02    8.29       1.4  T
   3    -50.7252110 -0.664310E-07  0.138E-03    8.29      14.2  T
   4    -50.7252110 -0.461735E-08  0.656E-04    8.29      29.9  T
   5    -50.7252110 -0.383380E-09  0.135E-04    8.29     145.6  T
speedup  1.11
cpu  time for SCC    0.00 s
wall time for SCC    0.00 s
speedup  1.07
cpu  time for grad    0.01 s
wall time for grad    0.01 s
 E :    -50.44772818  G :  0.000383    pred/act E change: -0.668D-06 -0.653D-06
Maxdispl :   0.0091   ||displ|| :   0.0205   Lambda : -0.706D-06
Largest |displ|/coords:  0.0091 (   7)  0.0088 (   3)  0.0060 (   1)
................................................................................
.............................. CYCLE   93 ......................................
................................................................................
   1    -50.7252321 -0.507252E+02  0.131E-02    8.30       0.0  T
   2    -50.7252321 -0.346940E-07  0.989E-03    8.30       2.0  T
   3    -50.7252321 -0.370163E-07  0.103E-03    8.30      19.1  T
   4    -50.7252321 -0.308332E-08  0.489E-04    8.30      40.1  T
   5    -50.7252321 -0.233754E-09  0.102E-04    8.30     191.8  T
speedup  1.11
cpu  time for SCC    0.01 s
wall time for SCC    0.00 s
speedup  1.01
cpu  time for grad    0.01 s
wall time for grad    0.01 s
 E :    -50.44772868  G :  0.000346    pred/act E change: -0.468D-06 -0.506D-06
Maxdispl :   0.0097   ||displ|| :   0.0183   Lambda : -0.588D-06
Largest |displ|/coords:  0.0097 (   3)  0.0075 (   7)  0.0050 (  27)
................................................................................
.............................. CYCLE   94 ......................................
................................................................................
   1    -50.7252387 -0.507252E+02  0.120E-02    8.30       0.0  T
   2    -50.7252387 -0.288608E-07  0.904E-03    8.30       2.2  T
   3    -50.7252387 -0.327438E-07  0.104E-03    8.30      18.9  T
   4    -50.7252387 -0.203247E-08  0.410E-04    8.30      47.9  T
   5    -50.7252387 -0.197581E-09  0.993E-05    8.30     197.5  T
speedup  0.91
cpu  time for SCC    0.00 s
wall time for SCC    0.00 s
speedup  1.02
cpu  time for grad    0.01 s
wall time for grad    0.01 s
 E :    -50.44772912  G :  0.000361    pred/act E change: -0.353D-06 -0.435D-06
Maxdispl :   0.0107   ||displ|| :   0.0180   Lambda : -0.565D-06
Largest |displ|/coords:  0.0107 (   3)  0.0065 (   7)  0.0049 (  27)
................................................................................
.............................. CYCLE   95 ......................................
................................................................................
   1    -50.7252497 -0.507252E+02  0.118E-02    8.30       0.0  T
   2    -50.7252498 -0.284335E-07  0.882E-03    8.30       2.2  T
   3    -50.7252498 -0.325056E-07  0.117E-03    8.30      16.8  T
   4    -50.7252498 -0.174707E-08  0.282E-04    8.30      69.4  T
   5    -50.7252498 -0.177572E-09  0.989E-05    8.30     198.2  T
speedup  1.11
cpu  time for SCC    0.00 s
wall time for SCC    0.00 s
speedup  1.01
cpu  time for grad    0.01 s
wall time for grad    0.01 s
 E :    -50.44772953  G :  0.000321    pred/act E change: -0.294D-06 -0.410D-06
Maxdispl :   0.0095   ||displ|| :   0.0159   Lambda : -0.440D-06
Largest |displ|/coords:  0.0095 (   3)  0.0053 (   7)  0.0048 (  21)
................................................................................
.............................. CYCLE   96 ......................................
................................................................................
   1    -50.7252457 -0.507252E+02  0.109E-02    8.29       0.0  T
   2    -50.7252457 -0.243360E-07  0.807E-03    8.29       2.4  T
   3    -50.7252457 -0.267453E-07  0.123E-03    8.29      15.9  T
   4    -50.7252457 -0.153613E-08  0.197E-04    8.29      99.4  T
   5    -50.7252457 -0.125105E-09  0.878E-05    8.29     223.4  T
speedup  0.89
cpu  time for SCC    0.00 s
wall time for SCC    0.00 s
speedup  1.01
cpu  time for grad    0.01 s
wall time for grad    0.01 s
 E :    -50.44772984  G :  0.000219    pred/act E change: -0.283D-06 -0.316D-06
Maxdispl :   0.0061   ||displ|| :   0.0109   Lambda : -0.296D-06
Largest |displ|/coords:  0.0061 (   3)  0.0036 (  21)  0.0033 (   7)
................................................................................
.............................. CYCLE   97 ......................................
................................................................................
   1    -50.7252481 -0.507252E+02  0.789E-03    8.29       0.0  T
   2    -50.7252481 -0.142582E-07  0.578E-03    8.29       3.4  T
   3    -50.7252482 -0.137554E-07  0.101E-03    8.29      19.4  T
   4    -50.7252482 -0.102661E-08  0.161E-04    8.29     121.7  T
   5    -50.7252482 -0.885336E-10  0.615E-05    8.29     319.1  T
speedup  1.11
cpu  time for SCC    0.00 s
wall time for SCC    0.00 s
speedup  1.01
cpu  time for grad    0.01 s
wall time for grad    0.01 s
 E :    -50.44773005  G :  0.000155    pred/act E change: -0.220D-06 -0.208D-06
Maxdispl :   0.0029   ||displ|| :   0.0072   Lambda : -0.172D-06
Largest |displ|/coords:  0.0029 (   3)  0.0026 (  21)  0.0024 (   8)
................................................................................
.............................. CYCLE   98 ......................................
................................................................................
   1    -50.7252445 -0.507252E+02  0.581E-03    8.29       0.0  T
   2    -50.7252445 -0.744132E-08  0.420E-03    8.29       4.7  T
   3    -50.7252445 -0.695174E-08  0.763E-04    8.29      25.7  T
   4    -50.7252445 -0.507555E-09  0.980E-05    8.29     200.1  T
speedup  1.08
cpu  time for SCC    0.00 s
wall time for SCC    0.00 s
speedup  0.99
cpu  time for grad    0.01 s
wall time for grad    0.01 s
 E :    -50.44773018  G :  0.000155    pred/act E change: -0.148D-06 -0.123D-06
Maxdispl :   0.0019   ||displ|| :   0.0038   Lambda : -0.107D-06
Largest |displ|/coords:  0.0019 (   2)  0.0011 (  15)  0.0010 (   9)
................................................................................
.............................. CYCLE   99 ......................................
................................................................................
   1    -50.7252611 -0.507253E+02  0.289E-03    8.29       0.0  T
   2    -50.7252611 -0.248069E-08  0.208E-03    8.29       9.4  T
   3    -50.7252611 -0.207687E-08  0.384E-04    8.29      51.1  T
   4    -50.7252611 -0.185047E-09  0.697E-05    8.29     281.4  T
speedup  1.05
cpu  time for SCC    0.00 s
wall time for SCC    0.00 s
speedup  0.98
cpu  time for grad    0.01 s
wall time for grad    0.01 s
 E :    -50.44773025  G :  0.000134    pred/act E change: -0.867D-07 -0.747D-07
Maxdispl :   0.0025   ||displ|| :   0.0063   Lambda : -0.736D-07
Largest |displ|/coords:  0.0025 (   7)  0.0023 (   8)  0.0021 (  21)

   *** GEOMETRY OPTIMIZATION CONVERGED AFTER 99 ITERATIONS ***

------------------------------------------------------------------------
 total energy gain (kcal):     -0.0087
------------------------------------------------------------------------
================
 final structure:
================
$coord
       -0.29079696052554       -3.62196208321535       -1.65266245911596      S 
       -0.15289900010602       -1.07129406439609       -2.62038926029179      O 
        2.00342177548581       -4.48148247357053       -0.45223587083413      O 
       -2.51088435159097       -3.99159866987075       -0.01425088734942      O 
       -0.75997956851189       -5.40641746771032       -4.00305345836613      O 
       -0.63946613022850       -7.02132314713438       -3.22320581286101      H 
        0.70348370345117        1.77886052739923        3.60877798522442      O 
        1.22634517220787        2.15703281713316        5.30114732250051      H 
       -5.85795637122323        2.54832852320243        0.90247863574764      O 
       -6.47349380909873        4.00075783666772        1.79230082453743      H 
        4.34823719507471       -0.57068623386992        1.61788912767349      O 
        4.75958020333770        0.38405683438532        0.06960451897617      H 
        2.19847141055263        0.81713424996343        2.80728865167281      H 
        3.65282719180834       -2.17004465595351        0.99153781187018      H 
       -3.34718760257710       -0.82511315242605        3.25021248535920      O 
       -2.99731788698801       -2.29189488145948        1.84656095028141      H 
       -1.68441527793517        0.14628858677175        3.46385938280581      H 
       -4.56796558988729        0.41235883540750        2.39121479306347      H 
       -1.40529957332588        3.54729497098750       -0.95340616755554      O 
       -4.33052684604099        3.09928448636075       -0.05807338661371      H 
       -0.38640453327928        3.47950914305779        0.56264036344228      H 
       -1.02406136754870        1.97411598087325       -1.83976989064215      H 
        4.56047491133882        1.69298480791056       -2.96459317605703      N 
        2.95093838637912        0.69593362875701       -3.31731724708001      H 
        5.86395913644062        1.17451416062207       -4.26409056515324      H 
        4.16091578279798        3.54336145900628       -3.24246470902881      H 
$end
 
 Bond Distances (Angstroems)
 ---------------------------
S1-O2=1.4455         S1-O3=1.4437         S1-O4=1.4731         S1-O5=1.5812         O2-S1=1.4455         O3-S1=1.4437         
O4-S1=1.4731         O5-S1=1.5812         O5-H6=0.9511         H6-O5=0.9511         O7-H8=0.9585         O7-H13=1.0319        
H8-O7=0.9585         O9-H10=0.9584        O9-H20=0.9983        H10-O9=0.9584        O11-H12=0.9869       O11-H14=0.9806       
H12-O11=0.9869       H13-O7=1.0319        H14-O11=0.9806       O15-H16=1.0902       O15-H17=1.0253       O15-H18=1.0260       
H16-O15=1.0902       H17-O15=1.0253       H18-O15=1.0260       O19-H21=0.9673       O19-H22=0.9766       H20-O9=0.9983        
H21-O19=0.9673       H22-O19=0.9766       N23-H24=1.0191       N23-H25=1.0119       N23-H26=1.0125       H24-N23=1.0191       
H25-N23=1.0119       H26-N23=1.0125       
 N  H  Rav=1.0145 sigma=0.0033  Rmin=1.0119  Rmax=1.0191     3
 O  H  Rav=0.9959 sigma=0.0390  Rmin=0.9511  Rmax=1.0902    12
 S  O  Rav=1.4859 sigma=0.0563  Rmin=1.4437  Rmax=1.5812     4
 
 selected bond angles (degree)
 --------------------
O3-S1-O2=114.06                O4-S1-O2=111.89                O4-S1-O3=111.71                O5-S1-O2=106.67                
O5-S1-O3=106.86                O5-S1-O4=104.98                H6-O5-S1=100.65                H13-O7-H8=105.41               
H20-O9-H10=106.92              
 
 selected dihedral angles (degree)
 ---------------------------------
H6-O5-S1-O2=173.99            H6-O5-S1-O3= 51.62            H6-O5-S1-O4=292.87            
 
 CMA Distance (Angstroems)
 ---------------------------
R(CMA):  3.0354

========================================================================
 FINAL SINGLEPOINT CALCULATION ON OPTIMIZED GEOMETRY
========================================================================

 Ncao       : 65
 Nao        : 64
 Nshell     : 38
 Nel        : 80
 T(el)      :   300.0
 intcut     :    25.0
 scfconv/Eh :  0.100E-05
   qconv/e  :  0.100E-03
 intneglect :  0.100E-07
 broydamp   :      0.250
 iter      E             dE          RMSdq      gap      omega  full diag
   1    -50.7252611 -0.507253E+02  0.259E-05    8.29       0.0  T
   2    -50.7252611 -0.703437E-12  0.171E-05    8.29    1144.6  T
   3    -50.7252611 -0.468958E-12  0.555E-06    8.29    3530.5  T
speedup  1.11
cpu  time for SCC    0.00 s
wall time for SCC    0.00 s

   *** convergence criteria satisfied after 3 iterations ***

          eigenvalues
 #    :          28         29         30         31         32         33         34         35
 occ. :        2.000      2.000      2.000      2.000      2.000      2.000      2.000      2.000
 eps  :       -13.378    -13.247    -12.713    -12.590    -12.473    -12.414    -12.229    -12.058
 #    :          36         37         38         39         40         41         42         43
 occ. :        2.000      2.000      2.000      2.000      2.000      0.000      0.000      0.000
 eps  :       -11.987    -11.941    -11.712    -11.681    -10.749     -2.459     -0.696     -0.458
 #    :          44         45         46         47         48         49         50         51
 occ. :        0.000      0.000      0.000      0.000      0.000      0.000      0.000      0.000
 eps  :         0.599      1.120      1.297      1.887      3.129      3.906      4.094      5.078


   #   Z            q   n(s)   n(p)   n(d)      C6AA      α(0)
   1  16 S      1.662  1.579  1.797  0.963    89.646    15.936
   2   8 O     -0.718  1.754  4.965  0.000    29.208     7.246
   3   8 O     -0.727  1.771  4.957  0.000    29.458     7.277
   4   8 O     -0.724  1.770  4.953  0.000    29.228     7.254
   5   8 O     -0.579  1.750  4.829  0.000    24.661     6.704
   6   1 H      0.345  0.655  0.000  0.000     0.589     1.201
   7   8 O     -0.646  1.758  4.887  0.000    26.309     6.923
   8   1 H      0.290  0.710  0.000  0.000     0.750     1.361
   9   8 O     -0.608  1.751  4.857  0.000    25.370     6.798
  10   1 H      0.291  0.709  0.000  0.000     0.749     1.359
  11   8 O     -0.625  1.754  4.871  0.000    25.776     6.853
  12   1 H      0.321  0.679  0.000  0.000     0.661     1.277
  13   1 H      0.352  0.648  0.000  0.000     0.582     1.198
  14   1 H      0.323  0.677  0.000  0.000     0.655     1.272
  15   8 O     -0.518  1.731  4.788  0.000    23.226     6.509
  16   1 H      0.397  0.603  0.000  0.000     0.482     1.085
  17   1 H      0.376  0.624  0.000  0.000     0.531     1.145
  18   1 H      0.384  0.616  0.000  0.000     0.515     1.127
  19   8 O     -0.622  1.755  4.867  0.000    25.714     6.844
  20   1 H      0.345  0.655  0.000  0.000     0.601     1.219
  21   1 H      0.315  0.685  0.000  0.000     0.678     1.294
  22   1 H      0.330  0.670  0.000  0.000     0.639     1.255
  23   7 N     -0.458  1.375  4.083  0.000    32.050     8.408
  24   1 H      0.189  0.811  0.000  0.000     1.163     1.689
  25   1 H      0.149  0.851  0.000  0.000     1.411     1.861
  26   1 H      0.156  0.844  0.000  0.000     1.363     1.829

 Mol. C6AA /au·bohr⁶  :       5473.315287
 Mol. C8AA /au·bohr⁸  :     118316.149285
 Mol. α(0) /au        :        106.921287

 
 Wiberg/Mayer (AO) data. WBOs > 0.1 written file <wbo>
 largest (>0.05) Wiberg bond orders for each atom
           total WBO             WBO to atom ...
     1  S   4.886    O    2 1.357    O    3 1.353    O    4 1.225    O    5 0.905
     2  O   1.743    S    1 1.357    O    3 0.115    O    4 0.107    O    5 0.062
     3  O   1.736    S    1 1.353    O    2 0.115    O    4 0.106    O    5 0.078    H   14 0.057
     4  O   1.789    S    1 1.225    H   16 0.223    O    2 0.107    O    3 0.106    O    5 0.063    O   15 0.059
     5  O   1.984    S    1 0.905    H    6 0.864    O    3 0.078    O    4 0.063    O    2 0.062
     6  H   0.880    O    5 0.864
     7  O   1.908    H    8 0.908    H   13 0.714    H   17 0.137    O   11 0.062    O   15 0.051
     8  H   0.916    O    7 0.908
     9  O   1.926    H   10 0.911    H   20 0.787    H   18 0.134
    10  H   0.915    O    9 0.911
    11  O   1.946    H   14 0.834    H   12 0.821    H   13 0.159    O    7 0.062
    12  H   0.897    O   11 0.821    N   23 0.073
    13  H   0.876    O    7 0.714    O   11 0.159
    14  H   0.895    O   11 0.834    O    3 0.057
    15  O   2.228    H   17 0.717    H   18 0.715    H   16 0.609    O    4 0.059    O    7 0.051
    16  H   0.843    O   15 0.609    O    4 0.223
    17  H   0.858    O   15 0.717    O    7 0.137
    18  H   0.852    O   15 0.715    O    9 0.134
    19  O   1.896    H   21 0.876    H   22 0.843    H   20 0.093
    20  H   0.881    O    9 0.787    O   19 0.093
    21  H   0.901    O   19 0.876
    22  H   0.891    O   19 0.843
    23  N   3.011    H   25 0.975    H   26 0.972    H   24 0.936    H   12 0.073
    24  H   0.964    N   23 0.936
    25  H   0.978    N   23 0.975
    26  H   0.976    N   23 0.972
 MOs/occ written to file <molden.input>
 
molecular dipole:
                 x           y           z       tot (Debye)
 q only:       -0.381       1.187       1.188
   full:       -0.150       0.909       0.587       2.777
molecular quadrupole (traceless):
                xx          xy          yy          xz          yz          zz
 q only:       -2.688      -0.270       0.462      -8.085       4.988       2.226
  q+dip:       -8.031      -0.685       4.198      -9.867       7.972       3.832
   full:       -8.396      -0.666       4.632     -10.009       8.597       3.764

SCC energy    :     -50.7252611
rep           :       0.2772030
ES            :       0.2443353
AES           :      -0.0622144
AXC           :      -0.0066656
disp          :      -0.0187857
XB            :       0.0000000
fix           :       0.0000000
total E       :     -50.4477303
atomizationE  :       4.9780344     3123.76
(atE without considering molecular charge,
 total energy contains solvation terms)
H-L gap (eV)  :          8.2902
optimized geometry written to: xtbopt.xyz


------------------------------------------------------------------------
 * finished run on 2019/09/16 at 12:09:46.600     
------------------------------------------------------------------------
 total:
 * wall-time:     0 d,  0 h,  0 min,  2.226 sec
 *  cpu-time:     0 d,  0 h,  0 min,  2.207 sec
 * ratio c/w:     0.991 speedup
 SCF:
 * wall-time:     0 d,  0 h,  0 min,  0.136 sec
 *  cpu-time:     0 d,  0 h,  0 min,  0.133 sec
 * ratio c/w:     0.979 speedup
 ANC optimizer:
 * wall-time:     0 d,  0 h,  0 min,  2.068 sec
 *  cpu-time:     0 d,  0 h,  0 min,  2.054 sec
 * ratio c/w:     0.993 speedup

