      -----------------------------------------------------------      
     |                   =====================                   |     
     |                           x T B                           |     
     |                   =====================                   |     
     |                         S. Grimme                         |     
     |          Mulliken Center for Theoretical Chemistry        |     
     |                    University of Bonn                     |     
     |                 Version 6.0.1 (SAW181210)                 |     
      -----------------------------------------------------------      

   This program is distributed in the hope that it will be useful,
   but WITHOUT ANY WARRANTY; without even the implied warranty of
   MERCHANTABILITY or FITNESS FOR A PARTICULAR PURPOSE.
   
   FOR NON-COMMERCIAL, ACADEMIA USE ONLY.
   
   Cite this work as:
   S. Grimme, C. Bannwarth, P. Shushkov, J. Comput. Theory Chem., 2017,
   13, 1989-2009.
   C. Bannwarth, S. Ehlert and S. Grimme., ChemRxiv, 2018, preprint.
   http://doi.org/10.26434/chemrxiv.7246238.v1
   
   for sTDA-xTB:
   S. Grimme and C. Bannwarth, J. Chem. Phys., 2016, 145, 054103.
   
   in the mass-spec context:
   V. Asgeirsson, C. Bauer and S. Grimme, Chem. Sci., 2017, 8, 4879.
   
   if GBSA is used:
   P. Shushkov, F. März and S. Grimme, unpublished.
   
   for ANC optimizer:
   S. Grimme, unpublished.
   Rational Function algorithm used in ANCopt:
   F. Eckert, P. Pulay, H.-J. Werner, J. Comput. Chem., 1997, 18, 1473.
   
   with help from (in alphabetical order)
   C. Bannwarth, F. Bohle, G. Brandenburg, E. Caldeweyher, M. Checinski,
   S. Dohm, S. Ehlert, S. Ehrlich, F. März, H. Neugebauer, J. Pisarek,
   P. Pracht, P. Shushkov, and S. Spicher.
   
 * started run on 2019/09/16 at 11:39:21.840     
========================================================================
 # omp threads = 1
========================================================================
number of atoms            : 26
number of electrons        : 80
charge                     : 0
spin                       : .0
first test random number   : .8183

########################################################################
# WARNING! Please study the warnings concerning your input carefully
#  - XTBPATH is not set, using XTBHOME instead
#  - the use of '-opt' is discouraged, please use '--opt' next time
#  - the use of '-chrg' is discouraged, please use '--chrg' next time
#  - the use of '-uhf' is discouraged, please use '--uhf' next time
########################################################################

           ------------------------------------------------- 
          |                 G F N 2 - x T B                 |
          | Geometry, Frequencies, Noncovalent interactions |
          |            JCTC 2018 parametrisation            |
           ------------------------------------------------- 
      method parameters     
 k(s)        :  1.8500
 k(p)        :  2.2300
 k(d)        :  2.2300
 k(f)        :  2.0000
 kEN (H0ij)  : -2.0000
 D4 a1       :  0.5200
 D4 a2       :  5.0000
 D4 s6       :  1.0000
 D4 s8       :  2.7000
 D4 s9       :  5.0000
 alphaj      :  2.0000


            Z     q(EN)     CN     RAES       Cart. coordinates
     1  S   6.0    0.58    4.29    4.21     1.38878     4.11610    -2.66467
     2  O   6.0   -0.34    1.19    1.80    -0.03146     1.76346    -2.49315
     3  O   6.0   -0.27    1.09    1.80     1.04872     5.91046    -4.69008
     4  O   6.0   -0.23    2.04    1.83     1.12187     5.53336     0.06765
     5  O   6.0   -0.23    2.05    1.83     4.38133     3.57010    -2.54552
     6  H   1.0    0.16    1.18    1.46     4.71010     2.25294    -1.30320
     7  H   1.0    0.16    1.19    1.46    -0.53787     5.10983     0.74014
     8  O   6.0   -0.31    2.09    1.84    -2.96775    -0.66881     1.13982
     9  H   1.0    0.15    1.04    1.43    -3.13863    -2.46808     0.92063
    10  H   1.0    0.16    1.01    1.43    -2.11167    -0.08079    -0.35550
    11  O   6.0   -0.29    2.01    1.83     1.00488    -0.40989     4.36949
    12  H   1.0    0.16    1.03    1.43    -0.56332    -0.53256     3.45279
    13  H   1.0    0.15    0.97    1.43     0.54020     0.11130     6.05087
    14  O   6.0   -0.29    2.04    1.83     4.28975    -0.37174     0.55321
    15  H   1.0    0.16    1.00    1.43     3.73597    -1.89078    -0.28374
    16  H   1.0    0.17    1.03    1.43     3.44734    -0.37686     2.16719
    17  O   6.0   -0.29    2.04    1.83    -3.51407     4.31352     1.54821
    18  H   1.0    0.16    1.03    1.43    -3.70438     2.50501     1.63590
    19  H   1.0    0.15    0.97    1.43    -5.11501     4.99278     2.08692
    20  O   6.0   -0.31    2.00    1.83     1.51675    -3.24281    -2.82278
    21  H   1.0    0.16    1.02    1.43     0.80851    -1.56930    -2.93393
    22  H   1.0    0.15    0.97    1.43     1.98492    -3.68161    -4.52657
    23  N   5.0   -0.23    3.01    1.93    -2.38883    -5.79041     0.15291
    24  H   1.0    0.11    1.02    1.43    -0.86402    -5.22477    -0.87960
    25  H   1.0    0.10    0.99    1.43    -3.36210    -7.01021    -0.97665
    26  H   1.0    0.10    0.99    1.43    -1.68002    -6.86023     1.58962

  Z AO/shell   Hii/eV     exponent
  1     Wed Apr 25 08:07:45 CEST 2018   EN: 2.200 GM2: 0.406  GM3: 0.0800  RAES: 1.40
     1s    -10.707211    1.230000
  7     Wed Apr 25 08:07:45 CEST 2018   EN: 3.040 GM2: 0.461  GM3:-0.0640  RAES: 1.90
     2s    -16.686243    2.339881
     2p    -12.523956    2.014332
  8     Wed Apr 25 08:07:45 CEST 2018   EN: 3.440 GM2: 0.452  GM3:-0.0517  RAES: 1.80
     2s    -20.229985    2.439742
     2p    -15.503117    2.137023
 16     Tue Apr 24 11:44:34 CEST 2018   EN: 2.580 GM2: 0.340  GM3:-0.0502  RAES: 3.10
     3s    -20.029654    1.981333
     3p    -11.377694    2.025643
     3d     -0.420282    1.702555
 no old-style atom pair restraining (fixing) potential

molecular fragmentation (1/2 indicates fragments):
11111112222222222222222222
# atoms in fragment 1/2:     7    19
 fragment masses (1/2) :       98.07      107.11
CMA distance (Bohr)    :   6.415
constraining FC (au)   :  0.0500
           ------------------------------------------------- 
          |        Self-Consistent Charge Iterations        |
           ------------------------------------------------- 

 Ncao       : 65
 Nao        : 64
 Nshell     : 38
 Nel        : 80
 T(el)      :   300.0
 intcut     :    25.0
 scfconv/Eh :  0.100E-05
   qconv/e  :  0.100E-03
 intneglect :  0.100E-07
 broydamp   :      0.250
 iter      E             dE          RMSdq      gap      omega  full diag
   1    -50.6316214 -0.506316E+02  0.700E+00    7.99       0.0  T
   2    -50.6824053 -0.507839E-01  0.490E+00    7.31       1.0  T
   3    -50.7195311 -0.371258E-01  0.121E+00    6.19       1.0  T
   4    -50.7237344 -0.420328E-02  0.615E-01    6.38       1.0  T
   5    -50.7248630 -0.112868E-02  0.299E-01    6.37       1.0  T
   6    -50.7252876 -0.424606E-03  0.165E-01    6.35       1.0  T
   7    -50.7254513 -0.163648E-03  0.572E-02    6.31       1.0  T
   8    -50.7254731 -0.217702E-04  0.244E-02    6.32       1.0  T
   9    -50.7254761 -0.304802E-05  0.128E-02    6.33       1.5  T
  10    -50.7254771 -0.945083E-06  0.317E-03    6.33       6.2  T
  11    -50.7254771 -0.340598E-07  0.111E-03    6.33      17.7  T
  12    -50.7254771 -0.463291E-08  0.414E-04    6.33      47.3  T
  13    -50.7254771 -0.987654E-09  0.182E-04    6.33     107.7  T
speedup  1.03
cpu  time for SCC    0.02 s
wall time for SCC    0.02 s

   *** convergence criteria satisfied after 13 iterations ***

          eigenvalues
 #    :          28         29         30         31         32         33         34         35
 occ. :        2.000      2.000      2.000      2.000      2.000      2.000      2.000      2.000
 eps  :       -13.417    -13.154    -12.945    -12.803    -12.764    -12.486    -12.438    -12.402
 #    :          36         37         38         39         40         41         42         43
 occ. :        2.000      2.000      2.000      2.000      2.000      0.000      0.000      0.000
 eps  :       -12.279    -12.151    -11.990    -11.604    -11.123     -4.792     -2.050     -0.894
 #    :          44         45         46         47         48         49         50         51
 occ. :        0.000      0.000      0.000      0.000      0.000      0.000      0.000      0.000
 eps  :        -0.043      0.703      1.343      1.733      2.368      3.728      4.283      4.630


   #   Z            q   n(s)   n(p)   n(d)      C6AA      α(0)
   1  16 S      1.648  1.629  1.800  0.923    89.963    15.964
   2   8 O     -0.691  1.763  4.928  0.000    28.452     7.152
   3   8 O     -0.614  1.770  4.844  0.000    26.456     6.896
   4   8 O     -0.588  1.764  4.824  0.000    24.872     6.732
   5   8 O     -0.575  1.755  4.819  0.000    24.556     6.690
   6   1 H      0.389  0.611  0.000  0.000     0.502     1.112
   7   1 H      0.384  0.616  0.000  0.000     0.513     1.123
   8   8 O     -0.636  1.741  4.894  0.000    26.056     6.889
   9   1 H      0.324  0.676  0.000  0.000     0.653     1.269
  10   1 H      0.323  0.677  0.000  0.000     0.654     1.271
  11   8 O     -0.615  1.744  4.871  0.000    25.544     6.821
  12   1 H      0.323  0.677  0.000  0.000     0.654     1.271
  13   1 H      0.279  0.721  0.000  0.000     0.789     1.395
  14   8 O     -0.641  1.748  4.892  0.000    26.180     6.906
  15   1 H      0.311  0.689  0.000  0.000     0.688     1.303
  16   1 H      0.333  0.667  0.000  0.000     0.630     1.247
  17   8 O     -0.619  1.744  4.874  0.000    25.633     6.833
  18   1 H      0.336  0.664  0.000  0.000     0.622     1.238
  19   1 H      0.293  0.707  0.000  0.000     0.741     1.352
  20   8 O     -0.599  1.739  4.860  0.000    25.162     6.770
  21   1 H      0.326  0.674  0.000  0.000     0.647     1.263
  22   1 H      0.286  0.714  0.000  0.000     0.764     1.373
  23   7 N     -0.459  1.397  4.062  0.000    32.083     8.412
  24   1 H      0.188  0.812  0.000  0.000     1.168     1.693
  25   1 H      0.142  0.858  0.000  0.000     1.454     1.889
  26   1 H      0.147  0.853  0.000  0.000     1.423     1.869

 Mol. C6AA /au·bohr⁶  :       5439.234287
 Mol. C8AA /au·bohr⁸  :     117419.436115
 Mol. α(0) /au        :        106.734352

 
 Wiberg/Mayer (AO) data. WBOs > 0.1 written file <wbo>
 largest (>0.05) Wiberg bond orders for each atom
           total WBO             WBO to atom ...
     1  S   4.767    O    3 1.490    O    2 1.348    O    5 0.974    O    4 0.923
     2  O   1.753    S    1 1.348    O    3 0.136    O    4 0.095    O    5 0.094
     3  O   1.826    S    1 1.490    O    2 0.136    O    4 0.099    O    5 0.086
     4  O   1.980    S    1 0.923    H    7 0.776    O    3 0.099    O    2 0.095    O    5 0.057
     5  O   2.009    S    1 0.974    H    6 0.764    O    2 0.094    O    3 0.086    O    4 0.057
     6  H   0.848    O    5 0.764    O   14 0.067
     7  H   0.852    O    4 0.776    O   17 0.057
     8  O   1.874    H   10 0.863    H    9 0.833    H   12 0.053
     9  H   0.895    O    8 0.833
    10  H   0.895    O    8 0.863
    11  O   1.835    H   13 0.913    H   12 0.840
    12  H   0.895    O   11 0.840    O    8 0.053
    13  H   0.922    O   11 0.913
    14  O   1.849    H   15 0.874    H   16 0.844    H    6 0.067
    15  H   0.903    O   14 0.874
    16  H   0.889    O   14 0.844
    17  O   1.845    H   19 0.904    H   18 0.842    H    7 0.057
    18  H   0.887    O   17 0.842
    19  H   0.914    O   17 0.904
    20  O   1.868    H   22 0.913    H   21 0.856
    21  H   0.893    O   20 0.856
    22  H   0.918    O   20 0.913
    23  N   2.980    H   26 0.976    H   25 0.975    H   24 0.937
    24  H   0.965    N   23 0.937
    25  H   0.980    N   23 0.975
    26  H   0.978    N   23 0.976
 MOs/occ written to file <molden.input>
 
molecular dipole:
                 x           y           z       tot (Debye)
 q only:       -1.225      -1.608       0.763
   full:       -1.572      -2.228       0.706       7.159
molecular quadrupole (traceless):
                xx          xy          yy          xz          yz          zz
 q only:        2.143      -7.641      -5.398      -2.758      14.254       3.255
  q+dip:       -1.184      -9.932      -3.712      -3.453      17.789       4.896
   full:       -1.215     -10.005      -3.913      -3.837      18.075       5.128

SCC energy    :     -50.7254771
rep           :       0.2983132
ES            :       0.2302154
AES           :      -0.0387707
AXC           :      -0.0041950
disp          :      -0.0174343
XB            :       0.0000000
fix           :       0.0000000
total E       :     -50.4268346
atomizationE  :       4.9571388     3110.65
(atE without considering molecular charge,
 total energy contains solvation terms)
H-L gap (eV)  :          6.3314
           ------------------------------------------------- 
          |                 ===============                 |
          |                   A N C O P T                   |
          |                 ===============                 |
          |          Approximate Normal Coordinate          |
          |           Rational Function Optimizer           |
           ------------------------------------------------- 
dumping coords to <xtbopt.coord> and <xtbopt.log>
 optlevel               2
 Maxcycle             520
 Maxmicro              25
 Econv         1.000000000000000E-007
 Gconv         2.000000000000000E-004
 Maxdispl       1.00000000000000     
 Hlow          5.000000000000000E-003
 S6             20.0000000000000     
 Nvar               72

generating ANC from model Hessian ...
 Shifting diagonal of input Hessian by   5.061225560462906E-003
 Lowest  eigenvalues of input Hessian
    0.005000   -0.000000   -0.000000   -0.000000    0.000000    0.000000
    0.000000    0.005125    0.005332    0.005569    0.005661    0.005880
    0.006269    0.006474    0.006666    0.007146    0.008394    0.008738
 Highest eigenvalues
    1.418659    1.424544    1.431782    1.954224    2.770573    3.592057
 
cpu  time for ANC gen    0.02 s
wall time for ANC gen    0.02 s
................................................................................
.............................. CYCLE    1 ......................................
................................................................................
   1    -50.7254771 -0.507255E+02  0.501E-05    6.33       0.0  T
   2    -50.7254771 -0.379430E-11  0.396E-05    6.33     495.1  T
   3    -50.7254771 -0.324718E-11  0.201E-05    6.33     974.2  T
speedup  0.69
cpu  time for SCC    0.00 s
wall time for SCC    0.00 s
speedup  0.90
cpu  time for grad    0.01 s
wall time for grad    0.01 s
 E :    -50.42683460  G :  0.091813    pred/act E change:  0.000D+00  0.225D-07
Maxdispl :   0.1337   ||displ|| :   0.3672   Lambda : -0.110D-01
Largest |displ|/coords:  0.1337 (  18)  0.1321 (  30)  0.1126 (  28)
................................................................................
.............................. CYCLE    2 ......................................
................................................................................
   1    -50.7282118 -0.507282E+02  0.503E-01    6.76       0.0  T
   2    -50.7283203 -0.108465E-03  0.380E-01    6.75       1.0  T
   3    -50.7283802 -0.599833E-04  0.625E-02    6.73       1.0  T
   4    -50.7283970 -0.167253E-04  0.270E-02    6.74       1.0  T
   5    -50.7283982 -0.122125E-05  0.558E-03    6.74       3.5  T
   6    -50.7283982 -0.431597E-07  0.339E-03    6.74       5.8  T
speedup  1.15
cpu  time for SCC    0.01 s
wall time for SCC    0.01 s
speedup  1.02
cpu  time for grad    0.01 s
wall time for grad    0.01 s
 E :    -50.43473561  G :  0.065011    pred/act E change:  0.000D+00 -0.790D-02
Maxdispl :   0.1377   ||displ|| :   0.2995   Lambda : -0.579D-02
Largest |displ|/coords:  0.1377 (  16)  0.1121 (   8)  0.0929 (   9)
................................................................................
.............................. CYCLE    3 ......................................
................................................................................
   1    -50.7390798 -0.507391E+02  0.326E-01    7.40       0.0  T
   2    -50.7391398 -0.600181E-04  0.245E-01    7.42       1.0  T
   3    -50.7391683 -0.285229E-04  0.488E-02    7.45       1.0  T
   4    -50.7391768 -0.852200E-05  0.189E-02    7.45       1.0  T
   5    -50.7391773 -0.494360E-06  0.312E-03    7.44       6.3  T
   6    -50.7391773 -0.962224E-08  0.187E-03    7.44      10.5  T
speedup  0.94
cpu  time for SCC    0.00 s
wall time for SCC    0.01 s
speedup  0.93
cpu  time for grad    0.01 s
wall time for grad    0.01 s
 E :    -50.43895758  G :  0.046092    pred/act E change: -0.626D-02 -0.422D-02
Maxdispl :   0.1725   ||displ|| :   0.4867   Lambda : -0.727D-02
Largest |displ|/coords:  0.1725 (  27)  0.1604 (   8)  0.1366 (  18)
................................................................................
.............................. CYCLE    4 ......................................
................................................................................
   1    -50.7479827 -0.507480E+02  0.479E-01    8.50       0.0  T
   2    -50.7481446 -0.161886E-03  0.357E-01    8.53       1.0  T
   3    -50.7482234 -0.788377E-04  0.773E-02    8.58       1.0  T
   4    -50.7482437 -0.203318E-04  0.320E-02    8.57       1.0  T
   5    -50.7482450 -0.123689E-05  0.553E-03    8.57       3.5  T
   6    -50.7482450 -0.527377E-07  0.372E-03    8.57       5.3  T
speedup  1.11
cpu  time for SCC    0.01 s
wall time for SCC    0.01 s
speedup  1.00
cpu  time for grad    0.01 s
wall time for grad    0.01 s
 E :    -50.44195486  G :  0.031588    pred/act E change: -0.315D-02 -0.300D-02
Maxdispl :   0.1592   ||displ|| :   0.3323   Lambda : -0.239D-02
Largest |displ|/coords:  0.1592 (   8)  0.1249 (   5)  0.1114 (  16)
................................................................................
.............................. CYCLE    5 ......................................
................................................................................
   1    -50.7405224 -0.507405E+02  0.404E-01    8.43       0.0  T
   2    -50.7405797 -0.573059E-04  0.305E-01    8.44       1.0  T
   3    -50.7406226 -0.429325E-04  0.435E-02    8.45       1.0  T
   4    -50.7406301 -0.748029E-05  0.109E-02    8.45       1.8  T
   5    -50.7406303 -0.230255E-06  0.349E-03    8.45       5.6  T
   6    -50.7406303 -0.713246E-08  0.186E-03    8.45      10.5  T
speedup  0.94
cpu  time for SCC    0.00 s
wall time for SCC    0.01 s
speedup  1.01
cpu  time for grad    0.01 s
wall time for grad    0.01 s
 E :    -50.44286037  G :  0.037427    pred/act E change: -0.449D-02 -0.906D-03
Maxdispl :   0.1481   ||displ|| :   0.3920   Lambda : -0.356D-02
Largest |displ|/coords:  0.1481 (   5)  0.1463 (   3)  0.1323 (   8)
................................................................................
.............................. CYCLE    6 ......................................
................................................................................
   1    -50.7433717 -0.507434E+02  0.406E-01    8.09       0.0  T
   2    -50.7434559 -0.841538E-04  0.304E-01    8.10       1.0  T
   3    -50.7435102 -0.543427E-04  0.556E-02    8.12       1.0  T
   4    -50.7435209 -0.106623E-04  0.155E-02    8.12       1.3  T
   5    -50.7435213 -0.488186E-06  0.490E-03    8.12       4.0  T
   6    -50.7435214 -0.857857E-08  0.269E-03    8.12       7.3  T
speedup  1.15
cpu  time for SCC    0.01 s
wall time for SCC    0.01 s
speedup  1.01
cpu  time for grad    0.01 s
wall time for grad    0.01 s
 E :    -50.44318510  G :  0.028488    pred/act E change: -0.133D-02 -0.325D-03
Maxdispl :   0.1200   ||displ|| :   0.2909   Lambda : -0.229D-02
Largest |displ|/coords:  0.1200 (  13)  0.1065 (  12)  0.1006 (  16)
................................................................................
.............................. CYCLE    7 ......................................
................................................................................
   1    -50.7405519 -0.507406E+02  0.394E-01    8.10       0.0  T
   2    -50.7405942 -0.422882E-04  0.300E-01    8.11       1.0  T
   3    -50.7406328 -0.386336E-04  0.327E-02    8.13       1.0  T
   4    -50.7406377 -0.488094E-05  0.748E-03    8.12       2.6  T
   5    -50.7406378 -0.465696E-07  0.376E-03    8.12       5.2  T
   6    -50.7406378 -0.193910E-07  0.158E-03    8.12      12.4  T
speedup  0.94
cpu  time for SCC    0.00 s
wall time for SCC    0.01 s
speedup  0.98
cpu  time for grad    0.01 s
wall time for grad    0.01 s
 E :    -50.44428497  G :  0.025506    pred/act E change: -0.205D-02 -0.110D-02
Maxdispl :   0.1944   ||displ|| :   0.3389   Lambda : -0.174D-02
Largest |displ|/coords:  0.1944 (   8)  0.1930 (   9)  0.0981 (   7)
................................................................................
.............................. CYCLE    8 ......................................
................................................................................
   1    -50.7401989 -0.507402E+02  0.286E-01    8.31       0.0  T
   2    -50.7402335 -0.345751E-04  0.214E-01    8.31       1.0  T
   3    -50.7402570 -0.235078E-04  0.340E-02    8.32       1.0  T
   4    -50.7402618 -0.482639E-05  0.122E-02    8.32       1.6  T
   5    -50.7402621 -0.278154E-06  0.395E-03    8.32       5.0  T
   6    -50.7402621 -0.148664E-07  0.233E-03    8.32       8.4  T
speedup  1.13
cpu  time for SCC    0.01 s
wall time for SCC    0.01 s
speedup  1.00
cpu  time for grad    0.01 s
wall time for grad    0.01 s
 E :    -50.44466310  G :  0.024279    pred/act E change: -0.124D-02 -0.378D-03
Maxdispl :   0.1428   ||displ|| :   0.2773   Lambda : -0.120D-02
Largest |displ|/coords:  0.1428 (   3)  0.1257 (   9)  0.1072 (   8)
................................................................................
.............................. CYCLE    9 ......................................
................................................................................
   1    -50.7374740 -0.507375E+02  0.203E-01    8.28       0.0  T
   2    -50.7374813 -0.730259E-05  0.152E-01    8.28       1.0  T
   3    -50.7374895 -0.818196E-05  0.154E-02    8.29       1.3  T
   4    -50.7374901 -0.624881E-06  0.509E-03    8.29       3.9  T
   5    -50.7374901 -0.288157E-07  0.245E-03    8.29       8.0  T
speedup  0.93
cpu  time for SCC    0.00 s
wall time for SCC    0.00 s
speedup  1.00
cpu  time for grad    0.01 s
wall time for grad    0.01 s
 E :    -50.44529434  G :  0.015382    pred/act E change: -0.972D-03 -0.631D-03
Maxdispl :   0.1894   ||displ|| :   0.3119   Lambda : -0.960D-03
Largest |displ|/coords:  0.1894 (   8)  0.1119 (   3)  0.0866 (   7)
................................................................................
.............................. CYCLE   10 ......................................
................................................................................
   1    -50.7362469 -0.507362E+02  0.219E-01    8.15       0.0  T
   2    -50.7362595 -0.125504E-04  0.163E-01    8.15       1.0  T
   3    -50.7362654 -0.589927E-05  0.217E-02    8.17       1.0  T
   4    -50.7362674 -0.207247E-05  0.816E-03    8.17       2.4  T
   5    -50.7362676 -0.125034E-06  0.200E-03    8.17       9.8  T
   6    -50.7362676 -0.234355E-08  0.116E-03    8.17      16.9  T
speedup  0.96
cpu  time for SCC    0.00 s
wall time for SCC    0.01 s
speedup  1.00
cpu  time for grad    0.01 s
wall time for grad    0.01 s
 E :    -50.44553071  G :  0.024332    pred/act E change: -0.645D-03 -0.236D-03
Maxdispl :   0.1087   ||displ|| :   0.2098   Lambda : -0.777D-03
Largest |displ|/coords:  0.1087 (   8)  0.0797 (   3)  0.0676 (   4)
................................................................................
.............................. CYCLE   11 ......................................
................................................................................
   1    -50.7381582 -0.507382E+02  0.119E-01    8.16       0.0  T
   2    -50.7381640 -0.583960E-05  0.898E-02    8.16       1.0  T
   3    -50.7381687 -0.467231E-05  0.137E-02    8.16       1.4  T
   4    -50.7381694 -0.739572E-06  0.493E-03    8.16       4.0  T
   5    -50.7381695 -0.430907E-07  0.180E-03    8.16      10.9  T
speedup  0.91
cpu  time for SCC    0.00 s
wall time for SCC    0.00 s
speedup  0.98
cpu  time for grad    0.01 s
wall time for grad    0.01 s
 E :    -50.44600030  G :  0.010922    pred/act E change: -0.527D-03 -0.470D-03
Maxdispl :   0.2452   ||displ|| :   0.4289   Lambda : -0.117D-02
Largest |displ|/coords:  0.2452 (   8)  0.1744 (   3)  0.1225 (   5)
................................................................................
.............................. CYCLE   12 ......................................
................................................................................
   1    -50.7318086 -0.507318E+02  0.327E-01    8.24       0.0  T
   2    -50.7318453 -0.367379E-04  0.246E-01    8.24       1.0  T
   3    -50.7318697 -0.243759E-04  0.346E-02    8.24       1.0  T
   4    -50.7318752 -0.551340E-05  0.761E-03    8.25       2.6  T
   5    -50.7318753 -0.773092E-07  0.381E-03    8.25       5.2  T
   6    -50.7318753 -0.155412E-07  0.183E-03    8.25      10.7  T
   7    -50.7318753 -0.595963E-08  0.514E-04    8.25      38.2  T
speedup  0.97
cpu  time for SCC    0.01 s
wall time for SCC    0.01 s
speedup  1.00
cpu  time for grad    0.01 s
wall time for grad    0.01 s
 E :    -50.44604164  G :  0.031347    pred/act E change: -0.405D-03 -0.413D-04
Maxdispl :   0.0618   ||displ|| :   0.1617   Lambda : -0.139D-02
Largest |displ|/coords:  0.0618 (   3)  0.0551 (   8)  0.0549 (   6)
................................................................................
.............................. CYCLE   13 ......................................
................................................................................
   1    -50.7375086 -0.507375E+02  0.152E-01    8.24       0.0  T
   2    -50.7375217 -0.131953E-04  0.114E-01    8.25       1.0  T
   3    -50.7375314 -0.965006E-05  0.212E-02    8.26       1.0  T
   4    -50.7375330 -0.162108E-05  0.796E-03    8.26       2.5  T
   5    -50.7375331 -0.111739E-06  0.228E-03    8.26       8.6  T
   6    -50.7375331 -0.517392E-08  0.133E-03    8.26      14.8  T
speedup  0.96
cpu  time for SCC    0.00 s
wall time for SCC    0.01 s
speedup  1.00
cpu  time for grad    0.01 s
wall time for grad    0.01 s
 E :    -50.44672882  G :  0.014073    pred/act E change: -0.694D-03 -0.687D-03
Maxdispl :   0.1571   ||displ|| :   0.2860   Lambda : -0.959D-03
Largest |displ|/coords:  0.1571 (   3)  0.1114 (   5)  0.0882 (   8)
................................................................................
.............................. CYCLE   14 ......................................
................................................................................
   1    -50.7391166 -0.507391E+02  0.232E-01    8.20       0.0  T
   2    -50.7391287 -0.120888E-04  0.175E-01    8.20       1.0  T
   3    -50.7391399 -0.112065E-04  0.205E-02    8.21       1.0  T
   4    -50.7391412 -0.131191E-05  0.742E-03    8.21       2.6  T
   5    -50.7391412 -0.577604E-07  0.256E-03    8.21       7.7  T
   6    -50.7391412 -0.829237E-08  0.145E-03    8.21      13.6  T
speedup  0.93
cpu  time for SCC    0.00 s
wall time for SCC    0.01 s
speedup  0.98
cpu  time for grad    0.01 s
wall time for grad    0.01 s
 E :    -50.44697513  G :  0.018977    pred/act E change: -0.714D-03 -0.246D-03
Maxdispl :   0.1531   ||displ|| :   0.3064   Lambda : -0.837D-03
Largest |displ|/coords:  0.1531 (   8)  0.1249 (   3)  0.1167 (   5)
................................................................................
.............................. CYCLE   15 ......................................
................................................................................
   1    -50.7347203 -0.507347E+02  0.226E-01    8.16       0.0  T
   2    -50.7347326 -0.122164E-04  0.170E-01    8.16       1.0  T
   3    -50.7347427 -0.101165E-04  0.214E-02    8.17       1.0  T
   4    -50.7347441 -0.143974E-05  0.644E-03    8.17       3.0  T
   5    -50.7347442 -0.498915E-07  0.213E-03    8.17       9.2  T
   6    -50.7347442 -0.464108E-08  0.120E-03    8.17      16.3  T
speedup  0.96
cpu  time for SCC    0.01 s
wall time for SCC    0.01 s
speedup  1.00
cpu  time for grad    0.01 s
wall time for grad    0.01 s
 E :    -50.44751347  G :  0.017486    pred/act E change: -0.519D-03 -0.538D-03
Maxdispl :   0.1551   ||displ|| :   0.3410   Lambda : -0.120D-02
Largest |displ|/coords:  0.1551 (   5)  0.1465 (   9)  0.1355 (   3)
................................................................................
.............................. CYCLE   16 ......................................
................................................................................
   1    -50.7383207 -0.507383E+02  0.302E-01    8.20       0.0  T
   2    -50.7383441 -0.233820E-04  0.225E-01    8.20       1.0  T
   3    -50.7383613 -0.171768E-04  0.330E-02    8.20       1.0  T
   4    -50.7383640 -0.275460E-05  0.106E-02    8.20       1.8  T
   5    -50.7383641 -0.105549E-06  0.258E-03    8.20       7.6  T
   6    -50.7383641 -0.689823E-08  0.144E-03    8.20      13.6  T
speedup  0.94
cpu  time for SCC    0.00 s
wall time for SCC    0.01 s
speedup  0.99
cpu  time for grad    0.01 s
wall time for grad    0.01 s
 E :    -50.44768314  G :  0.023726    pred/act E change: -0.458D-03 -0.170D-03
Maxdispl :   0.1116   ||displ|| :   0.2423   Lambda : -0.126D-02
Largest |displ|/coords:  0.1116 (   5)  0.0929 (   3)  0.0870 (   6)
................................................................................
.............................. CYCLE   17 ......................................
................................................................................
   1    -50.7385582 -0.507386E+02  0.241E-01    8.23       0.0  T
   2    -50.7385867 -0.285179E-04  0.179E-01    8.23       1.0  T
   3    -50.7386049 -0.181156E-04  0.357E-02    8.23       1.0  T
   4    -50.7386082 -0.337109E-05  0.738E-03    8.23       2.7  T
   5    -50.7386083 -0.971208E-07  0.288E-03    8.23       6.8  T
   6    -50.7386083 -0.671724E-08  0.151E-03    8.23      12.9  T
speedup  0.96
cpu  time for SCC    0.00 s
wall time for SCC    0.01 s
speedup  1.00
cpu  time for grad    0.01 s
wall time for grad    0.01 s
 E :    -50.44810893  G :  0.025872    pred/act E change: -0.669D-03 -0.426D-03
Maxdispl :   0.1184   ||displ|| :   0.2540   Lambda : -0.148D-02
Largest |displ|/coords:  0.1184 (   9)  0.0912 (  13)  0.0909 (   3)
................................................................................
.............................. CYCLE   18 ......................................
................................................................................
   1    -50.7348561 -0.507349E+02  0.225E-01    8.20       0.0  T
   2    -50.7348722 -0.160627E-04  0.169E-01    8.20       1.0  T
   3    -50.7348868 -0.145934E-04  0.237E-02    8.23       1.0  T
   4    -50.7348887 -0.191382E-05  0.694E-03    8.22       2.8  T
   5    -50.7348887 -0.546121E-07  0.342E-03    8.22       5.7  T
   6    -50.7348887 -0.163880E-07  0.126E-03    8.22      15.5  T
speedup  0.94
cpu  time for SCC    0.00 s
wall time for SCC    0.01 s
speedup  0.99
cpu  time for grad    0.01 s
wall time for grad    0.01 s
 E :    -50.44815799  G :  0.026877    pred/act E change: -0.669D-03 -0.491D-04
Maxdispl :   0.0888   ||displ|| :   0.1950   Lambda : -0.150D-02
Largest |displ|/coords:  0.0888 (   5)  0.0789 (   9)  0.0557 (  11)
................................................................................
.............................. CYCLE   19 ......................................
................................................................................
   1    -50.7417280 -0.507417E+02  0.168E-01    8.22       0.0  T
   2    -50.7417429 -0.148815E-04  0.126E-01    8.21       1.0  T
   3    -50.7417541 -0.112135E-04  0.219E-02    8.20       1.0  T
   4    -50.7417559 -0.180409E-05  0.740E-03    8.20       2.7  T
   5    -50.7417560 -0.712207E-07  0.279E-03    8.20       7.0  T
   6    -50.7417560 -0.807679E-08  0.149E-03    8.20      13.1  T
speedup  0.94
cpu  time for SCC    0.00 s
wall time for SCC    0.01 s
speedup  0.98
cpu  time for grad    0.01 s
wall time for grad    0.01 s
 E :    -50.44861153  G :  0.015732    pred/act E change: -0.788D-03 -0.454D-03
Maxdispl :   0.0912   ||displ|| :   0.2707   Lambda : -0.129D-02
Largest |displ|/coords:  0.0912 (  10)  0.0883 (   9)  0.0806 (   1)
................................................................................
.............................. CYCLE   20 ......................................
................................................................................
   1    -50.7385955 -0.507386E+02  0.293E-01    8.13       0.0  T
   2    -50.7386260 -0.305134E-04  0.221E-01    8.13       1.0  T
   3    -50.7386461 -0.200717E-04  0.325E-02    8.12       1.0  T
   4    -50.7386504 -0.426038E-05  0.953E-03    8.12       2.1  T
   5    -50.7386505 -0.150514E-06  0.282E-03    8.12       7.0  T
   6    -50.7386505 -0.774140E-08  0.167E-03    8.12      11.8  T
speedup  1.13
cpu  time for SCC    0.01 s
wall time for SCC    0.01 s
speedup  1.06
cpu  time for grad    0.01 s
wall time for grad    0.01 s
 E :    -50.44848173  G :  0.032741    pred/act E change: -0.777D-03  0.130D-03
Maxdispl :   0.0594   ||displ|| :   0.1445   Lambda : -0.137D-02
Largest |displ|/coords:  0.0594 (   8)  0.0575 (   9)  0.0406 (  10)
................................................................................
.............................. CYCLE   21 ......................................
................................................................................
   1    -50.7424588 -0.507425E+02  0.138E-01    8.28       0.0  T
   2    -50.7424748 -0.160819E-04  0.102E-01    8.27       1.0  T
   3    -50.7424845 -0.964739E-05  0.252E-02    8.27       1.0  T
   4    -50.7424862 -0.167813E-05  0.820E-03    8.27       2.4  T
   5    -50.7424863 -0.158721E-06  0.230E-03    8.27       8.5  T
   6    -50.7424863 -0.408036E-08  0.130E-03    8.27      15.1  T
speedup  1.13
cpu  time for SCC    0.01 s
wall time for SCC    0.01 s
speedup  0.98
cpu  time for grad    0.01 s
wall time for grad    0.01 s
 E :    -50.44905691  G :  0.010325    pred/act E change: -0.694D-03 -0.575D-03
Maxdispl :   0.1646   ||displ|| :   0.3159   Lambda : -0.821D-03
Largest |displ|/coords:  0.1646 (   5)  0.1158 (  11)  0.0988 (   3)
................................................................................
.............................. CYCLE   22 ......................................
................................................................................
   1    -50.7360968 -0.507361E+02  0.253E-01    8.08       0.0  T
   2    -50.7361043 -0.753699E-05  0.190E-01    8.09       1.0  T
   3    -50.7361134 -0.908622E-05  0.206E-02    8.11       1.0  T
   4    -50.7361138 -0.346284E-06  0.360E-03    8.11       5.4  T
   5    -50.7361138 -0.149995E-07  0.222E-03    8.11       8.8  T
   6    -50.7361138 -0.701392E-08  0.849E-04    8.11      23.1  T
speedup  0.94
cpu  time for SCC    0.00 s
wall time for SCC    0.01 s
speedup  0.98
cpu  time for grad    0.01 s
wall time for grad    0.01 s
 E :    -50.44897149  G :  0.020421    pred/act E change: -0.698D-03  0.854D-04
Maxdispl :   0.0877   ||displ|| :   0.1915   Lambda : -0.926D-03
Largest |displ|/coords:  0.0877 (   8)  0.0869 (   3)  0.0582 (   5)
................................................................................
.............................. CYCLE   23 ......................................
................................................................................
   1    -50.7430657 -0.507431E+02  0.128E-01    8.26       0.0  T
   2    -50.7430712 -0.552795E-05  0.947E-02    8.26       1.0  T
   3    -50.7430748 -0.360582E-05  0.159E-02    8.25       1.2  T
   4    -50.7430755 -0.611886E-06  0.333E-03    8.25       5.9  T
   5    -50.7430755 -0.150562E-07  0.143E-03    8.25      13.8  T
speedup  0.91
cpu  time for SCC    0.00 s
wall time for SCC    0.00 s
speedup  0.98
cpu  time for grad    0.01 s
wall time for grad    0.01 s
 E :    -50.44939229  G :  0.011528    pred/act E change: -0.451D-03 -0.421D-03
Maxdispl :   0.1064   ||displ|| :   0.2572   Lambda : -0.553D-03
Largest |displ|/coords:  0.1064 (   4)  0.0989 (   3)  0.0823 (   5)
................................................................................
.............................. CYCLE   24 ......................................
................................................................................
   1    -50.7381979 -0.507382E+02  0.228E-01    8.11       0.0  T
   2    -50.7382118 -0.138929E-04  0.172E-01    8.11       1.0  T
   3    -50.7382233 -0.115639E-04  0.245E-02    8.10       1.0  T
   4    -50.7382249 -0.155219E-05  0.671E-03    8.10       2.9  T
   5    -50.7382250 -0.625117E-07  0.220E-03    8.10       8.9  T
   6    -50.7382250 -0.667548E-08  0.129E-03    8.10      15.2  T
speedup  0.94
cpu  time for SCC    0.00 s
wall time for SCC    0.01 s
speedup  0.98
cpu  time for grad    0.01 s
wall time for grad    0.01 s
 E :    -50.44935002  G :  0.016155    pred/act E change: -0.480D-03  0.423D-04
Maxdispl :   0.0608   ||displ|| :   0.1317   Lambda : -0.579D-03
Largest |displ|/coords:  0.0608 (   3)  0.0486 (   6)  0.0449 (   4)
................................................................................
.............................. CYCLE   25 ......................................
................................................................................
   1    -50.7415334 -0.507415E+02  0.102E-01    8.22       0.0  T
   2    -50.7415366 -0.320884E-05  0.769E-02    8.23       1.0  T
   3    -50.7415388 -0.218228E-05  0.116E-02    8.23       1.7  T
   4    -50.7415392 -0.427448E-06  0.433E-03    8.23       4.5  T
   5    -50.7415392 -0.269690E-07  0.971E-04    8.23      20.2  T
   6    -50.7415392 -0.101471E-08  0.598E-04    8.23      32.8  T
speedup  1.11
cpu  time for SCC    0.01 s
wall time for SCC    0.01 s
speedup  1.05
cpu  time for grad    0.01 s
wall time for grad    0.01 s
 E :    -50.44968678  G :  0.009170    pred/act E change: -0.295D-03 -0.337D-03
Maxdispl :   0.0658   ||displ|| :   0.1571   Lambda : -0.253D-03
Largest |displ|/coords:  0.0658 (   2)  0.0613 (   5)  0.0437 (  11)

generating ANC from model Hessian ...
 Shifting diagonal of input Hessian by   5.000737223020860E-003
 Lowest  eigenvalues of input Hessian
    0.005000   -0.000000   -0.000000    0.000000    0.000000    0.000000
    0.000000    0.005233    0.005514    0.005963    0.006114    0.006229
    0.006526    0.007076    0.007698    0.008117    0.008472    0.010140
 Highest eigenvalues
    1.396868    1.407803    1.431668    2.667368    3.284325    3.769061
 
cpu  time for ANC gen    0.02 s
wall time for ANC gen    0.02 s
................................................................................
.............................. CYCLE   26 ......................................
................................................................................
   1    -50.7414852 -0.507415E+02  0.121E-01    8.14       0.0  T
   2    -50.7414889 -0.360769E-05  0.903E-02    8.14       1.0  T
   3    -50.7414920 -0.313162E-05  0.119E-02    8.14       1.7  T
   4    -50.7414924 -0.389986E-06  0.491E-03    8.14       4.0  T
   5    -50.7414924 -0.225735E-07  0.110E-03    8.14      17.8  T
   6    -50.7414924 -0.158766E-08  0.701E-04    8.14      28.0  T
   7    -50.7414924 -0.799695E-09  0.199E-04    8.14      98.8  T
speedup  0.95
cpu  time for SCC    0.01 s
wall time for SCC    0.01 s
speedup  1.01
cpu  time for grad    0.01 s
wall time for grad    0.01 s
 E :    -50.44980384  G :  0.008832    pred/act E change:  0.000D+00 -0.117D-03
Maxdispl :   0.1059   ||displ|| :   0.1912   Lambda : -0.465D-03
Largest |displ|/coords:  0.1059 (   2)  0.0777 (   5)  0.0689 (   3)
................................................................................
.............................. CYCLE   27 ......................................
................................................................................
   1    -50.7409711 -0.507410E+02  0.196E-01    8.15       0.0  T
   2    -50.7409757 -0.460383E-05  0.149E-01    8.15       1.0  T
   3    -50.7409807 -0.500523E-05  0.124E-02    8.14       1.6  T
   4    -50.7409811 -0.405886E-06  0.412E-03    8.14       4.8  T
   5    -50.7409811 -0.203926E-07  0.174E-03    8.14      11.3  T
   6    -50.7409811 -0.261029E-08  0.715E-04    8.14      27.4  T
speedup  0.94
cpu  time for SCC    0.00 s
wall time for SCC    0.01 s
speedup  0.98
cpu  time for grad    0.01 s
wall time for grad    0.01 s
 E :    -50.45015838  G :  0.005700    pred/act E change:  0.000D+00 -0.355D-03
Maxdispl :   0.2003   ||displ|| :   0.3215   Lambda : -0.466D-03
Largest |displ|/coords:  0.2003 (   2)  0.1139 (   3)  0.0965 (   5)
................................................................................
.............................. CYCLE   28 ......................................
................................................................................
   1    -50.7380255 -0.507380E+02  0.302E-01    8.16       0.0  T
   2    -50.7380382 -0.127050E-04  0.228E-01    8.16       1.0  T
   3    -50.7380507 -0.124802E-04  0.203E-02    8.16       1.0  T
   4    -50.7380521 -0.141243E-05  0.621E-03    8.16       3.2  T
   5    -50.7380522 -0.454972E-07  0.314E-03    8.16       6.2  T
   6    -50.7380522 -0.970222E-08  0.131E-03    8.16      15.0  T
   7    -50.7380522 -0.619656E-08  0.295E-04    8.16      66.6  T
speedup  1.13
cpu  time for SCC    0.01 s
wall time for SCC    0.01 s
speedup  0.99
cpu  time for grad    0.01 s
wall time for grad    0.01 s
 E :    -50.45031107  G :  0.019403    pred/act E change: -0.241D-03 -0.153D-03
Maxdispl :   0.0460   ||displ|| :   0.0727   Lambda : -0.350D-03
Largest |displ|/coords:  0.0460 (   4)  0.0229 (   8)  0.0203 (  21)
................................................................................
.............................. CYCLE   29 ......................................
................................................................................
   1    -50.7409082 -0.507409E+02  0.691E-02    8.18       0.0  T
   2    -50.7409108 -0.261163E-05  0.520E-02    8.18       1.0  T
   3    -50.7409130 -0.220865E-05  0.908E-03    8.18       2.2  T
   4    -50.7409133 -0.327948E-06  0.227E-03    8.18       8.6  T
   5    -50.7409133 -0.577257E-08  0.105E-03    8.18      18.7  T
speedup  0.89
cpu  time for SCC    0.00 s
wall time for SCC    0.00 s
speedup  0.97
cpu  time for grad    0.01 s
wall time for grad    0.01 s
 E :    -50.45051747  G :  0.006360    pred/act E change: -0.257D-03 -0.206D-03
Maxdispl :   0.1435   ||displ|| :   0.1953   Lambda : -0.213D-03
Largest |displ|/coords:  0.1435 (   2)  0.0579 (   3)  0.0469 (   1)
................................................................................
.............................. CYCLE   30 ......................................
................................................................................
   1    -50.7415102 -0.507415E+02  0.114E-01    8.20       0.0  T
   2    -50.7415116 -0.143659E-05  0.855E-02    8.20       1.0  T
   3    -50.7415130 -0.136965E-05  0.761E-03    8.20       2.6  T
   4    -50.7415132 -0.176623E-06  0.259E-03    8.20       7.6  T
   5    -50.7415132 -0.889702E-08  0.940E-04    8.20      20.9  T
speedup  0.89
cpu  time for SCC    0.00 s
wall time for SCC    0.00 s
speedup  0.97
cpu  time for grad    0.01 s
wall time for grad    0.01 s
 E :    -50.45069424  G :  0.003726    pred/act E change: -0.176D-03 -0.177D-03
Maxdispl :   0.3881   ||displ|| :   0.5106   Lambda : -0.411D-03
Largest |displ|/coords:  0.3881 (   2)  0.1574 (   3)  0.1232 (   1)
................................................................................
.............................. CYCLE   31 ......................................
................................................................................
   1    -50.7389069 -0.507389E+02  0.301E-01    8.19       0.0  T
   2    -50.7389193 -0.124566E-04  0.227E-01    8.20       1.0  T
   3    -50.7389322 -0.129390E-04  0.212E-02    8.20       1.0  T
   4    -50.7389336 -0.135870E-05  0.713E-03    8.20       2.8  T
   5    -50.7389337 -0.756715E-07  0.331E-03    8.20       5.9  T
   6    -50.7389337 -0.128413E-07  0.141E-03    8.20      13.9  T
   7    -50.7389337 -0.749746E-08  0.397E-04    8.20      49.4  T
   8    -50.7389337 -0.352671E-09  0.170E-04    8.20     115.5  T
speedup  0.99
cpu  time for SCC    0.01 s
wall time for SCC    0.01 s
speedup  1.03
cpu  time for grad    0.02 s
wall time for grad    0.02 s
 E :    -50.45096972  G :  0.010514    pred/act E change: -0.111D-03 -0.275D-03
Maxdispl :   0.2313   ||displ|| :   0.2991   Lambda : -0.242D-03
Largest |displ|/coords:  0.2313 (   2)  0.1043 (   3)  0.0903 (   1)
................................................................................
.............................. CYCLE   32 ......................................
................................................................................
   1    -50.7391241 -0.507391E+02  0.128E-01    8.20       0.0  T
   2    -50.7391268 -0.263891E-05  0.964E-02    8.20       1.0  T
   3    -50.7391298 -0.302782E-05  0.971E-03    8.20       2.0  T
   4    -50.7391300 -0.226294E-06  0.346E-03    8.20       5.7  T
   5    -50.7391300 -0.187798E-07  0.136E-03    8.20      14.5  T
   6    -50.7391300 -0.246216E-08  0.674E-04    8.20      29.1  T
speedup  1.09
cpu  time for SCC    0.01 s
wall time for SCC    0.01 s
speedup  1.04
cpu  time for grad    0.01 s
wall time for grad    0.01 s
 E :    -50.45114061  G :  0.009281    pred/act E change: -0.259D-03 -0.171D-03
Maxdispl :   0.3890   ||displ|| :   0.5117   Lambda : -0.472D-03
Largest |displ|/coords:  0.3890 (   2)  0.1406 (   1)  0.1273 (   5)
................................................................................
.............................. CYCLE   33 ......................................
................................................................................
   1    -50.7389656 -0.507390E+02  0.218E-01    8.16       0.0  T
   2    -50.7389790 -0.134013E-04  0.164E-01    8.16       1.0  T
   3    -50.7389908 -0.118297E-04  0.227E-02    8.15       1.0  T
   4    -50.7389924 -0.154560E-05  0.616E-03    8.16       3.2  T
   5    -50.7389924 -0.528154E-07  0.284E-03    8.16       6.9  T
   6    -50.7389925 -0.853526E-08  0.130E-03    8.16      15.1  T
speedup  1.09
cpu  time for SCC    0.01 s
wall time for SCC    0.01 s
speedup  1.04
cpu  time for grad    0.01 s
wall time for grad    0.01 s
 E :    -50.45102265  G :  0.023124    pred/act E change: -0.132D-03  0.118D-03
Maxdispl :   0.0995   ||displ|| :   0.1460   Lambda : -0.795D-03
Largest |displ|/coords:  0.0995 (   2)  0.0671 (   3)  0.0301 (   4)
................................................................................
.............................. CYCLE   34 ......................................
................................................................................
   1    -50.7386703 -0.507387E+02  0.119E-01    8.19       0.0  T
   2    -50.7386776 -0.729432E-05  0.894E-02    8.18       1.0  T
   3    -50.7386834 -0.589235E-05  0.151E-02    8.18       1.3  T
   4    -50.7386844 -0.974990E-06  0.547E-03    8.18       3.6  T
   5    -50.7386845 -0.472362E-07  0.189E-03    8.18      10.4  T
speedup  1.11
cpu  time for SCC    0.00 s
wall time for SCC    0.00 s
speedup  1.05
cpu  time for grad    0.01 s
wall time for grad    0.01 s
 E :    -50.45142690  G :  0.007056    pred/act E change: -0.298D-03 -0.404D-03
Maxdispl :   0.1437   ||displ|| :   0.1843   Lambda : -0.103D-03
Largest |displ|/coords:  0.1437 (   2)  0.0549 (   3)  0.0470 (   1)
................................................................................
.............................. CYCLE   35 ......................................
................................................................................
   1    -50.7384409 -0.507384E+02  0.865E-02    8.18       0.0  T
   2    -50.7384418 -0.832892E-06  0.652E-02    8.17       1.0  T
   3    -50.7384428 -0.105167E-05  0.566E-03    8.17       3.5  T
   4    -50.7384429 -0.452757E-07  0.190E-03    8.17      10.3  T
   5    -50.7384429 -0.550779E-08  0.785E-04    8.17      25.0  T
speedup  1.11
cpu  time for SCC    0.00 s
wall time for SCC    0.00 s
speedup  1.04
cpu  time for grad    0.01 s
wall time for grad    0.01 s
 E :    -50.45150914  G :  0.007195    pred/act E change: -0.406D-03 -0.822D-04
Maxdispl :   0.2049   ||displ|| :   0.2723   Lambda : -0.238D-03
Largest |displ|/coords:  0.2049 (   2)  0.0796 (   3)  0.0656 (  36)
................................................................................
.............................. CYCLE   36 ......................................
................................................................................
   1    -50.7432631 -0.507433E+02  0.125E-01    8.22       0.0  T
   2    -50.7432706 -0.753796E-05  0.934E-02    8.21       1.0  T
   3    -50.7432745 -0.390388E-05  0.164E-02    8.20       1.2  T
   4    -50.7432756 -0.105902E-05  0.634E-03    8.20       3.1  T
   5    -50.7432756 -0.427754E-07  0.143E-03    8.20      13.7  T
   6    -50.7432756 -0.220387E-08  0.888E-04    8.20      22.1  T
speedup  1.13
cpu  time for SCC    0.01 s
wall time for SCC    0.01 s
speedup  1.06
cpu  time for grad    0.01 s
wall time for grad    0.01 s
 E :    -50.45153307  G :  0.013201    pred/act E change: -0.532D-04 -0.239D-04
Maxdispl :   0.3941   ||displ|| :   0.4935   Lambda : -0.408D-03
Largest |displ|/coords:  0.3941 (   2)  0.1671 (   3)  0.1040 (   5)
................................................................................
.............................. CYCLE   37 ......................................
................................................................................
   1    -50.7366280 -0.507366E+02  0.253E-01    8.19       0.0  T
   2    -50.7366395 -0.115400E-04  0.190E-01    8.19       1.0  T
   3    -50.7366523 -0.127461E-04  0.199E-02    8.19       1.0  T
   4    -50.7366533 -0.105067E-05  0.711E-03    8.19       2.8  T
   5    -50.7366534 -0.571190E-07  0.300E-03    8.19       6.5  T
   6    -50.7366534 -0.159278E-07  0.159E-03    8.19      12.4  T
   7    -50.7366534 -0.476800E-08  0.367E-04    8.19      53.5  T
speedup  0.98
cpu  time for SCC    0.01 s
wall time for SCC    0.01 s
speedup  0.99
cpu  time for grad    0.01 s
wall time for grad    0.01 s
 E :    -50.45148126  G :  0.015553    pred/act E change: -0.128D-03  0.518D-04
Maxdispl :   0.1660   ||displ|| :   0.2478   Lambda : -0.537D-03
Largest |displ|/coords:  0.1660 (   2)  0.0974 (   3)  0.0926 (   4)
................................................................................
.............................. CYCLE   38 ......................................
................................................................................
   1    -50.7406390 -0.507406E+02  0.136E-01    8.16       0.0  T
   2    -50.7406426 -0.357346E-05  0.103E-01    8.17       1.0  T
   3    -50.7406461 -0.353252E-05  0.105E-02    8.17       1.9  T
   4    -50.7406465 -0.368439E-06  0.515E-03    8.17       3.8  T
   5    -50.7406465 -0.294790E-07  0.140E-03    8.17      14.0  T
   6    -50.7406465 -0.229117E-08  0.893E-04    8.17      22.0  T
speedup  0.93
cpu  time for SCC    0.00 s
wall time for SCC    0.01 s
speedup  0.98
cpu  time for grad    0.01 s
wall time for grad    0.01 s
 E :    -50.45161859  G :  0.008667    pred/act E change: -0.253D-03 -0.137D-03
Maxdispl :   0.0826   ||displ|| :   0.1233   Lambda : -0.207D-03
Largest |displ|/coords:  0.0826 (   2)  0.0581 (   4)  0.0250 (  21)
................................................................................
.............................. CYCLE   39 ......................................
................................................................................
   1    -50.7414480 -0.507414E+02  0.856E-02    8.18       0.0  T
   2    -50.7414500 -0.207030E-05  0.646E-02    8.18       1.0  T
   3    -50.7414520 -0.201621E-05  0.802E-03    8.18       2.4  T
   4    -50.7414522 -0.189945E-06  0.205E-03    8.18       9.6  T
   5    -50.7414522 -0.533638E-08  0.975E-04    8.18      20.1  T
speedup  0.91
cpu  time for SCC    0.00 s
wall time for SCC    0.00 s
speedup  0.98
cpu  time for grad    0.01 s
wall time for grad    0.01 s
 E :    -50.45163730  G :  0.008577    pred/act E change: -0.285D-03 -0.187D-04
Maxdispl :   0.0497   ||displ|| :   0.0709   Lambda : -0.106D-03
Largest |displ|/coords:  0.0497 (   2)  0.0189 (   3)  0.0162 (  16)
................................................................................
.............................. CYCLE   40 ......................................
................................................................................
   1    -50.7411149 -0.507411E+02  0.535E-02    8.18       0.0  T
   2    -50.7411158 -0.902057E-06  0.402E-02    8.18       1.0  T
   3    -50.7411165 -0.766515E-06  0.547E-03    8.18       3.6  T
   4    -50.7411166 -0.108907E-06  0.154E-03    8.18      12.8  T
   5    -50.7411166 -0.324739E-08  0.677E-04    8.18      29.0  T
speedup  0.91
cpu  time for SCC    0.00 s
wall time for SCC    0.00 s
speedup  0.99
cpu  time for grad    0.01 s
wall time for grad    0.01 s
 E :    -50.45169449  G :  0.002637    pred/act E change: -0.105D-03 -0.572D-04
Maxdispl :   0.1079   ||displ|| :   0.1348   Lambda : -0.231D-04
Largest |displ|/coords:  0.1079 (   2)  0.0421 (   3)  0.0360 (   6)
................................................................................
.............................. CYCLE   41 ......................................
................................................................................
   1    -50.7401042 -0.507401E+02  0.602E-02    8.17       0.0  T
   2    -50.7401046 -0.452672E-06  0.452E-02    8.17       1.0  T
   3    -50.7401051 -0.495101E-06  0.416E-03    8.17       4.7  T
   4    -50.7401052 -0.402486E-07  0.174E-03    8.17      11.3  T
   5    -50.7401052 -0.337386E-08  0.559E-04    8.17      35.1  T
   6    -50.7401052 -0.471751E-09  0.334E-04    8.17      58.7  T
speedup  0.96
cpu  time for SCC    0.00 s
wall time for SCC    0.01 s
speedup  1.03
cpu  time for grad    0.01 s
wall time for grad    0.01 s
 E :    -50.45170455  G :  0.003666    pred/act E change: -0.532D-04 -0.101D-04
Maxdispl :   0.0240   ||displ|| :   0.0393   Lambda : -0.173D-04
Largest |displ|/coords:  0.0240 (   3)  0.0212 (   2)  0.0076 (   7)
................................................................................
.............................. CYCLE   42 ......................................
................................................................................
   1    -50.7405362 -0.507405E+02  0.213E-02    8.17       0.0  T
   2    -50.7405362 -0.734371E-07  0.160E-02    8.17       1.2  T
   3    -50.7405363 -0.471380E-07  0.174E-03    8.17      11.3  T
   4    -50.7405363 -0.132778E-07  0.591E-04    8.17      33.2  T
   5    -50.7405363 -0.456566E-09  0.203E-04    8.17      96.6  T
speedup  1.14
cpu  time for SCC    0.01 s
wall time for SCC    0.00 s
speedup  1.02
cpu  time for grad    0.01 s
wall time for grad    0.01 s
 E :    -50.45171878  G :  0.002997    pred/act E change: -0.118D-04 -0.142D-04
Maxdispl :   0.0645   ||displ|| :   0.1088   Lambda : -0.503D-04
Largest |displ|/coords:  0.0645 (   3)  0.0345 (   2)  0.0331 (   6)
................................................................................
.............................. CYCLE   43 ......................................
................................................................................
   1    -50.7412440 -0.507412E+02  0.631E-02    8.16       0.0  T
   2    -50.7412446 -0.542378E-06  0.475E-02    8.16       1.0  T
   3    -50.7412449 -0.329988E-06  0.448E-03    8.16       4.4  T
   4    -50.7412450 -0.100886E-06  0.177E-03    8.16      11.1  T
   5    -50.7412450 -0.470132E-08  0.537E-04    8.16      36.5  T
   6    -50.7412450 -0.293987E-09  0.313E-04    8.16      62.6  T
speedup  0.75
cpu  time for SCC    0.00 s
wall time for SCC    0.01 s
speedup  0.94
cpu  time for grad    0.01 s
wall time for grad    0.01 s
 E :    -50.45174487  G :  0.002630    pred/act E change: -0.868D-05 -0.261D-04
Maxdispl :   0.0558   ||displ|| :   0.0837   Lambda : -0.219D-04
Largest |displ|/coords:  0.0558 (   2)  0.0453 (   3)  0.0147 (  48)
................................................................................
.............................. CYCLE   44 ......................................
................................................................................
   1    -50.7414639 -0.507415E+02  0.457E-02    8.16       0.0  T
   2    -50.7414641 -0.245956E-06  0.344E-02    8.16       1.0  T
   3    -50.7414644 -0.243726E-06  0.289E-03    8.15       6.8  T
   4    -50.7414644 -0.280637E-07  0.935E-04    8.16      21.0  T
   5    -50.7414644 -0.113025E-08  0.436E-04    8.16      45.0  T
speedup  0.91
cpu  time for SCC    0.00 s
wall time for SCC    0.00 s
speedup  1.01
cpu  time for grad    0.01 s
wall time for grad    0.01 s
 E :    -50.45175671  G :  0.002960    pred/act E change: -0.254D-04 -0.118D-04
Maxdispl :   0.0120   ||displ|| :   0.0305   Lambda : -0.129D-04
Largest |displ|/coords:  0.0120 (   8)  0.0120 (   2)  0.0114 (   3)
................................................................................
.............................. CYCLE   45 ......................................
................................................................................
   1    -50.7413524 -0.507414E+02  0.197E-02    8.15       0.0  T
   2    -50.7413524 -0.385390E-07  0.148E-02    8.15       1.3  T
   3    -50.7413524 -0.331767E-07  0.112E-03    8.15      17.5  T
   4    -50.7413524 -0.526745E-08  0.499E-04    8.15      39.3  T
   5    -50.7413524 -0.201105E-09  0.141E-04    8.15     139.3  T
speedup  1.14
cpu  time for SCC    0.00 s
wall time for SCC    0.00 s
speedup  1.02
cpu  time for grad    0.01 s
wall time for grad    0.01 s
 E :    -50.45176736  G :  0.002420    pred/act E change: -0.110D-04 -0.107D-04
Maxdispl :   0.0749   ||displ|| :   0.1318   Lambda : -0.395D-04
Largest |displ|/coords:  0.0749 (   2)  0.0541 (   3)  0.0395 (   8)
................................................................................
.............................. CYCLE   46 ......................................
................................................................................
   1    -50.7406364 -0.507406E+02  0.852E-02    8.15       0.0  T
   2    -50.7406371 -0.763609E-06  0.642E-02    8.15       1.0  T
   3    -50.7406379 -0.781114E-06  0.471E-03    8.15       4.2  T
   4    -50.7406380 -0.814381E-07  0.206E-03    8.15       9.5  T
   5    -50.7406380 -0.437662E-08  0.773E-04    8.15      25.4  T
   6    -50.7406380 -0.756735E-09  0.412E-04    8.15      47.6  T
speedup  0.94
cpu  time for SCC    0.00 s
wall time for SCC    0.01 s
speedup  1.01
cpu  time for grad    0.01 s
wall time for grad    0.01 s
 E :    -50.45179015  G :  0.004011    pred/act E change: -0.646D-05 -0.228D-04
Maxdispl :   0.0328   ||displ|| :   0.0903   Lambda : -0.353D-04
Largest |displ|/coords:  0.0328 (   5)  0.0305 (   2)  0.0290 (  21)
................................................................................
.............................. CYCLE   47 ......................................
................................................................................
   1    -50.7410235 -0.507410E+02  0.453E-02    8.16       0.0  T
   2    -50.7410239 -0.439752E-06  0.342E-02    8.16       1.0  T
   3    -50.7410243 -0.379323E-06  0.412E-03    8.16       4.8  T
   4    -50.7410244 -0.548138E-07  0.201E-03    8.16       9.7  T
   5    -50.7410244 -0.314280E-08  0.403E-04    8.16      48.6  T
speedup  1.16
cpu  time for SCC    0.00 s
wall time for SCC    0.00 s
speedup  0.98
cpu  time for grad    0.01 s
wall time for grad    0.01 s
 E :    -50.45180533  G :  0.002703    pred/act E change: -0.201D-04 -0.152D-04
Maxdispl :   0.0687   ||displ|| :   0.0909   Lambda : -0.215D-04
Largest |displ|/coords:  0.0687 (   2)  0.0358 (   3)  0.0141 (  24)
................................................................................
.............................. CYCLE   48 ......................................
................................................................................
   1    -50.7407260 -0.507407E+02  0.516E-02    8.16       0.0  T
   2    -50.7407263 -0.372695E-06  0.389E-02    8.16       1.0  T
   3    -50.7407267 -0.371547E-06  0.331E-03    8.15       5.9  T
   4    -50.7407268 -0.404685E-07  0.177E-03    8.16      11.1  T
   5    -50.7407268 -0.323588E-08  0.480E-04    8.16      40.9  T
   6    -50.7407268 -0.271015E-09  0.295E-04    8.16      66.6  T
speedup  0.96
cpu  time for SCC    0.00 s
wall time for SCC    0.01 s
speedup  1.02
cpu  time for grad    0.01 s
wall time for grad    0.01 s
 E :    -50.45181992  G :  0.002419    pred/act E change: -0.178D-04 -0.146D-04
Maxdispl :   0.0597   ||displ|| :   0.0749   Lambda : -0.173D-04
Largest |displ|/coords:  0.0597 (   2)  0.0192 (   3)  0.0151 (   6)
................................................................................
.............................. CYCLE   49 ......................................
................................................................................
   1    -50.7410409 -0.507410E+02  0.352E-02    8.16       0.0  T
   2    -50.7410412 -0.285398E-06  0.266E-02    8.16       1.0  T
   3    -50.7410414 -0.193100E-06  0.304E-03    8.16       6.5  T
   4    -50.7410414 -0.449578E-07  0.176E-03    8.16      11.2  T
   5    -50.7410414 -0.303290E-08  0.325E-04    8.16      60.4  T
   6    -50.7410414 -0.136900E-09  0.210E-04    8.16      93.3  T
speedup  1.15
cpu  time for SCC    0.01 s
wall time for SCC    0.01 s
speedup  1.03
cpu  time for grad    0.01 s
wall time for grad    0.01 s
 E :    -50.45183117  G :  0.002188    pred/act E change: -0.109D-04 -0.113D-04
Maxdispl :   0.0281   ||displ|| :   0.0416   Lambda : -0.962D-05
Largest |displ|/coords:  0.0281 (   2)  0.0122 (   5)  0.0118 (   6)
................................................................................
.............................. CYCLE   50 ......................................
................................................................................
   1    -50.7411351 -0.507411E+02  0.214E-02    8.16       0.0  T
   2    -50.7411352 -0.977954E-07  0.160E-02    8.16       1.2  T
   3    -50.7411353 -0.592987E-07  0.217E-03    8.16       9.1  T
   4    -50.7411353 -0.144317E-07  0.863E-04    8.16      22.7  T
   5    -50.7411353 -0.689361E-09  0.179E-04    8.16     109.8  T
speedup  0.91
cpu  time for SCC    0.00 s
wall time for SCC    0.00 s
speedup  1.02
cpu  time for grad    0.01 s
wall time for grad    0.01 s
 E :    -50.45183793  G :  0.001633    pred/act E change: -0.872D-05 -0.676D-05
Maxdispl :   0.0379   ||displ|| :   0.0606   Lambda : -0.877D-05
Largest |displ|/coords:  0.0379 (   2)  0.0282 (   5)  0.0153 (  21)
................................................................................
.............................. CYCLE   51 ......................................
................................................................................
   1    -50.7412253 -0.507412E+02  0.333E-02    8.15       0.0  T
   2    -50.7412254 -0.134841E-06  0.251E-02    8.15       1.0  T
   3    -50.7412255 -0.126719E-06  0.214E-03    8.16       9.2  T
   4    -50.7412255 -0.143282E-07  0.907E-04    8.16      21.6  T
   5    -50.7412255 -0.676216E-09  0.248E-04    8.16      79.1  T
speedup  0.91
cpu  time for SCC    0.00 s
wall time for SCC    0.00 s
speedup  0.94
cpu  time for grad    0.01 s
wall time for grad    0.01 s
 E :    -50.45184402  G :  0.001600    pred/act E change: -0.482D-05 -0.609D-05
Maxdispl :   0.0274   ||displ|| :   0.0482   Lambda : -0.633D-05
Largest |displ|/coords:  0.0274 (   2)  0.0216 (   5)  0.0167 (   3)
................................................................................
.............................. CYCLE   52 ......................................
................................................................................
   1    -50.7410485 -0.507410E+02  0.269E-02    8.15       0.0  T
   2    -50.7410486 -0.105128E-06  0.203E-02    8.15       1.0  T
   3    -50.7410487 -0.804752E-07  0.201E-03    8.15       9.8  T
   4    -50.7410487 -0.143510E-07  0.771E-04    8.15      25.4  T
   5    -50.7410487 -0.584862E-09  0.207E-04    8.15      94.9  T
speedup  0.89
cpu  time for SCC    0.00 s
wall time for SCC    0.00 s
speedup  1.01
cpu  time for grad    0.01 s
wall time for grad    0.01 s
 E :    -50.45184835  G :  0.001163    pred/act E change: -0.440D-05 -0.432D-05
Maxdispl :   0.0246   ||displ|| :   0.0476   Lambda : -0.439D-05
Largest |displ|/coords:  0.0246 (   2)  0.0225 (   3)  0.0202 (   5)

generating ANC from model Hessian ...
 Shifting diagonal of input Hessian by   5.038780894120732E-003
 Lowest  eigenvalues of input Hessian
    0.005000   -0.000000   -0.000000   -0.000000    0.000000    0.000000
    0.000000    0.005086    0.005331    0.005581    0.005909    0.006281
    0.006328    0.006610    0.007475    0.007919    0.008108    0.009453
 Highest eigenvalues
    1.388292    1.408084    1.416110    2.671592    3.305035    3.782715
 
cpu  time for ANC gen    0.02 s
wall time for ANC gen    0.02 s
................................................................................
.............................. CYCLE   53 ......................................
................................................................................
   1    -50.7409126 -0.507409E+02  0.277E-02    8.15       0.0  T
   2    -50.7409127 -0.103311E-06  0.208E-02    8.15       1.0  T
   3    -50.7409128 -0.949963E-07  0.209E-03    8.15       9.4  T
   4    -50.7409128 -0.109380E-07  0.926E-04    8.15      21.2  T
   5    -50.7409128 -0.606825E-09  0.215E-04    8.15      91.3  T
speedup  0.89
cpu  time for SCC    0.00 s
wall time for SCC    0.00 s
speedup  1.01
cpu  time for grad    0.01 s
wall time for grad    0.01 s
 E :    -50.45185117  G :  0.000874    pred/act E change:  0.000D+00 -0.282D-05
Maxdispl :   0.0095   ||displ|| :   0.0155   Lambda : -0.281D-05
Largest |displ|/coords:  0.0095 (   1)  0.0064 (   2)  0.0045 (   6)
................................................................................
.............................. CYCLE   54 ......................................
................................................................................
   1    -50.7408809 -0.507409E+02  0.111E-02    8.16       0.0  T
   2    -50.7408809 -0.181639E-07  0.835E-03    8.16       2.3  T
   3    -50.7408809 -0.195038E-07  0.823E-04    8.16      23.8  T
   4    -50.7408809 -0.144976E-08  0.349E-04    8.16      56.2  T
speedup  0.83
cpu  time for SCC    0.00 s
wall time for SCC    0.00 s
speedup  1.00
cpu  time for grad    0.01 s
wall time for grad    0.01 s
 E :    -50.45185334  G :  0.000581    pred/act E change:  0.000D+00 -0.218D-05
Maxdispl :   0.0193   ||displ|| :   0.0355   Lambda : -0.450D-05
Largest |displ|/coords:  0.0193 (   1)  0.0138 (   6)  0.0136 (   4)
................................................................................
.............................. CYCLE   55 ......................................
................................................................................
   1    -50.7408196 -0.507408E+02  0.237E-02    8.16       0.0  T
   2    -50.7408196 -0.834016E-07  0.177E-02    8.16       1.1  T
   3    -50.7408197 -0.693976E-07  0.208E-03    8.17       9.4  T
   4    -50.7408197 -0.882212E-08  0.795E-04    8.17      24.7  T
   5    -50.7408197 -0.686590E-09  0.208E-04    8.17      94.1  T
speedup  1.16
cpu  time for SCC    0.00 s
wall time for SCC    0.00 s
speedup  1.02
cpu  time for grad    0.01 s
wall time for grad    0.01 s
 E :    -50.45185588  G :  0.000652    pred/act E change: -0.141D-05 -0.254D-05
Maxdispl :   0.0104   ||displ|| :   0.0187   Lambda : -0.143D-05
Largest |displ|/coords:  0.0104 (   1)  0.0087 (   4)  0.0064 (   6)
................................................................................
.............................. CYCLE   56 ......................................
................................................................................
   1    -50.7408311 -0.507408E+02  0.981E-03    8.17       0.0  T
   2    -50.7408311 -0.160642E-07  0.728E-03    8.17       2.7  T
   3    -50.7408312 -0.142659E-07  0.106E-03    8.17      18.6  T
   4    -50.7408312 -0.161303E-08  0.330E-04    8.17      59.4  T
   5    -50.7408312 -0.148773E-09  0.898E-05    8.17     218.5  T
speedup  0.91
cpu  time for SCC    0.00 s
wall time for SCC    0.00 s
speedup  1.01
cpu  time for grad    0.01 s
wall time for grad    0.01 s
 E :    -50.45185697  G :  0.000505    pred/act E change: -0.225D-05 -0.109D-05
Maxdispl :   0.0202   ||displ|| :   0.0376   Lambda : -0.234D-05
Largest |displ|/coords:  0.0202 (   4)  0.0198 (   1)  0.0119 (   6)
................................................................................
.............................. CYCLE   57 ......................................
................................................................................
   1    -50.7408442 -0.507408E+02  0.175E-02    8.17       0.0  T
   2    -50.7408443 -0.569344E-07  0.129E-02    8.17       1.5  T
   3    -50.7408444 -0.554957E-07  0.193E-03    8.17      10.2  T
   4    -50.7408444 -0.504686E-08  0.600E-04    8.17      32.7  T
   5    -50.7408444 -0.556945E-09  0.172E-04    8.17     114.3  T
speedup  0.91
cpu  time for SCC    0.00 s
wall time for SCC    0.00 s
speedup  1.02
cpu  time for grad    0.01 s
wall time for grad    0.01 s
 E :    -50.45185853  G :  0.000466    pred/act E change: -0.717D-06 -0.156D-05
Maxdispl :   0.0203   ||displ|| :   0.0333   Lambda : -0.157D-05
Largest |displ|/coords:  0.0203 (   4)  0.0161 (   1)  0.0094 (   9)
................................................................................
.............................. CYCLE   58 ......................................
................................................................................
   1    -50.7408300 -0.507408E+02  0.148E-02    8.17       0.0  T
   2    -50.7408300 -0.397597E-07  0.110E-02    8.17       1.8  T
   3    -50.7408301 -0.411543E-07  0.161E-03    8.17      12.2  T
   4    -50.7408301 -0.308938E-08  0.452E-04    8.17      43.3  T
   5    -50.7408301 -0.346375E-09  0.128E-04    8.17     153.1  T
speedup  1.14
cpu  time for SCC    0.00 s
wall time for SCC    0.00 s
speedup  1.08
cpu  time for grad    0.01 s
wall time for grad    0.01 s
 E :    -50.45185952  G :  0.000607    pred/act E change: -0.117D-05 -0.995D-06
Maxdispl :   0.0187   ||displ|| :   0.0326   Lambda : -0.140D-05
Largest |displ|/coords:  0.0187 (   4)  0.0174 (   1)  0.0097 (   9)
................................................................................
.............................. CYCLE   59 ......................................
................................................................................
   1    -50.7407844 -0.507408E+02  0.143E-02    8.17       0.0  T
   2    -50.7407844 -0.368322E-07  0.106E-02    8.17       1.8  T
   3    -50.7407845 -0.380555E-07  0.148E-03    8.17      13.2  T
   4    -50.7407845 -0.289553E-08  0.377E-04    8.17      52.0  T
   5    -50.7407845 -0.268500E-09  0.119E-04    8.17     164.7  T
speedup  1.14
cpu  time for SCC    0.00 s
wall time for SCC    0.00 s
speedup  1.02
cpu  time for grad    0.01 s
wall time for grad    0.01 s
 E :    -50.45186044  G :  0.000566    pred/act E change: -0.787D-06 -0.910D-06
Maxdispl :   0.0105   ||displ|| :   0.0186   Lambda : -0.897D-06
Largest |displ|/coords:  0.0105 (   1)  0.0095 (   4)  0.0068 (   2)
................................................................................
.............................. CYCLE   60 ......................................
................................................................................
   1    -50.7407564 -0.507408E+02  0.872E-03    8.17       0.0  T
   2    -50.7407564 -0.183433E-07  0.645E-03    8.17       3.0  T
   3    -50.7407565 -0.152482E-07  0.102E-03    8.17      19.3  T
   4    -50.7407565 -0.191665E-08  0.339E-04    8.17      57.9  T
   5    -50.7407565 -0.149939E-09  0.785E-05    8.17     250.0  T
speedup  0.91
cpu  time for SCC    0.00 s
wall time for SCC    0.00 s
speedup  1.01
cpu  time for grad    0.01 s
wall time for grad    0.01 s
 E :    -50.45186106  G :  0.000312    pred/act E change: -0.701D-06 -0.625D-06
Maxdispl :   0.0070   ||displ|| :   0.0130   Lambda : -0.546D-06
Largest |displ|/coords:  0.0070 (   2)  0.0070 (   1)  0.0041 (  10)
................................................................................
.............................. CYCLE   61 ......................................
................................................................................
   1    -50.7407546 -0.507408E+02  0.646E-03    8.17       0.0  T
   2    -50.7407547 -0.107939E-07  0.475E-03    8.17       4.1  T
   3    -50.7407547 -0.946734E-08  0.798E-04    8.17      24.6  T
   4    -50.7407547 -0.106489E-08  0.280E-04    8.17      70.2  T
speedup  0.86
cpu  time for SCC    0.00 s
wall time for SCC    0.00 s
speedup  1.00
cpu  time for grad    0.01 s
wall time for grad    0.01 s
 E :    -50.45186144  G :  0.000237    pred/act E change: -0.449D-06 -0.377D-06
Maxdispl :   0.0059   ||displ|| :   0.0107   Lambda : -0.309D-06
Largest |displ|/coords:  0.0059 (   1)  0.0055 (   2)  0.0040 (  10)
................................................................................
.............................. CYCLE   62 ......................................
................................................................................
   1    -50.7407659 -0.507408E+02  0.528E-03    8.17       0.0  T
   2    -50.7407659 -0.585463E-08  0.388E-03    8.17       5.1  T
   3    -50.7407659 -0.571060E-08  0.602E-04    8.17      32.6  T
   4    -50.7407659 -0.457966E-09  0.195E-04    8.17     100.6  T
speedup  1.14
cpu  time for SCC    0.00 s
wall time for SCC    0.00 s
speedup  1.00
cpu  time for grad    0.01 s
wall time for grad    0.01 s
 E :    -50.45186167  G :  0.000248    pred/act E change: -0.273D-06 -0.234D-06
Maxdispl :   0.0077   ||displ|| :   0.0135   Lambda : -0.273D-06
Largest |displ|/coords:  0.0077 (   1)  0.0067 (   2)  0.0041 (  10)
................................................................................
.............................. CYCLE   63 ......................................
................................................................................
   1    -50.7407856 -0.507408E+02  0.685E-03    8.17       0.0  T
   2    -50.7407856 -0.867195E-08  0.505E-03    8.17       3.9  T
   3    -50.7407856 -0.913065E-08  0.717E-04    8.17      27.4  T
   4    -50.7407856 -0.602277E-09  0.225E-04    8.17      87.2  T
speedup  0.86
cpu  time for SCC    0.00 s
wall time for SCC    0.00 s
speedup  1.00
cpu  time for grad    0.01 s
wall time for grad    0.01 s
 E :    -50.45186186  G :  0.000202    pred/act E change: -0.155D-06 -0.186D-06
Maxdispl :   0.0042   ||displ|| :   0.0071   Lambda : -0.108D-06
Largest |displ|/coords:  0.0042 (   1)  0.0031 (   2)  0.0022 (   6)
................................................................................
.............................. CYCLE   64 ......................................
................................................................................
   1    -50.7408014 -0.507408E+02  0.366E-03    8.17       0.0  T
   2    -50.7408014 -0.288792E-08  0.270E-03    8.17       7.3  T
   3    -50.7408014 -0.245811E-08  0.383E-04    8.17      51.3  T
   4    -50.7408014 -0.287798E-09  0.149E-04    8.17     131.9  T
speedup  0.86
cpu  time for SCC    0.00 s
wall time for SCC    0.00 s
speedup  1.00
cpu  time for grad    0.01 s
wall time for grad    0.01 s
 E :    -50.45186193  G :  0.000130    pred/act E change: -0.137D-06 -0.734D-07
Maxdispl :   0.0028   ||displ|| :   0.0051   Lambda : -0.693D-07
Largest |displ|/coords:  0.0028 (   1)  0.0025 (   2)  0.0017 (   6)

   *** GEOMETRY OPTIMIZATION CONVERGED AFTER 64 ITERATIONS ***

------------------------------------------------------------------------
 total energy gain (kcal):     -0.0068
------------------------------------------------------------------------
================
 final structure:
================
$coord
        1.22657463052017        3.77557848608802       -1.74520189557542      S 
       -0.19773697956261        1.50121690556375       -2.37166098240338      O 
        0.50059386156250        5.95257545165776       -3.12599802488970      O 
        0.90202426922869        4.22630600998179        1.15040674051303      O 
        4.02017434950688        3.21206547067671       -1.96926305323613      O 
        4.36969394182378        1.52780422895031       -0.94605939280314      H 
       -0.93694785749257        4.56127433715048        1.44020586290786      H 
       -3.02731068195769       -0.51924769134087        1.27465612918991      O 
       -3.08372325940665       -2.37128946303092        1.04306840766475      H 
       -2.10488218936106        0.09861662216060       -0.19867732871407      H 
        1.23563918048771       -0.26947773045147        4.07853886359378      O 
       -0.43238456007435       -0.45541318918877        3.28199828988632      H 
        1.42506332824274        1.50706886125681        4.40296348381211      H 
        4.52029029328036       -0.84857135342674        0.35692315566654      O 
        3.70493171585181       -2.04263346956823       -0.78952732492129      H 
        3.42029646495835       -0.74984688310388        1.87523611245161      H 
       -3.94618001923040        4.49334586389682        1.45564730058530      O 
       -4.19052445447171        2.67777249072188        1.66814348934124      H 
       -4.52028780440224        4.92260631058353       -0.21135339697634      H 
        1.63842207078851       -3.08953491809982       -3.28315965668154      O 
        0.80388283813432       -1.44159581469755       -3.13847394486205      H 
        2.36142646628453       -3.14950161120542       -4.94297359530144      H 
       -2.15519469478519       -5.44221562415508        0.31140730032655      N 
       -0.82771480056308       -5.12952427893936       -1.04022365569622      H 
       -3.42532282638934       -6.69164492807360       -0.38257486254217      H 
       -1.28080326393096       -6.25573408366946        1.80595195976193      H 
$end
 
 Bond Distances (Angstroems)
 ---------------------------
S1-O2=1.4582         S1-O3=1.4173         S1-O4=1.5602         S1-O5=1.5127         O2-S1=1.4582         O3-S1=1.4173         
O4-S1=1.5602         O4-H7=1.0010         O5-S1=1.5127         O5-H6=1.0591         H6-O5=1.0591         H7-O4=1.0010         
O8-H9=0.9881         O8-H10=0.9762        H9-O8=0.9881         H10-O8=0.9762        O11-H12=0.9831       O11-H13=0.9609       
H12-O11=0.9831       H13-O11=0.9609       O14-H15=0.9765       O14-H16=0.9935       H15-O14=0.9765       H16-O14=0.9935       
O17-H18=0.9759       O17-H19=0.9602       H18-O17=0.9759       H19-O17=0.9602       O20-H21=0.9805       O20-H22=0.9586       
H21-O20=0.9805       H22-O20=0.9586       N23-H24=1.0161       N23-H25=1.0118       N23-H26=1.0124       H24-N23=1.0161       
H25-N23=1.0118       H26-N23=1.0124       
 N  H  Rav=1.0134 sigma=0.0019  Rmin=1.0118  Rmax=1.0161     3
 O  H  Rav=0.9845 sigma=0.0258  Rmin=0.9586  Rmax=1.0591    12
 S  O  Rav=1.4871 sigma=0.0541  Rmin=1.4173  Rmax=1.5602     4
 
 selected bond angles (degree)
 --------------------
O3-S1-O2=114.43                O4-S1-O2=107.01                O4-S1-O3=110.62                O5-S1-O2=108.94                
O5-S1-O3=112.63                O5-S1-O4=102.40                H7-O4-S1=106.53                H6-O5-S1=107.25                
H10-O8-H9=104.37               
 
 selected dihedral angles (degree)
 ---------------------------------
H7-O4-S1-O2=296.20            H7-O4-S1-O3= 61.46            H7-O4-S1-O5=181.70            H6-O5-S1-O2=310.30            
H6-O5-S1-O3=182.22            H6-O5-S1-O4= 63.39            
 
 CMA Distance (Angstroems)
 ---------------------------
R(CMA):  2.8600

========================================================================
 FINAL SINGLEPOINT CALCULATION ON OPTIMIZED GEOMETRY
========================================================================

 Ncao       : 65
 Nao        : 64
 Nshell     : 38
 Nel        : 80
 T(el)      :   300.0
 intcut     :    25.0
 scfconv/Eh :  0.100E-05
   qconv/e  :  0.100E-03
 intneglect :  0.100E-07
 broydamp   :      0.250
 iter      E             dE          RMSdq      gap      omega  full diag
   1    -50.7408014 -0.507408E+02  0.561E-05    8.17       0.0  T
   2    -50.7408014 -0.175504E-11  0.368E-05    8.17     533.4  T
   3    -50.7408014 -0.110134E-11  0.704E-06    8.17    2785.2  T
speedup  0.74
cpu  time for SCC    0.00 s
wall time for SCC    0.00 s

   *** convergence criteria satisfied after 3 iterations ***

          eigenvalues
 #    :          28         29         30         31         32         33         34         35
 occ. :        2.000      2.000      2.000      2.000      2.000      2.000      2.000      2.000
 eps  :       -13.841    -13.677    -13.324    -12.995    -12.811    -12.756    -12.668    -12.568
 #    :          36         37         38         39         40         41         42         43
 occ. :        2.000      2.000      2.000      2.000      2.000      0.000      0.000      0.000
 eps  :       -12.347    -12.270    -12.103    -12.024    -11.209     -3.044     -0.909     -0.389
 #    :          44         45         46         47         48         49         50         51
 occ. :        0.000      0.000      0.000      0.000      0.000      0.000      0.000      0.000
 eps  :        -0.118      0.754      1.159      1.491      2.438      3.392      4.315      5.402


   #   Z            q   n(s)   n(p)   n(d)      C6AA      α(0)
   1  16 S      1.706  1.576  1.774  0.944    88.633    15.845
   2   8 O     -0.751  1.765  4.986  0.000    30.133     7.360
   3   8 O     -0.659  1.755  4.904  0.000    27.616     7.046
   4   8 O     -0.626  1.756  4.870  0.000    25.787     6.855
   5   8 O     -0.613  1.759  4.855  0.000    25.491     6.815
   6   1 H      0.399  0.601  0.000  0.000     0.480     1.085
   7   1 H      0.387  0.613  0.000  0.000     0.505     1.114
   8   8 O     -0.659  1.760  4.899  0.000    26.644     6.966
   9   1 H      0.320  0.680  0.000  0.000     0.663     1.279
  10   1 H      0.315  0.685  0.000  0.000     0.678     1.294
  11   8 O     -0.616  1.753  4.864  0.000    25.586     6.827
  12   1 H      0.328  0.672  0.000  0.000     0.643     1.260
  13   1 H      0.297  0.703  0.000  0.000     0.729     1.341
  14   8 O     -0.616  1.764  4.852  0.000    25.530     6.821
  15   1 H      0.331  0.669  0.000  0.000     0.635     1.252
  16   1 H      0.345  0.655  0.000  0.000     0.601     1.218
  17   8 O     -0.591  1.746  4.845  0.000    24.977     6.745
  18   1 H      0.345  0.655  0.000  0.000     0.601     1.217
  19   1 H      0.304  0.696  0.000  0.000     0.709     1.322
  20   8 O     -0.614  1.743  4.871  0.000    25.529     6.819
  21   1 H      0.331  0.669  0.000  0.000     0.636     1.253
  22   1 H      0.289  0.711  0.000  0.000     0.756     1.366
  23   7 N     -0.447  1.370  4.077  0.000    31.716     8.364
  24   1 H      0.187  0.813  0.000  0.000     1.173     1.697
  25   1 H      0.150  0.850  0.000  0.000     1.398     1.852
  26   1 H      0.158  0.842  0.000  0.000     1.349     1.819

 Mol. C6AA /au·bohr⁶  :       5458.280787
 Mol. C8AA /au·bohr⁸  :     117822.769306
 Mol. α(0) /au        :        106.832821

 
 Wiberg/Mayer (AO) data. WBOs > 0.1 written file <wbo>
 largest (>0.05) Wiberg bond orders for each atom
           total WBO             WBO to atom ...
     1  S   4.844    O    3 1.489    O    2 1.279    O    5 1.079    O    4 0.955
     2  O   1.714    S    1 1.279    O    3 0.116    O    5 0.090    O    4 0.084    H   21 0.053    H   10 0.051
     3  O   1.797    S    1 1.489    O    2 0.116    O    4 0.093    O    5 0.081
     4  O   1.960    S    1 0.955    H    7 0.715    O    3 0.093    O    2 0.084    O    5 0.055
     5  O   1.983    S    1 1.079    H    6 0.604    O    2 0.090    O    3 0.081    O   14 0.062    O    4 0.055
     6  H   0.841    O    5 0.604    O   14 0.220
     7  H   0.850    O    4 0.715    O   17 0.116
     8  O   1.866    H   10 0.844    H    9 0.809    H   12 0.064
     9  H   0.897    O    8 0.809    N   23 0.079
    10  H   0.901    O    8 0.844    O    2 0.051
    11  O   1.888    H   13 0.904    H   12 0.825    H   16 0.084
    12  H   0.892    O   11 0.825    O    8 0.064
    13  H   0.912    O   11 0.904
    14  O   1.990    H   15 0.841    H   16 0.795    H    6 0.220    O    5 0.062
    15  H   0.891    O   14 0.841
    16  H   0.881    O   14 0.795    O   11 0.084
    17  O   1.930    H   19 0.905    H   18 0.842    H    7 0.116
    18  H   0.881    O   17 0.842
    19  H   0.908    O   17 0.905
    20  O   1.866    H   22 0.911    H   21 0.832
    21  H   0.891    O   20 0.832    O    2 0.053
    22  H   0.917    O   20 0.911
    23  N   3.024    H   25 0.974    H   26 0.973    H   24 0.949    H    9 0.079
    24  H   0.965    N   23 0.949
    25  H   0.977    N   23 0.974
    26  H   0.975    N   23 0.973
 MOs/occ written to file <molden.input>
 
molecular dipole:
                 x           y           z       tot (Debye)
 q only:       -0.706      -1.433       0.097
   full:       -0.799      -1.725      -0.405       4.940
molecular quadrupole (traceless):
                xx          xy          yy          xz          yz          zz
 q only:        2.013      -1.973      -2.394      -0.119       9.008       0.381
  q+dip:       -1.120      -0.643       0.693       0.431      10.258       0.428
   full:       -1.223      -0.634       0.612       0.190      10.279       0.611

SCC energy    :     -50.7408014
rep           :       0.2886058
ES            :       0.2320536
AES           :      -0.0533554
AXC           :      -0.0069927
disp          :      -0.0192717
XB            :       0.0000000
fix           :       0.0000000
total E       :     -50.4518619
atomizationE  :       4.9821661     3126.36
(atE without considering molecular charge,
 total energy contains solvation terms)
H-L gap (eV)  :          8.1652
optimized geometry written to: xtbopt.xyz


------------------------------------------------------------------------
 * finished run on 2019/09/16 at 11:39:23.416     
------------------------------------------------------------------------
 total:
 * wall-time:     0 d,  0 h,  0 min,  1.574 sec
 *  cpu-time:     0 d,  0 h,  0 min,  1.559 sec
 * ratio c/w:     0.990 speedup
 SCF:
 * wall-time:     0 d,  0 h,  0 min,  0.150 sec
 *  cpu-time:     0 d,  0 h,  0 min,  0.147 sec
 * ratio c/w:     0.979 speedup
 ANC optimizer:
 * wall-time:     0 d,  0 h,  0 min,  1.397 sec
 *  cpu-time:     0 d,  0 h,  0 min,  1.389 sec
 * ratio c/w:     0.994 speedup

