      -----------------------------------------------------------      
     |                   =====================                   |     
     |                           x T B                           |     
     |                   =====================                   |     
     |                         S. Grimme                         |     
     |          Mulliken Center for Theoretical Chemistry        |     
     |                    University of Bonn                     |     
     |                 Version 6.0.1 (SAW181210)                 |     
      -----------------------------------------------------------      

   This program is distributed in the hope that it will be useful,
   but WITHOUT ANY WARRANTY; without even the implied warranty of
   MERCHANTABILITY or FITNESS FOR A PARTICULAR PURPOSE.
   
   FOR NON-COMMERCIAL, ACADEMIA USE ONLY.
   
   Cite this work as:
   S. Grimme, C. Bannwarth, P. Shushkov, J. Comput. Theory Chem., 2017,
   13, 1989-2009.
   C. Bannwarth, S. Ehlert and S. Grimme., ChemRxiv, 2018, preprint.
   http://doi.org/10.26434/chemrxiv.7246238.v1
   
   for sTDA-xTB:
   S. Grimme and C. Bannwarth, J. Chem. Phys., 2016, 145, 054103.
   
   in the mass-spec context:
   V. Asgeirsson, C. Bauer and S. Grimme, Chem. Sci., 2017, 8, 4879.
   
   if GBSA is used:
   P. Shushkov, F. März and S. Grimme, unpublished.
   
   for ANC optimizer:
   S. Grimme, unpublished.
   Rational Function algorithm used in ANCopt:
   F. Eckert, P. Pulay, H.-J. Werner, J. Comput. Chem., 1997, 18, 1473.
   
   with help from (in alphabetical order)
   C. Bannwarth, F. Bohle, G. Brandenburg, E. Caldeweyher, M. Checinski,
   S. Dohm, S. Ehlert, S. Ehrlich, F. März, H. Neugebauer, J. Pisarek,
   P. Pracht, P. Shushkov, and S. Spicher.
   
 * started run on 2019/09/16 at 12:40:44.309     
========================================================================
 # omp threads = 1
========================================================================
number of atoms            : 26
number of electrons        : 80
charge                     : 0
spin                       : .0
first test random number   : .7851

########################################################################
# WARNING! Please study the warnings concerning your input carefully
#  - XTBPATH is not set, using XTBHOME instead
#  - the use of '-opt' is discouraged, please use '--opt' next time
#  - the use of '-chrg' is discouraged, please use '--chrg' next time
#  - the use of '-uhf' is discouraged, please use '--uhf' next time
########################################################################

           ------------------------------------------------- 
          |                 G F N 2 - x T B                 |
          | Geometry, Frequencies, Noncovalent interactions |
          |            JCTC 2018 parametrisation            |
           ------------------------------------------------- 
      method parameters     
 k(s)        :  1.8500
 k(p)        :  2.2300
 k(d)        :  2.2300
 k(f)        :  2.0000
 kEN (H0ij)  : -2.0000
 D4 a1       :  0.5200
 D4 a2       :  5.0000
 D4 s6       :  1.0000
 D4 s8       :  2.7000
 D4 s9       :  5.0000
 alphaj      :  2.0000


            Z     q(EN)     CN     RAES       Cart. coordinates
     1  S   6.0    0.58    4.28    4.21    -0.86551    -5.07222    -0.29515
     2  O   6.0   -0.32    1.14    1.80     0.66358    -3.56951     1.43262
     3  O   6.0   -0.27    1.09    1.80    -1.59656    -7.64729     0.22662
     4  O   6.0   -0.24    2.06    1.83    -3.35382    -3.38267    -1.00161
     5  O   6.0   -0.23    2.05    1.83     0.38976    -5.12108    -3.06816
     6  H   1.0    0.16    1.16    1.46     1.05653    -3.45205    -3.46327
     7  H   1.0    0.18    1.29    1.49    -3.75698    -2.36377     0.47679
     8  O   6.0   -0.39    1.65    1.81    -4.06042    -0.44148     2.54189
     9  H   1.0    0.18    0.95    1.42    -5.82840    -0.46187     3.13985
    10  O   6.0   -0.30    2.03    1.83     0.84022    -0.03516    -3.66356
    11  H   1.0    0.16    1.03    1.43    -0.30507     0.83321    -2.54604
    12  H   1.0    0.14    0.97    1.43     0.38555     0.51233    -5.33931
    13  O   6.0   -0.32    2.08    1.84    -2.48831     2.55636    -0.70125
    14  H   1.0    0.14    0.97    1.43    -3.94560     3.43477    -1.34879
    15  H   1.0    0.18    1.13    1.45    -3.13962     1.38932     0.53504
    16  O   6.0   -0.29    2.06    1.83     1.58497     3.94937     2.08750
    17  H   1.0    0.16    1.02    1.43     0.16217     3.95236     0.95161
    18  H   1.0    0.15    1.04    1.43     3.05662     3.93499     1.01576
    19  O   6.0   -0.22    2.92    2.58    -0.13617     0.17480     4.66627
    20  H   1.0    0.17    1.20    1.46    -1.92031     0.04140     4.12879
    21  H   1.0    0.15    1.00    1.43     0.87752    -1.28821     4.09877
    22  H   1.0    0.14    1.05    1.44     0.63029     1.79864     4.14937
    23  N   5.0   -0.22    3.00    1.92     5.21666     2.84645    -1.57043
    24  H   1.0    0.11    1.01    1.43     3.95930     1.65002    -2.40628
    25  H   1.0    0.11    0.99    1.43     6.72506     1.75621    -1.07328
    26  H   1.0    0.10    0.99    1.43     5.84854     4.00509    -2.97376

  Z AO/shell   Hii/eV     exponent
  1     Wed Apr 25 08:07:45 CEST 2018   EN: 2.200 GM2: 0.406  GM3: 0.0800  RAES: 1.40
     1s    -10.707211    1.230000
  7     Wed Apr 25 08:07:45 CEST 2018   EN: 3.040 GM2: 0.461  GM3:-0.0640  RAES: 1.90
     2s    -16.686243    2.339881
     2p    -12.523956    2.014332
  8     Wed Apr 25 08:07:45 CEST 2018   EN: 3.440 GM2: 0.452  GM3:-0.0517  RAES: 1.80
     2s    -20.229985    2.439742
     2p    -15.503117    2.137023
 16     Tue Apr 24 11:44:34 CEST 2018   EN: 2.580 GM2: 0.340  GM3:-0.0502  RAES: 3.10
     3s    -20.029654    1.981333
     3p    -11.377694    2.025643
     3d     -0.420282    1.702555
 no old-style atom pair restraining (fixing) potential

molecular fragmentation (1/2 indicates fragments):
11111112222222222222222222
# atoms in fragment 1/2:     7    19
 fragment masses (1/2) :       98.07      107.11
CMA distance (Bohr)    :   6.610
constraining FC (au)   :  0.0500
           ------------------------------------------------- 
          |        Self-Consistent Charge Iterations        |
           ------------------------------------------------- 

 Ncao       : 65
 Nao        : 64
 Nshell     : 38
 Nel        : 80
 T(el)      :   300.0
 intcut     :    25.0
 scfconv/Eh :  0.100E-05
   qconv/e  :  0.100E-03
 intneglect :  0.100E-07
 broydamp   :      0.250
 iter      E             dE          RMSdq      gap      omega  full diag
   1    -50.5826012 -0.505826E+02  0.703E+00    8.02       0.0  T
   2    -50.6312630 -0.486617E-01  0.494E+00    7.42       1.0  T
   3    -50.6682174 -0.369545E-01  0.117E+00    5.48       1.0  T
   4    -50.6723353 -0.411792E-02  0.611E-01    5.65       1.0  T
   5    -50.6735134 -0.117804E-02  0.279E-01    5.69       1.0  T
   6    -50.6738863 -0.372878E-03  0.152E-01    5.73       1.0  T
   7    -50.6740251 -0.138794E-03  0.524E-02    5.73       1.0  T
   8    -50.6740425 -0.174326E-04  0.240E-02    5.73       1.0  T
   9    -50.6740452 -0.268009E-05  0.129E-02    5.73       1.5  T
  10    -50.6740460 -0.850969E-06  0.269E-03    5.74       7.3  T
  11    -50.6740460 -0.251136E-07  0.112E-03    5.74      17.5  T
  12    -50.6740460 -0.393937E-08  0.507E-04    5.74      38.7  T
  13    -50.6740460 -0.111974E-08  0.196E-04    5.74      99.9  T
speedup  1.07
cpu  time for SCC    0.02 s
wall time for SCC    0.01 s

   *** convergence criteria satisfied after 13 iterations ***

          eigenvalues
 #    :          28         29         30         31         32         33         34         35
 occ. :        2.000      2.000      2.000      2.000      2.000      2.000      2.000      2.000
 eps  :       -13.212    -12.701    -12.631    -12.488    -12.393    -12.253    -12.143    -12.058
 #    :          36         37         38         39         40         41         42         43
 occ. :        2.000      2.000      2.000      2.000      2.000      0.000      0.000      0.000
 eps  :       -12.008    -11.886    -11.131    -10.378    -10.130     -4.393     -1.692     -0.632
 #    :          44         45         46         47         48         49         50         51
 occ. :        0.000      0.000      0.000      0.000      0.000      0.000      0.000      0.000
 eps  :        -0.349      0.629      1.181      1.810      2.793      3.334      4.473      4.987


   #   Z            q   n(s)   n(p)   n(d)      C6AA      α(0)
   1  16 S      1.624  1.631  1.814  0.931    90.519    16.013
   2   8 O     -0.682  1.759  4.923  0.000    28.213     7.122
   3   8 O     -0.621  1.771  4.850  0.000    26.640     6.920
   4   8 O     -0.618  1.770  4.847  0.000    25.580     6.828
   5   8 O     -0.576  1.754  4.821  0.000    24.581     6.693
   6   1 H      0.371  0.629  0.000  0.000     0.539     1.152
   7   1 H      0.379  0.621  0.000  0.000     0.520     1.131
   8   8 O     -0.867  1.835  5.032  0.000    33.657     7.780
   9   1 H      0.212  0.788  0.000  0.000     1.061     1.618
  10   8 O     -0.617  1.747  4.870  0.000    25.597     6.828
  11   1 H      0.343  0.657  0.000  0.000     0.605     1.221
  12   1 H      0.289  0.711  0.000  0.000     0.756     1.366
  13   8 O     -0.651  1.750  4.901  0.000    26.440     6.940
  14   1 H      0.277  0.723  0.000  0.000     0.796     1.401
  15   1 H      0.349  0.651  0.000  0.000     0.589     1.205
  16   8 O     -0.632  1.739  4.894  0.000    25.975     6.879
  17   1 H      0.320  0.680  0.000  0.000     0.663     1.279
  18   1 H      0.315  0.685  0.000  0.000     0.677     1.292
  19   8 O     -0.439  1.652  4.787  0.000    21.572     6.273
  20   1 H      0.412  0.588  0.000  0.000     0.458     1.060
  21   1 H      0.394  0.606  0.000  0.000     0.496     1.107
  22   1 H      0.403  0.597  0.000  0.000     0.480     1.088
  23   7 N     -0.455  1.397  4.058  0.000    31.974     8.398
  24   1 H      0.184  0.816  0.000  0.000     1.189     1.708
  25   1 H      0.145  0.855  0.000  0.000     1.434     1.876
  26   1 H      0.142  0.858  0.000  0.000     1.456     1.890

 Mol. C6AA /au·bohr⁶  :       5484.272119
 Mol. C8AA /au·bohr⁸  :     118525.421926
 Mol. α(0) /au        :        107.067510

 
 Wiberg/Mayer (AO) data. WBOs > 0.1 written file <wbo>
 largest (>0.05) Wiberg bond orders for each atom
           total WBO             WBO to atom ...
     1  S   4.789    O    3 1.486    O    2 1.378    O    5 0.950    O    4 0.946
     2  O   1.752    S    1 1.378    O    3 0.139    O    4 0.102    O    5 0.089
     3  O   1.820    S    1 1.486    O    2 0.139    O    4 0.103    O    5 0.080
     4  O   1.953    S    1 0.946    H    7 0.687    O    3 0.103    O    2 0.102    O    5 0.058
     5  O   2.003    S    1 0.950    H    6 0.797    O    2 0.089    O    3 0.080    O    4 0.058
     6  H   0.862    O    5 0.797
     7  H   0.856    O    4 0.687    O    8 0.152
     8  O   1.581    H    9 0.941    H   20 0.194    H    7 0.152    H   15 0.121    O   19 0.059
     9  H   0.955    O    8 0.941
    10  O   1.872    H   12 0.914    H   11 0.828
    11  H   0.882    O   10 0.828
    12  H   0.917    O   10 0.914
    13  O   1.852    H   14 0.915    H   15 0.754
    14  H   0.923    O   13 0.915
    15  H   0.879    O   13 0.754    O    8 0.121
    16  O   1.877    H   17 0.856    H   18 0.848    H   22 0.090
    17  H   0.897    O   16 0.856
    18  H   0.901    O   16 0.848
    19  O   2.299    H   21 0.805    H   22 0.742    H   20 0.631    O    8 0.059
    20  H   0.831    O   19 0.631    O    8 0.194
    21  H   0.845    O   19 0.805
    22  H   0.838    O   19 0.742    O   16 0.090
    23  N   2.979    H   26 0.976    H   25 0.976    H   24 0.941
    24  H   0.966    N   23 0.941
    25  H   0.979    N   23 0.976
    26  H   0.980    N   23 0.976
 MOs/occ written to file <molden.input>
 
molecular dipole:
                 x           y           z       tot (Debye)
 q only:        1.202       2.315       0.192
   full:        0.864       2.407      -0.557       6.652
molecular quadrupole (traceless):
                xx          xy          yy          xz          yz          zz
 q only:        5.130      -7.935     -20.456      -0.240      -5.544      15.326
  q+dip:       12.087     -10.007     -25.582      -4.180      -9.167      13.496
   full:       12.508     -10.280     -26.080      -4.444      -9.485      13.573

SCC energy    :     -50.6740460
rep           :       0.2848261
ES            :       0.2637203
AES           :      -0.0486680
AXC           :      -0.0038671
disp          :      -0.0178352
XB            :       0.0000000
fix           :       0.0000000
total E       :     -50.3888316
atomizationE  :       4.9191358     3086.80
(atE without considering molecular charge,
 total energy contains solvation terms)
H-L gap (eV)  :          5.7363
           ------------------------------------------------- 
          |                 ===============                 |
          |                   A N C O P T                   |
          |                 ===============                 |
          |          Approximate Normal Coordinate          |
          |           Rational Function Optimizer           |
           ------------------------------------------------- 
dumping coords to <xtbopt.coord> and <xtbopt.log>
 optlevel               2
 Maxcycle             520
 Maxmicro              25
 Econv         1.000000000000000E-007
 Gconv         2.000000000000000E-004
 Maxdispl       1.00000000000000     
 Hlow          5.000000000000000E-003
 S6             20.0000000000000     
 Nvar               72

generating ANC from model Hessian ...
 Shifting diagonal of input Hessian by   5.026507177186753E-003
 Lowest  eigenvalues of input Hessian
    0.005000   -0.000000   -0.000000   -0.000000    0.000000    0.000000
    0.000000    0.005091    0.005700    0.005857    0.006020    0.006377
    0.007237    0.007793    0.008249    0.008570    0.008851    0.009617
 Highest eigenvalues
    1.439601    1.554207    1.584361    1.950385    2.766299    3.589650
 
cpu  time for ANC gen    0.02 s
wall time for ANC gen    0.02 s
................................................................................
.............................. CYCLE    1 ......................................
................................................................................
   1    -50.6740460 -0.506740E+02  0.467E-05    5.74       0.0  T
   2    -50.6740460 -0.303402E-11  0.362E-05    5.74     541.1  T
   3    -50.6740460 -0.243716E-11  0.150E-05    5.74    1305.5  T
speedup  0.71
cpu  time for SCC    0.00 s
wall time for SCC    0.00 s
speedup  0.99
cpu  time for grad    0.01 s
wall time for grad    0.01 s
 E :    -50.38883162  G :  0.161577    pred/act E change:  0.000D+00  0.231D-07
Maxdispl :   0.1103   ||displ|| :   0.2964   Lambda : -0.260D-01
Largest |displ|/coords:  0.1103 (  21)  0.1022 (  28)  0.0790 (  54)
................................................................................
.............................. CYCLE    2 ......................................
................................................................................
   1    -50.6841489 -0.506841E+02  0.377E-01    6.51       0.0  T
   2    -50.6843044 -0.155512E-03  0.281E-01    6.58       1.0  T
   3    -50.6843786 -0.742823E-04  0.640E-02    6.73       1.0  T
   4    -50.6843951 -0.164976E-04  0.267E-02    6.72       1.0  T
   5    -50.6843966 -0.147609E-05  0.642E-03    6.71       3.1  T
   6    -50.6843967 -0.841694E-07  0.330E-03    6.71       6.0  T
   7    -50.6843967 -0.155989E-07  0.132E-03    6.71      14.9  T
speedup  1.13
cpu  time for SCC    0.01 s
wall time for SCC    0.01 s
speedup  1.01
cpu  time for grad    0.01 s
wall time for grad    0.01 s
 E :    -50.40891794  G :  0.092160    pred/act E change:  0.000D+00 -0.201D-01
Maxdispl :   0.1227   ||displ|| :   0.3128   Lambda : -0.118D-01
Largest |displ|/coords:  0.1227 (  22)  0.0975 (   8)  0.0944 (  28)
................................................................................
.............................. CYCLE    3 ......................................
................................................................................
   1    -50.6912775 -0.506913E+02  0.266E-01    7.36       0.0  T
   2    -50.6914447 -0.167222E-03  0.194E-01    7.45       1.0  T
   3    -50.6915160 -0.712493E-04  0.588E-02    7.63       1.0  T
   4    -50.6915268 -0.108671E-04  0.191E-02    7.62       1.0  T
   5    -50.6915276 -0.796038E-06  0.438E-03    7.61       4.5  T
   6    -50.6915277 -0.392233E-07  0.248E-03    7.61       7.9  T
speedup  0.91
cpu  time for SCC    0.00 s
wall time for SCC    0.01 s
speedup  0.98
cpu  time for grad    0.01 s
wall time for grad    0.01 s
 E :    -50.41852859  G :  0.060241    pred/act E change: -0.142D-01 -0.961D-02
Maxdispl :   0.1389   ||displ|| :   0.3348   Lambda : -0.646D-02
Largest |displ|/coords:  0.1389 (  22)  0.1079 (   8)  0.0884 (  21)
................................................................................
.............................. CYCLE    4 ......................................
................................................................................
   1    -50.6953762 -0.506954E+02  0.236E-01    8.04       0.0  T
   2    -50.6955319 -0.155647E-03  0.170E-01    8.06       1.0  T
   3    -50.6955967 -0.647872E-04  0.549E-02    8.10       1.0  T
   4    -50.6956054 -0.877394E-05  0.151E-02    8.10       1.3  T
   5    -50.6956059 -0.433529E-06  0.375E-03    8.10       5.2  T
   6    -50.6956059 -0.240811E-07  0.213E-03    8.10       9.2  T
speedup  0.93
cpu  time for SCC    0.00 s
wall time for SCC    0.01 s
speedup  0.98
cpu  time for grad    0.01 s
wall time for grad    0.01 s
 E :    -50.42382805  G :  0.040712    pred/act E change: -0.648D-02 -0.530D-02
Maxdispl :   0.1800   ||displ|| :   0.4859   Lambda : -0.667D-02
Largest |displ|/coords:  0.1800 (  22)  0.1438 (   8)  0.1287 (  11)
................................................................................
.............................. CYCLE    5 ......................................
................................................................................
   1    -50.6962424 -0.506962E+02  0.388E-01    8.56       0.0  T
   2    -50.6966985 -0.456085E-03  0.278E-01    8.59       1.0  T
   3    -50.6968853 -0.186803E-03  0.932E-02    8.64       1.0  T
   4    -50.6969090 -0.237142E-04  0.241E-02    8.65       1.0  T
   5    -50.6969101 -0.104389E-05  0.654E-03    8.65       3.0  T
   6    -50.6969101 -0.621804E-07  0.363E-03    8.65       5.4  T
   7    -50.6969102 -0.318563E-07  0.140E-03    8.65      14.0  T
speedup  0.95
cpu  time for SCC    0.01 s
wall time for SCC    0.01 s
speedup  0.99
cpu  time for grad    0.01 s
wall time for grad    0.01 s
 E :    -50.42812226  G :  0.026042    pred/act E change: -0.359D-02 -0.429D-02
Maxdispl :   0.1762   ||displ|| :   0.4137   Lambda : -0.243D-02
Largest |displ|/coords:  0.1762 (   3)  0.1404 (  10)  0.1291 (   2)
................................................................................
.............................. CYCLE    6 ......................................
................................................................................
   1    -50.6974261 -0.506974E+02  0.264E-01    8.66       0.0  T
   2    -50.6975286 -0.102521E-03  0.193E-01    8.68       1.0  T
   3    -50.6975745 -0.458248E-04  0.488E-02    8.71       1.0  T
   4    -50.6975856 -0.110869E-04  0.134E-02    8.71       1.5  T
   5    -50.6975858 -0.230837E-06  0.414E-03    8.71       4.7  T
   6    -50.6975858 -0.231936E-07  0.217E-03    8.71       9.0  T
speedup  1.09
cpu  time for SCC    0.01 s
wall time for SCC    0.01 s
speedup  1.04
cpu  time for grad    0.01 s
wall time for grad    0.01 s
 E :    -50.42967235  G :  0.026181    pred/act E change: -0.412D-02 -0.155D-02
Maxdispl :   0.2016   ||displ|| :   0.4650   Lambda : -0.253D-02
Largest |displ|/coords:  0.2016 (   2)  0.1755 (   3)  0.1292 (  15)
................................................................................
.............................. CYCLE    7 ......................................
................................................................................
   1    -50.7002977 -0.507003E+02  0.292E-01    8.71       0.0  T
   2    -50.7004523 -0.154649E-03  0.211E-01    8.71       1.0  T
   3    -50.7005207 -0.683543E-04  0.593E-02    8.72       1.0  T
   4    -50.7005348 -0.140579E-04  0.126E-02    8.72       1.6  T
   5    -50.7005350 -0.204696E-06  0.484E-03    8.72       4.0  T
   6    -50.7005350 -0.311027E-07  0.214E-03    8.72       9.2  T
speedup  1.07
cpu  time for SCC    0.01 s
wall time for SCC    0.01 s
speedup  1.04
cpu  time for grad    0.01 s
wall time for grad    0.01 s
 E :    -50.43139468  G :  0.028592    pred/act E change: -0.142D-02 -0.172D-02
Maxdispl :   0.2259   ||displ|| :   0.4294   Lambda : -0.250D-02
Largest |displ|/coords:  0.2259 (   2)  0.1584 (   3)  0.1531 (  10)
................................................................................
.............................. CYCLE    8 ......................................
................................................................................
   1    -50.7082324 -0.507082E+02  0.240E-01    8.58       0.0  T
   2    -50.7083069 -0.745189E-04  0.174E-01    8.57       1.0  T
   3    -50.7083446 -0.377161E-04  0.501E-02    8.53       1.0  T
   4    -50.7083512 -0.660097E-05  0.139E-02    8.53       1.4  T
   5    -50.7083517 -0.403349E-06  0.492E-03    8.53       4.0  T
   6    -50.7083517 -0.358248E-07  0.241E-03    8.53       8.1  T
speedup  1.11
cpu  time for SCC    0.01 s
wall time for SCC    0.01 s
speedup  1.06
cpu  time for grad    0.01 s
wall time for grad    0.01 s
 E :    -50.43316239  G :  0.026399    pred/act E change: -0.154D-02 -0.177D-02
Maxdispl :   0.2118   ||displ|| :   0.4683   Lambda : -0.271D-02
Largest |displ|/coords:  0.2118 (   2)  0.1657 (   1)  0.1170 (  20)
................................................................................
.............................. CYCLE    9 ......................................
................................................................................
   1    -50.7192321 -0.507192E+02  0.261E-01    8.30       0.0  T
   2    -50.7193228 -0.906333E-04  0.191E-01    8.27       1.0  T
   3    -50.7193798 -0.570613E-04  0.545E-02    8.21       1.0  T
   4    -50.7193894 -0.956427E-05  0.165E-02    8.20       1.2  T
   5    -50.7193899 -0.499710E-06  0.604E-03    8.21       3.2  T
   6    -50.7193899 -0.415162E-07  0.279E-03    8.21       7.0  T
   7    -50.7193899 -0.129005E-07  0.786E-04    8.21      24.9  T
speedup  0.95
cpu  time for SCC    0.01 s
wall time for SCC    0.01 s
speedup  0.99
cpu  time for grad    0.01 s
wall time for grad    0.01 s
 E :    -50.43468059  G :  0.031746    pred/act E change: -0.148D-02 -0.152D-02
Maxdispl :   0.1696   ||displ|| :   0.2998   Lambda : -0.190D-02
Largest |displ|/coords:  0.1696 (   2)  0.0776 (  20)  0.0759 (  24)
................................................................................
.............................. CYCLE   10 ......................................
................................................................................
   1    -50.7239691 -0.507240E+02  0.179E-01    8.11       0.0  T
   2    -50.7239826 -0.135597E-04  0.133E-01    8.09       1.0  T
   3    -50.7239944 -0.117812E-04  0.222E-02    8.03       1.0  T
   4    -50.7239957 -0.133137E-05  0.736E-03    8.04       2.7  T
   5    -50.7239958 -0.734700E-07  0.293E-03    8.04       6.7  T
   6    -50.7239958 -0.124760E-07  0.161E-03    8.04      12.2  T
speedup  0.91
cpu  time for SCC    0.00 s
wall time for SCC    0.01 s
speedup  0.98
cpu  time for grad    0.01 s
wall time for grad    0.01 s
 E :    -50.43606560  G :  0.026790    pred/act E change: -0.165D-02 -0.139D-02
Maxdispl :   0.2526   ||displ|| :   0.4338   Lambda : -0.239D-02
Largest |displ|/coords:  0.2526 (   2)  0.1067 (   9)  0.1017 (  16)
................................................................................
.............................. CYCLE   11 ......................................
................................................................................
   1    -50.7241293 -0.507241E+02  0.318E-01    8.06       0.0  T
   2    -50.7241909 -0.615699E-04  0.234E-01    8.05       1.0  T
   3    -50.7242318 -0.408917E-04  0.508E-02    8.00       1.0  T
   4    -50.7242389 -0.710852E-05  0.152E-02    8.00       1.3  T
   5    -50.7242393 -0.343900E-06  0.537E-03    8.00       3.7  T
   6    -50.7242393 -0.519623E-07  0.291E-03    8.00       6.7  T
speedup  1.09
cpu  time for SCC    0.01 s
wall time for SCC    0.01 s
speedup  1.05
cpu  time for grad    0.01 s
wall time for grad    0.01 s
 E :    -50.43668582  G :  0.034462    pred/act E change: -0.103D-02 -0.620D-03
Maxdispl :   0.1215   ||displ|| :   0.3242   Lambda : -0.362D-02
Largest |displ|/coords:  0.1215 (   2)  0.1149 (  10)  0.1020 (   5)
................................................................................
.............................. CYCLE   12 ......................................
................................................................................
   1    -50.7383018 -0.507383E+02  0.307E-01    8.10       0.0  T
   2    -50.7383874 -0.855750E-04  0.217E-01    8.10       1.0  T
   3    -50.7384458 -0.583611E-04  0.589E-02    8.09       1.0  T
   4    -50.7384519 -0.610631E-05  0.192E-02    8.08       1.0  T
   5    -50.7384526 -0.764325E-06  0.644E-03    8.07       3.0  T
   6    -50.7384527 -0.618815E-07  0.358E-03    8.08       5.5  T
   7    -50.7384527 -0.262155E-07  0.110E-03    8.08      17.8  T
speedup  1.11
cpu  time for SCC    0.01 s
wall time for SCC    0.01 s
speedup  1.00
cpu  time for grad    0.01 s
wall time for grad    0.01 s
 E :    -50.43692170  G :  0.046666    pred/act E change: -0.142D-02 -0.236D-03
Maxdispl :   0.0807   ||displ|| :   0.2040   Lambda : -0.286D-02
Largest |displ|/coords:  0.0807 (  16)  0.0672 (   8)  0.0568 (  21)
................................................................................
.............................. CYCLE   13 ......................................
................................................................................
   1    -50.7296709 -0.507297E+02  0.209E-01    8.07       0.0  T
   2    -50.7296969 -0.260798E-04  0.154E-01    8.08       1.0  T
   3    -50.7297159 -0.189474E-04  0.329E-02    8.10       1.0  T
   4    -50.7297184 -0.255078E-05  0.931E-03    8.10       2.1  T
   5    -50.7297186 -0.120056E-06  0.354E-03    8.10       5.5  T
   6    -50.7297186 -0.225149E-07  0.178E-03    8.10      11.0  T
speedup  0.91
cpu  time for SCC    0.00 s
wall time for SCC    0.01 s
speedup  0.98
cpu  time for grad    0.01 s
wall time for grad    0.01 s
 E :    -50.43816523  G :  0.017113    pred/act E change: -0.200D-02 -0.124D-02
Maxdispl :   0.1233   ||displ|| :   0.2340   Lambda : -0.109D-02
Largest |displ|/coords:  0.1233 (  11)  0.0803 (   8)  0.0765 (   1)
................................................................................
.............................. CYCLE   14 ......................................
................................................................................
   1    -50.7326732 -0.507327E+02  0.223E-01    8.12       0.0  T
   2    -50.7327014 -0.281342E-04  0.166E-01    8.12       1.0  T
   3    -50.7327210 -0.196917E-04  0.307E-02    8.12       1.0  T
   4    -50.7327245 -0.348241E-05  0.915E-03    8.12       2.1  T
   5    -50.7327246 -0.111106E-06  0.368E-03    8.12       5.3  T
   6    -50.7327246 -0.140650E-07  0.189E-03    8.12      10.4  T
   7    -50.7327247 -0.670876E-08  0.509E-04    8.12      38.5  T
speedup  0.97
cpu  time for SCC    0.01 s
wall time for SCC    0.01 s
speedup  1.00
cpu  time for grad    0.01 s
wall time for grad    0.01 s
 E :    -50.43787295  G :  0.034538    pred/act E change: -0.149D-02  0.292D-03
Maxdispl :   0.1045   ||displ|| :   0.1876   Lambda : -0.137D-02
Largest |displ|/coords:  0.1045 (   2)  0.0718 (  11)  0.0576 (   5)
................................................................................
.............................. CYCLE   15 ......................................
................................................................................
   1    -50.7315988 -0.507316E+02  0.183E-01    8.10       0.0  T
   2    -50.7316155 -0.167182E-04  0.138E-01    8.10       1.0  T
   3    -50.7316288 -0.133262E-04  0.235E-02    8.09       1.0  T
   4    -50.7316309 -0.203786E-05  0.728E-03    8.09       2.7  T
   5    -50.7316310 -0.821296E-07  0.292E-03    8.09       6.7  T
   6    -50.7316310 -0.112128E-07  0.144E-03    8.09      13.6  T
speedup  1.11
cpu  time for SCC    0.01 s
wall time for SCC    0.01 s
speedup  1.06
cpu  time for grad    0.01 s
wall time for grad    0.01 s
 E :    -50.43865066  G :  0.009601    pred/act E change: -0.577D-03 -0.778D-03
Maxdispl :   0.1597   ||displ|| :   0.2466   Lambda : -0.589D-03
Largest |displ|/coords:  0.1597 (   2)  0.0875 (   8)  0.0796 (   1)
................................................................................
.............................. CYCLE   16 ......................................
................................................................................
   1    -50.7322482 -0.507322E+02  0.149E-01    8.10       0.0  T
   2    -50.7322565 -0.829300E-05  0.111E-01    8.10       1.0  T
   3    -50.7322636 -0.708547E-05  0.194E-02    8.09       1.0  T
   4    -50.7322645 -0.897701E-06  0.565E-03    8.09       3.5  T
   5    -50.7322645 -0.487061E-07  0.236E-03    8.09       8.3  T
   6    -50.7322645 -0.760507E-08  0.121E-03    8.09      16.2  T
speedup  1.11
cpu  time for SCC    0.01 s
wall time for SCC    0.01 s
speedup  1.06
cpu  time for grad    0.01 s
wall time for grad    0.01 s
 E :    -50.43882778  G :  0.013463    pred/act E change: -0.711D-03 -0.177D-03
Maxdispl :   0.1023   ||displ|| :   0.1732   Lambda : -0.380D-03
Largest |displ|/coords:  0.1023 (   1)  0.0920 (   2)  0.0590 (   7)
................................................................................
.............................. CYCLE   17 ......................................
................................................................................
   1    -50.7315980 -0.507316E+02  0.776E-02    8.08       0.0  T
   2    -50.7315999 -0.182748E-05  0.575E-02    8.08       1.0  T
   3    -50.7316017 -0.182559E-05  0.699E-03    8.07       2.8  T
   4    -50.7316018 -0.149073E-06  0.310E-03    8.08       6.3  T
   5    -50.7316018 -0.112331E-07  0.933E-04    8.08      21.0  T
   6    -50.7316018 -0.146505E-08  0.508E-04    8.08      38.6  T
speedup  1.09
cpu  time for SCC    0.01 s
wall time for SCC    0.01 s
speedup  0.98
cpu  time for grad    0.01 s
wall time for grad    0.01 s
 E :    -50.43908687  G :  0.009121    pred/act E change: -0.312D-03 -0.259D-03
Maxdispl :   0.2970   ||displ|| :   0.4426   Lambda : -0.550D-03
Largest |displ|/coords:  0.2970 (   2)  0.2488 (   1)  0.1104 (   7)
................................................................................
.............................. CYCLE   18 ......................................
................................................................................
   1    -50.7316837 -0.507317E+02  0.174E-01    7.99       0.0  T
   2    -50.7316973 -0.135978E-04  0.128E-01    7.98       1.0  T
   3    -50.7317050 -0.765193E-05  0.208E-02    7.98       1.0  T
   4    -50.7317067 -0.174102E-05  0.466E-03    7.97       4.2  T
   5    -50.7317067 -0.201739E-07  0.236E-03    7.97       8.3  T
   6    -50.7317068 -0.594137E-08  0.871E-04    7.97      22.5  T
speedup  0.74
cpu  time for SCC    0.00 s
wall time for SCC    0.01 s
speedup  0.91
cpu  time for grad    0.01 s
wall time for grad    0.01 s
 E :    -50.43931046  G :  0.011065    pred/act E change: -0.196D-03 -0.224D-03
Maxdispl :   0.1647   ||displ|| :   0.2804   Lambda : -0.380D-03
Largest |displ|/coords:  0.1647 (   1)  0.1549 (   2)  0.1021 (   7)
................................................................................
.............................. CYCLE   19 ......................................
................................................................................
   1    -50.7330693 -0.507331E+02  0.113E-01    8.00       0.0  T
   2    -50.7330722 -0.293573E-05  0.836E-02    8.00       1.0  T
   3    -50.7330750 -0.273596E-05  0.109E-02    7.98       1.8  T
   4    -50.7330752 -0.252548E-06  0.358E-03    7.99       5.5  T
   5    -50.7330752 -0.144399E-07  0.121E-03    7.99      16.2  T
   6    -50.7330752 -0.207604E-08  0.595E-04    7.99      32.9  T
speedup  0.91
cpu  time for SCC    0.00 s
wall time for SCC    0.01 s
speedup  0.98
cpu  time for grad    0.01 s
wall time for grad    0.01 s
 E :    -50.43954014  G :  0.007757    pred/act E change: -0.329D-03 -0.230D-03
Maxdispl :   0.2664   ||displ|| :   0.3930   Lambda : -0.361D-03
Largest |displ|/coords:  0.2664 (   1)  0.2165 (   2)  0.0903 (   7)
................................................................................
.............................. CYCLE   20 ......................................
................................................................................
   1    -50.7298765 -0.507299E+02  0.190E-01    7.92       0.0  T
   2    -50.7298832 -0.669799E-05  0.140E-01    7.92       1.0  T
   3    -50.7298888 -0.554728E-05  0.152E-02    7.92       1.3  T
   4    -50.7298894 -0.571373E-06  0.506E-03    7.92       3.9  T
   5    -50.7298894 -0.229909E-07  0.192E-03    7.92      10.2  T
   6    -50.7298894 -0.602346E-08  0.811E-04    7.92      24.2  T
speedup  0.93
cpu  time for SCC    0.00 s
wall time for SCC    0.01 s
speedup  0.97
cpu  time for grad    0.01 s
wall time for grad    0.01 s
 E :    -50.43966404  G :  0.014103    pred/act E change: -0.205D-03 -0.124D-03
Maxdispl :   0.1609   ||displ|| :   0.2488   Lambda : -0.475D-03
Largest |displ|/coords:  0.1609 (   1)  0.1119 (   2)  0.0624 (   6)
................................................................................
.............................. CYCLE   21 ......................................
................................................................................
   1    -50.7345978 -0.507346E+02  0.104E-01    7.90       0.0  T
   2    -50.7346043 -0.645293E-05  0.757E-02    7.88       1.0  T
   3    -50.7346070 -0.275280E-05  0.164E-02    7.86       1.2  T
   4    -50.7346078 -0.806199E-06  0.359E-03    7.87       5.5  T
   5    -50.7346079 -0.222369E-07  0.122E-03    7.87      16.1  T
   6    -50.7346079 -0.198573E-08  0.567E-04    7.87      34.6  T
speedup  0.91
cpu  time for SCC    0.01 s
wall time for SCC    0.01 s
speedup  0.97
cpu  time for grad    0.01 s
wall time for grad    0.01 s
 E :    -50.43980767  G :  0.010760    pred/act E change: -0.209D-03 -0.144D-03
Maxdispl :   0.1479   ||displ|| :   0.2269   Lambda : -0.437D-03
Largest |displ|/coords:  0.1479 (   1)  0.0984 (   2)  0.0576 (   8)
................................................................................
.............................. CYCLE   22 ......................................
................................................................................
   1    -50.7356546 -0.507357E+02  0.133E-01    7.89       0.0  T
   2    -50.7356574 -0.281895E-05  0.986E-02    7.89       1.0  T
   3    -50.7356598 -0.244374E-05  0.102E-02    7.89       1.9  T
   4    -50.7356601 -0.238597E-06  0.352E-03    7.89       5.6  T
   5    -50.7356601 -0.100722E-07  0.126E-03    7.89      15.5  T
   6    -50.7356601 -0.175453E-08  0.504E-04    7.89      38.9  T
speedup  0.93
cpu  time for SCC    0.00 s
wall time for SCC    0.01 s
speedup  0.98
cpu  time for grad    0.01 s
wall time for grad    0.01 s
 E :    -50.44007327  G :  0.006168    pred/act E change: -0.252D-03 -0.266D-03
Maxdispl :   0.2746   ||displ|| :   0.3928   Lambda : -0.278D-03
Largest |displ|/coords:  0.2746 (   1)  0.2197 (   2)  0.0788 (   3)
................................................................................
.............................. CYCLE   23 ......................................
................................................................................
   1    -50.7327080 -0.507327E+02  0.170E-01    7.81       0.0  T
   2    -50.7327133 -0.536512E-05  0.125E-01    7.82       1.0  T
   3    -50.7327174 -0.407033E-05  0.137E-02    7.82       1.4  T
   4    -50.7327179 -0.524605E-06  0.513E-03    7.82       3.8  T
   5    -50.7327180 -0.183569E-07  0.149E-03    7.82      13.2  T
   6    -50.7327180 -0.298904E-08  0.688E-04    7.82      28.5  T
speedup  0.91
cpu  time for SCC    0.00 s
wall time for SCC    0.01 s
speedup  0.97
cpu  time for grad    0.01 s
wall time for grad    0.01 s
 E :    -50.44024361  G :  0.010353    pred/act E change: -0.230D-03 -0.170D-03
Maxdispl :   0.1776   ||displ|| :   0.2438   Lambda : -0.234D-03
Largest |displ|/coords:  0.1776 (   1)  0.0994 (   2)  0.0595 (   7)
................................................................................
.............................. CYCLE   24 ......................................
................................................................................
   1    -50.7342966 -0.507343E+02  0.997E-02    7.88       0.0  T
   2    -50.7342993 -0.267321E-05  0.738E-02    7.87       1.0  T
   3    -50.7343014 -0.210978E-05  0.946E-03    7.87       2.1  T
   4    -50.7343017 -0.277695E-06  0.383E-03    7.87       5.1  T
   5    -50.7343017 -0.165328E-07  0.117E-03    7.87      16.8  T
   6    -50.7343017 -0.212542E-08  0.631E-04    7.87      31.1  T
speedup  0.93
cpu  time for SCC    0.01 s
wall time for SCC    0.01 s
speedup  0.98
cpu  time for grad    0.01 s
wall time for grad    0.01 s
 E :    -50.44039143  G :  0.009578    pred/act E change: -0.160D-03 -0.148D-03
Maxdispl :   0.1971   ||displ|| :   0.3177   Lambda : -0.294D-03
Largest |displ|/coords:  0.1971 (   1)  0.1438 (   2)  0.1061 (   3)
................................................................................
.............................. CYCLE   25 ......................................
................................................................................
   1    -50.7334521 -0.507335E+02  0.158E-01    7.74       0.0  T
   2    -50.7334594 -0.735063E-05  0.116E-01    7.73       1.0  T
   3    -50.7334635 -0.412141E-05  0.197E-02    7.73       1.0  T
   4    -50.7334645 -0.937326E-06  0.593E-03    7.73       3.3  T
   5    -50.7334645 -0.478456E-07  0.172E-03    7.73      11.4  T
   6    -50.7334645 -0.323460E-08  0.891E-04    7.73      22.0  T
speedup  0.94
cpu  time for SCC    0.00 s
wall time for SCC    0.01 s
speedup  0.98
cpu  time for grad    0.01 s
wall time for grad    0.01 s
 E :    -50.44049210  G :  0.010373    pred/act E change: -0.124D-03 -0.101D-03
Maxdispl :   0.1224   ||displ|| :   0.1860   Lambda : -0.194D-03
Largest |displ|/coords:  0.1224 (   1)  0.0924 (   2)  0.0620 (   7)

generating ANC from model Hessian ...
 Shifting diagonal of input Hessian by   5.268332635911656E-003
 Lowest  eigenvalues of input Hessian
    0.005000   -0.000000   -0.000000   -0.000000   -0.000000    0.000000
    0.000000    0.005296    0.005492    0.005943    0.006143    0.006853
    0.006998    0.007276    0.007524    0.008431    0.008668    0.009466
 Highest eigenvalues
    1.387228    1.411409    1.423404    2.509650    3.265373    3.863798
 
cpu  time for ANC gen    0.02 s
wall time for ANC gen    0.02 s
................................................................................
.............................. CYCLE   26 ......................................
................................................................................
   1    -50.7348774 -0.507349E+02  0.936E-02    7.83       0.0  T
   2    -50.7348796 -0.215362E-05  0.688E-02    7.83       1.0  T
   3    -50.7348813 -0.178172E-05  0.747E-03    7.83       2.6  T
   4    -50.7348815 -0.180154E-06  0.283E-03    7.83       6.9  T
   5    -50.7348815 -0.875037E-08  0.979E-04    7.83      20.0  T
   6    -50.7348815 -0.138242E-08  0.458E-04    7.83      42.8  T
speedup  1.09
cpu  time for SCC    0.01 s
wall time for SCC    0.01 s
speedup  1.06
cpu  time for grad    0.01 s
wall time for grad    0.01 s
 E :    -50.44059256  G :  0.005684    pred/act E change:  0.000D+00 -0.100D-03
Maxdispl :   0.0520   ||displ|| :   0.1201   Lambda : -0.202D-03
Largest |displ|/coords:  0.0520 (   2)  0.0484 (   7)  0.0394 (  13)
................................................................................
.............................. CYCLE   27 ......................................
................................................................................
   1    -50.7352990 -0.507353E+02  0.107E-01    7.85       0.0  T
   2    -50.7353007 -0.166911E-05  0.800E-02    7.85       1.0  T
   3    -50.7353028 -0.210827E-05  0.643E-03    7.84       3.0  T
   4    -50.7353029 -0.404415E-07  0.196E-03    7.84      10.0  T
   5    -50.7353029 -0.474196E-08  0.733E-04    7.84      26.7  T
speedup  1.09
cpu  time for SCC    0.00 s
wall time for SCC    0.00 s
speedup  1.04
cpu  time for grad    0.01 s
wall time for grad    0.01 s
 E :    -50.44072028  G :  0.003043    pred/act E change:  0.000D+00 -0.128D-03
Maxdispl :   0.0715   ||displ|| :   0.1787   Lambda : -0.191D-03
Largest |displ|/coords:  0.0715 (   5)  0.0684 (   2)  0.0596 (  15)
................................................................................
.............................. CYCLE   28 ......................................
................................................................................
   1    -50.7349113 -0.507349E+02  0.161E-01    7.85       0.0  T
   2    -50.7349153 -0.405621E-05  0.119E-01    7.85       1.0  T
   3    -50.7349200 -0.466803E-05  0.111E-02    7.85       1.8  T
   4    -50.7349201 -0.123433E-06  0.385E-03    7.85       5.1  T
   5    -50.7349201 -0.132151E-07  0.137E-03    7.85      14.3  T
   6    -50.7349201 -0.267210E-08  0.491E-04    7.85      40.0  T
   7    -50.7349201 -0.529909E-09  0.169E-04    7.85     115.9  T
speedup  0.95
cpu  time for SCC    0.01 s
wall time for SCC    0.01 s
speedup  1.01
cpu  time for grad    0.01 s
wall time for grad    0.01 s
 E :    -50.44081799  G :  0.003115    pred/act E change: -0.103D-03 -0.977D-04
Maxdispl :   0.0420   ||displ|| :   0.1092   Lambda : -0.751D-04
Largest |displ|/coords:  0.0420 (   2)  0.0375 (  13)  0.0362 (   7)
................................................................................
.............................. CYCLE   29 ......................................
................................................................................
   1    -50.7346675 -0.507347E+02  0.885E-02    7.86       0.0  T
   2    -50.7346684 -0.933811E-06  0.657E-02    7.86       1.0  T
   3    -50.7346694 -0.101801E-05  0.551E-03    7.86       3.6  T
   4    -50.7346695 -0.390064E-07  0.216E-03    7.86       9.1  T
   5    -50.7346695 -0.391556E-08  0.633E-04    7.86      31.0  T
   6    -50.7346695 -0.485421E-09  0.259E-04    7.86      75.7  T
speedup  0.91
cpu  time for SCC    0.00 s
wall time for SCC    0.01 s
speedup  1.00
cpu  time for grad    0.01 s
wall time for grad    0.01 s
 E :    -50.44085517  G :  0.003588    pred/act E change: -0.987D-04 -0.372D-04
Maxdispl :   0.0340   ||displ|| :   0.0696   Lambda : -0.446D-04
Largest |displ|/coords:  0.0340 (   6)  0.0312 (   2)  0.0303 (   5)
................................................................................
.............................. CYCLE   30 ......................................
................................................................................
   1    -50.7351420 -0.507351E+02  0.430E-02    7.86       0.0  T
   2    -50.7351423 -0.326325E-06  0.321E-02    7.86       1.0  T
   3    -50.7351426 -0.235035E-06  0.394E-03    7.85       5.0  T
   4    -50.7351426 -0.474405E-07  0.121E-03    7.85      16.2  T
   5    -50.7351426 -0.145139E-08  0.386E-04    7.85      50.8  T
   6    -50.7351426 -0.151488E-09  0.199E-04    7.85      98.8  T
speedup  1.07
cpu  time for SCC    0.01 s
wall time for SCC    0.01 s
speedup  0.99
cpu  time for grad    0.01 s
wall time for grad    0.01 s
 E :    -50.44089048  G :  0.002150    pred/act E change: -0.380D-04 -0.353D-04
Maxdispl :   0.1163   ||displ|| :   0.2124   Lambda : -0.785D-04
Largest |displ|/coords:  0.1163 (   6)  0.0917 (   2)  0.0911 (   5)
................................................................................
.............................. CYCLE   31 ......................................
................................................................................
   1    -50.7345429 -0.507345E+02  0.125E-01    7.85       0.0  T
   2    -50.7345448 -0.187149E-05  0.933E-02    7.85       1.0  T
   3    -50.7345465 -0.172024E-05  0.917E-03    7.85       2.1  T
   4    -50.7345467 -0.189209E-06  0.318E-03    7.85       6.2  T
   5    -50.7345467 -0.962351E-08  0.107E-03    7.85      18.3  T
   6    -50.7345467 -0.129577E-08  0.528E-04    7.85      37.2  T
   7    -50.7345467 -0.650445E-09  0.152E-04    7.85     128.8  T
speedup  1.09
cpu  time for SCC    0.01 s
wall time for SCC    0.01 s
speedup  0.93
cpu  time for grad    0.01 s
wall time for grad    0.01 s
 E :    -50.44094198  G :  0.003653    pred/act E change: -0.224D-04 -0.515D-04
Maxdispl :   0.1200   ||displ|| :   0.1906   Lambda : -0.688D-04
Largest |displ|/coords:  0.1200 (   6)  0.0675 (   3)  0.0635 (   5)
................................................................................
.............................. CYCLE   32 ......................................
................................................................................
   1    -50.7346424 -0.507346E+02  0.103E-01    7.84       0.0  T
   2    -50.7346435 -0.108242E-05  0.766E-02    7.84       1.0  T
   3    -50.7346444 -0.906144E-06  0.680E-03    7.84       2.9  T
   4    -50.7346445 -0.128848E-06  0.246E-03    7.84       8.0  T
   5    -50.7346445 -0.616410E-08  0.821E-04    7.84      23.9  T
   6    -50.7346445 -0.951296E-09  0.436E-04    7.84      45.0  T
speedup  1.07
cpu  time for SCC    0.01 s
wall time for SCC    0.01 s
speedup  1.06
cpu  time for grad    0.01 s
wall time for grad    0.01 s
 E :    -50.44098956  G :  0.004095    pred/act E change: -0.410D-04 -0.476D-04
Maxdispl :   0.1436   ||displ|| :   0.2309   Lambda : -0.812D-04
Largest |displ|/coords:  0.1436 (   6)  0.0836 (   3)  0.0748 (   7)
................................................................................
.............................. CYCLE   33 ......................................
................................................................................
   1    -50.7335473 -0.507335E+02  0.124E-01    7.83       0.0  T
   2    -50.7335482 -0.963865E-06  0.925E-02    7.83       1.0  T
   3    -50.7335493 -0.107075E-05  0.619E-03    7.84       3.2  T
   4    -50.7335494 -0.659095E-07  0.237E-03    7.84       8.3  T
   5    -50.7335494 -0.654443E-08  0.868E-04    7.84      22.6  T
speedup  1.06
cpu  time for SCC    0.00 s
wall time for SCC    0.00 s
speedup  1.02
cpu  time for grad    0.01 s
wall time for grad    0.01 s
 E :    -50.44104339  G :  0.007311    pred/act E change: -0.357D-04 -0.538D-04
Maxdispl :   0.1555   ||displ|| :   0.3078   Lambda : -0.223D-03
Largest |displ|/coords:  0.1555 (   1)  0.1418 (   6)  0.1194 (   3)
................................................................................
.............................. CYCLE   34 ......................................
................................................................................
   1    -50.7351391 -0.507351E+02  0.187E-01    7.86       0.0  T
   2    -50.7351439 -0.480290E-05  0.139E-01    7.86       1.0  T
   3    -50.7351485 -0.465834E-05  0.119E-02    7.85       1.6  T
   4    -50.7351489 -0.378505E-06  0.441E-03    7.85       4.4  T
   5    -50.7351489 -0.210714E-07  0.173E-03    7.85      11.4  T
   6    -50.7351489 -0.470158E-08  0.632E-04    7.85      31.0  T
speedup  1.02
cpu  time for SCC    0.01 s
wall time for SCC    0.01 s
speedup  1.00
cpu  time for grad    0.01 s
wall time for grad    0.01 s
 E :    -50.44112122  G :  0.010308    pred/act E change: -0.428D-04 -0.778D-04
Maxdispl :   0.0293   ||displ|| :   0.0848   Lambda : -0.158D-03
Largest |displ|/coords:  0.0293 (   7)  0.0260 (  17)  0.0236 (  21)
................................................................................
.............................. CYCLE   35 ......................................
................................................................................
   1    -50.7347894 -0.507348E+02  0.699E-02    7.85       0.0  T
   2    -50.7347902 -0.861673E-06  0.517E-02    7.85       1.0  T
   3    -50.7347912 -0.937937E-06  0.447E-03    7.85       4.4  T
   4    -50.7347912 -0.372772E-07  0.190E-03    7.85      10.3  T
   5    -50.7347912 -0.345936E-08  0.559E-04    7.85      35.1  T
speedup  0.87
cpu  time for SCC    0.00 s
wall time for SCC    0.00 s
speedup  0.94
cpu  time for grad    0.01 s
wall time for grad    0.01 s
 E :    -50.44122736  G :  0.004843    pred/act E change: -0.122D-03 -0.106D-03
Maxdispl :   0.1379   ||displ|| :   0.2078   Lambda : -0.152D-03
Largest |displ|/coords:  0.1379 (   6)  0.0674 (   1)  0.0671 (   7)
................................................................................
.............................. CYCLE   36 ......................................
................................................................................
   1    -50.7327424 -0.507327E+02  0.110E-01    7.82       0.0  T
   2    -50.7327437 -0.131586E-05  0.819E-02    7.82       1.0  T
   3    -50.7327447 -0.102459E-05  0.688E-03    7.83       2.8  T
   4    -50.7327449 -0.181096E-06  0.219E-03    7.83       8.9  T
   5    -50.7327449 -0.506845E-08  0.918E-04    7.83      21.4  T
speedup  1.06
cpu  time for SCC    0.00 s
wall time for SCC    0.00 s
speedup  1.02
cpu  time for grad    0.01 s
wall time for grad    0.01 s
 E :    -50.44128932  G :  0.011806    pred/act E change: -0.797D-04 -0.620D-04
Maxdispl :   0.1732   ||displ|| :   0.2872   Lambda : -0.411D-03
Largest |displ|/coords:  0.1732 (   5)  0.1233 (   2)  0.0770 (  14)
................................................................................
.............................. CYCLE   37 ......................................
................................................................................
   1    -50.7373817 -0.507374E+02  0.153E-01    7.84       0.0  T
   2    -50.7373910 -0.924320E-05  0.114E-01    7.82       1.0  T
   3    -50.7373965 -0.548623E-05  0.208E-02    7.80       1.0  T
   4    -50.7373979 -0.146107E-05  0.575E-03    7.81       3.4  T
   5    -50.7373980 -0.381017E-07  0.191E-03    7.81      10.3  T
   6    -50.7373980 -0.426491E-08  0.103E-03    7.81      19.1  T
speedup  0.93
cpu  time for SCC    0.01 s
wall time for SCC    0.01 s
speedup  0.98
cpu  time for grad    0.01 s
wall time for grad    0.01 s
 E :    -50.44131860  G :  0.016641    pred/act E change: -0.795D-04 -0.293D-04
Maxdispl :   0.1147   ||displ|| :   0.1907   Lambda : -0.424D-03
Largest |displ|/coords:  0.1147 (   6)  0.0704 (   1)  0.0636 (   3)
................................................................................
.............................. CYCLE   38 ......................................
................................................................................
   1    -50.7344548 -0.507345E+02  0.130E-01    7.77       0.0  T
   2    -50.7344572 -0.241900E-05  0.962E-02    7.77       1.0  T
   3    -50.7344596 -0.233369E-05  0.790E-03    7.77       2.5  T
   4    -50.7344597 -0.166177E-06  0.278E-03    7.77       7.1  T
   5    -50.7344597 -0.763453E-08  0.112E-03    7.77      17.6  T
speedup  0.85
cpu  time for SCC    0.00 s
wall time for SCC    0.00 s
speedup  1.01
cpu  time for grad    0.01 s
wall time for grad    0.01 s
 E :    -50.44159615  G :  0.007606    pred/act E change: -0.222D-03 -0.278D-03
Maxdispl :   0.1457   ||displ|| :   0.2333   Lambda : -0.228D-03
Largest |displ|/coords:  0.1457 (   6)  0.1125 (   2)  0.0881 (   4)
................................................................................
.............................. CYCLE   39 ......................................
................................................................................
   1    -50.7328681 -0.507329E+02  0.126E-01    7.74       0.0  T
   2    -50.7328700 -0.196915E-05  0.937E-02    7.74       1.0  T
   3    -50.7328719 -0.187950E-05  0.810E-03    7.74       2.4  T
   4    -50.7328721 -0.148501E-06  0.308E-03    7.74       6.4  T
   5    -50.7328721 -0.976937E-08  0.103E-03    7.74      19.0  T
   6    -50.7328721 -0.152370E-08  0.476E-04    7.74      41.2  T
speedup  0.89
cpu  time for SCC    0.01 s
wall time for SCC    0.01 s
speedup  0.95
cpu  time for grad    0.01 s
wall time for grad    0.01 s
 E :    -50.44172953  G :  0.011566    pred/act E change: -0.220D-03 -0.133D-03
Maxdispl :   0.1533   ||displ|| :   0.2081   Lambda : -0.312D-03
Largest |displ|/coords:  0.1533 (   2)  0.0790 (   4)  0.0470 (   6)
................................................................................
.............................. CYCLE   40 ......................................
................................................................................
   1    -50.7355046 -0.507355E+02  0.956E-02    7.77       0.0  T
   2    -50.7355079 -0.321215E-05  0.720E-02    7.77       1.0  T
   3    -50.7355101 -0.220575E-05  0.104E-02    7.75       1.9  T
   4    -50.7355106 -0.530077E-06  0.398E-03    7.76       4.9  T
   5    -50.7355106 -0.206857E-07  0.116E-03    7.76      16.9  T
   6    -50.7355106 -0.185222E-08  0.633E-04    7.76      31.0  T
speedup  0.91
cpu  time for SCC    0.00 s
wall time for SCC    0.01 s
speedup  1.03
cpu  time for grad    0.01 s
wall time for grad    0.01 s
 E :    -50.44190505  G :  0.009022    pred/act E change: -0.120D-03 -0.176D-03
Maxdispl :   0.1920   ||displ|| :   0.3722   Lambda : -0.372D-03
Largest |displ|/coords:  0.1920 (   2)  0.1894 (   4)  0.1863 (   6)
................................................................................
.............................. CYCLE   41 ......................................
................................................................................
   1    -50.7330815 -0.507331E+02  0.181E-01    7.70       0.0  T
   2    -50.7330853 -0.376943E-05  0.136E-01    7.70       1.0  T
   3    -50.7330897 -0.448644E-05  0.129E-02    7.70       1.5  T
   4    -50.7330900 -0.228383E-06  0.446E-03    7.70       4.4  T
   5    -50.7330900 -0.258810E-07  0.158E-03    7.70      12.4  T
   6    -50.7330900 -0.287038E-08  0.877E-04    7.70      22.4  T
speedup  1.13
cpu  time for SCC    0.01 s
wall time for SCC    0.01 s
speedup  1.05
cpu  time for grad    0.01 s
wall time for grad    0.01 s
 E :    -50.44217813  G :  0.011546    pred/act E change: -0.163D-03 -0.273D-03
Maxdispl :   0.2313   ||displ|| :   0.3683   Lambda : -0.490D-03
Largest |displ|/coords:  0.2313 (   4)  0.1696 (   2)  0.1260 (   6)
................................................................................
.............................. CYCLE   42 ......................................
................................................................................
   1    -50.7318315 -0.507318E+02  0.213E-01    7.66       0.0  T
   2    -50.7318385 -0.699629E-05  0.159E-01    7.65       1.0  T
   3    -50.7318460 -0.747866E-05  0.164E-02    7.64       1.2  T
   4    -50.7318466 -0.568029E-06  0.536E-03    7.64       3.7  T
   5    -50.7318466 -0.345085E-07  0.224E-03    7.64       8.8  T
   6    -50.7318466 -0.832340E-08  0.101E-03    7.64      19.4  T
speedup  1.11
cpu  time for SCC    0.01 s
wall time for SCC    0.01 s
speedup  1.04
cpu  time for grad    0.01 s
wall time for grad    0.01 s
 E :    -50.44245823  G :  0.015481    pred/act E change: -0.212D-03 -0.280D-03
Maxdispl :   0.1152   ||displ|| :   0.1764   Lambda : -0.373D-03
Largest |displ|/coords:  0.1152 (   4)  0.0564 (   2)  0.0476 (   6)
................................................................................
.............................. CYCLE   43 ......................................
................................................................................
   1    -50.7342412 -0.507342E+02  0.900E-02    7.65       0.0  T
   2    -50.7342436 -0.239064E-05  0.671E-02    7.65       1.0  T
   3    -50.7342451 -0.152279E-05  0.948E-03    7.64       2.1  T
   4    -50.7342454 -0.360305E-06  0.259E-03    7.64       7.6  T
   5    -50.7342454 -0.114088E-07  0.987E-04    7.64      19.9  T
speedup  1.09
cpu  time for SCC    0.01 s
wall time for SCC    0.00 s
speedup  1.03
cpu  time for grad    0.01 s
wall time for grad    0.01 s
 E :    -50.44272609  G :  0.009746    pred/act E change: -0.278D-03 -0.268D-03
Maxdispl :   0.3032   ||displ|| :   0.4783   Lambda : -0.553D-03
Largest |displ|/coords:  0.3032 (   4)  0.2104 (   6)  0.1887 (   2)
................................................................................
.............................. CYCLE   44 ......................................
................................................................................
   1    -50.7313279 -0.507313E+02  0.217E-01    7.58       0.0  T
   2    -50.7313338 -0.591611E-05  0.162E-01    7.57       1.0  T
   3    -50.7313399 -0.613603E-05  0.148E-02    7.57       1.3  T
   4    -50.7313404 -0.470045E-06  0.460E-03    7.56       4.3  T
   5    -50.7313404 -0.246622E-07  0.206E-03    7.57       9.5  T
   6    -50.7313404 -0.649548E-08  0.998E-04    7.57      19.6  T
speedup  1.09
cpu  time for SCC    0.01 s
wall time for SCC    0.01 s
speedup  0.97
cpu  time for grad    0.01 s
wall time for grad    0.01 s
 E :    -50.44283688  G :  0.020140    pred/act E change: -0.192D-03 -0.111D-03
Maxdispl :   0.1203   ||displ|| :   0.2210   Lambda : -0.925D-03
Largest |displ|/coords:  0.1203 (   5)  0.0968 (   1)  0.0852 (   3)
................................................................................
.............................. CYCLE   45 ......................................
................................................................................
   1    -50.7409223 -0.507409E+02  0.113E-01    7.73       0.0  T
   2    -50.7409338 -0.114957E-04  0.808E-02    7.71       1.0  T
   3    -50.7409375 -0.372645E-05  0.185E-02    7.68       1.1  T
   4    -50.7409389 -0.135126E-05  0.340E-03    7.69       5.8  T
   5    -50.7409389 -0.141534E-07  0.141E-03    7.69      13.9  T
speedup  1.06
cpu  time for SCC    0.01 s
wall time for SCC    0.00 s
speedup  1.04
cpu  time for grad    0.01 s
wall time for grad    0.01 s
 E :    -50.44311017  G :  0.013819    pred/act E change: -0.340D-03 -0.273D-03
Maxdispl :   0.1707   ||displ|| :   0.3214   Lambda : -0.681D-03
Largest |displ|/coords:  0.1707 (   2)  0.1496 (   4)  0.1072 (   9)
................................................................................
.............................. CYCLE   46 ......................................
................................................................................
   1    -50.7339451 -0.507339E+02  0.227E-01    7.61       0.0  T
   2    -50.7339571 -0.120528E-04  0.170E-01    7.61       1.0  T
   3    -50.7339693 -0.122232E-04  0.208E-02    7.62       1.0  T
   4    -50.7339704 -0.109418E-05  0.642E-03    7.61       3.1  T
   5    -50.7339705 -0.539083E-07  0.284E-03    7.61       6.9  T
   6    -50.7339705 -0.124677E-07  0.131E-03    7.61      15.0  T
speedup  0.89
cpu  time for SCC    0.00 s
wall time for SCC    0.01 s
speedup  0.96
cpu  time for grad    0.01 s
wall time for grad    0.01 s
 E :    -50.44319176  G :  0.021116    pred/act E change: -0.485D-03 -0.816D-04
Maxdispl :   0.0704   ||displ|| :   0.1738   Lambda : -0.664D-03
Largest |displ|/coords:  0.0704 (   7)  0.0658 (   5)  0.0607 (   2)
................................................................................
.............................. CYCLE   47 ......................................
................................................................................
   1    -50.7339158 -0.507339E+02  0.129E-01    7.61       0.0  T
   2    -50.7339245 -0.874844E-05  0.963E-02    7.61       1.0  T
   3    -50.7339305 -0.596069E-05  0.166E-02    7.61       1.2  T
   4    -50.7339317 -0.115300E-05  0.501E-03    7.61       3.9  T
   5    -50.7339317 -0.352265E-07  0.203E-03    7.61       9.7  T
speedup  1.06
cpu  time for SCC    0.00 s
wall time for SCC    0.00 s
speedup  1.02
cpu  time for grad    0.01 s
wall time for grad    0.01 s
 E :    -50.44339438  G :  0.013340    pred/act E change: -0.376D-03 -0.203D-03
Maxdispl :   0.0879   ||displ|| :   0.1635   Lambda : -0.516D-03
Largest |displ|/coords:  0.0879 (   2)  0.0715 (  10)  0.0563 (  18)
................................................................................
.............................. CYCLE   48 ......................................
................................................................................
   1    -50.7359633 -0.507360E+02  0.161E-01    7.62       0.0  T
   2    -50.7359699 -0.655172E-05  0.118E-01    7.61       1.0  T
   3    -50.7359750 -0.508556E-05  0.124E-02    7.60       1.6  T
   4    -50.7359755 -0.545597E-06  0.427E-03    7.60       4.6  T
   5    -50.7359755 -0.155318E-07  0.151E-03    7.60      13.0  T
   6    -50.7359755 -0.292895E-08  0.547E-04    7.60      35.9  T
speedup  0.89
cpu  time for SCC    0.01 s
wall time for SCC    0.01 s
speedup  0.94
cpu  time for grad    0.01 s
wall time for grad    0.01 s
 E :    -50.44327165  G :  0.022511    pred/act E change: -0.342D-03  0.123D-03
Maxdispl :   0.0617   ||displ|| :   0.1347   Lambda : -0.640D-03
Largest |displ|/coords:  0.0617 (   1)  0.0494 (   5)  0.0481 (  18)
................................................................................
.............................. CYCLE   49 ......................................
................................................................................
   1    -50.7361935 -0.507362E+02  0.120E-01    7.64       0.0  T
   2    -50.7361967 -0.322365E-05  0.883E-02    7.64       1.0  T
   3    -50.7361998 -0.312635E-05  0.855E-03    7.63       2.3  T
   4    -50.7362000 -0.142908E-06  0.328E-03    7.63       6.0  T
   5    -50.7362000 -0.968984E-08  0.102E-03    7.63      19.3  T
speedup  1.09
cpu  time for SCC    0.00 s
wall time for SCC    0.00 s
speedup  1.02
cpu  time for grad    0.01 s
wall time for grad    0.01 s
 E :    -50.44361086  G :  0.004777    pred/act E change: -0.265D-03 -0.339D-03
Maxdispl :   0.0794   ||displ|| :   0.1497   Lambda : -0.105D-03
Largest |displ|/coords:  0.0794 (   4)  0.0459 (   2)  0.0419 (  54)
................................................................................
.............................. CYCLE   50 ......................................
................................................................................
   1    -50.7345576 -0.507346E+02  0.850E-02    7.62       0.0  T
   2    -50.7345585 -0.911423E-06  0.636E-02    7.62       1.0  T
   3    -50.7345593 -0.842711E-06  0.643E-03    7.62       3.0  T
   4    -50.7345594 -0.987401E-07  0.195E-03    7.62      10.1  T
   5    -50.7345594 -0.429770E-08  0.749E-04    7.62      26.2  T
speedup  1.04
cpu  time for SCC    0.00 s
wall time for SCC    0.00 s
speedup  1.01
cpu  time for grad    0.01 s
wall time for grad    0.01 s
 E :    -50.44367664  G :  0.006716    pred/act E change: -0.326D-03 -0.658D-04
Maxdispl :   0.0568   ||displ|| :   0.1590   Lambda : -0.130D-03
Largest |displ|/coords:  0.0568 (  11)  0.0553 (   4)  0.0541 (   5)
................................................................................
.............................. CYCLE   51 ......................................
................................................................................
   1    -50.7355062 -0.507355E+02  0.108E-01    7.65       0.0  T
   2    -50.7355075 -0.132376E-05  0.812E-02    7.65       1.0  T
   3    -50.7355088 -0.132462E-05  0.783E-03    7.65       2.5  T
   4    -50.7355090 -0.126215E-06  0.281E-03    7.65       7.0  T
   5    -50.7355090 -0.661823E-08  0.933E-04    7.65      21.0  T
speedup  0.85
cpu  time for SCC    0.00 s
wall time for SCC    0.00 s
speedup  0.94
cpu  time for grad    0.01 s
wall time for grad    0.01 s
 E :    -50.44376809  G :  0.006193    pred/act E change: -0.539D-04 -0.914D-04
Maxdispl :   0.1534   ||displ|| :   0.3301   Lambda : -0.168D-03
Largest |displ|/coords:  0.1534 (   4)  0.1156 (   5)  0.1049 (   2)
................................................................................
.............................. CYCLE   52 ......................................
................................................................................
   1    -50.7334572 -0.507335E+02  0.211E-01    7.66       0.0  T
   2    -50.7334618 -0.457765E-05  0.158E-01    7.66       1.0  T
   3    -50.7334671 -0.534540E-05  0.140E-02    7.65       1.4  T
   4    -50.7334674 -0.308622E-06  0.498E-03    7.65       3.9  T
   5    -50.7334675 -0.288509E-07  0.188E-03    7.65      10.4  T
   6    -50.7334675 -0.452314E-08  0.103E-03    7.65      19.0  T
speedup  0.91
cpu  time for SCC    0.00 s
wall time for SCC    0.01 s
speedup  0.97
cpu  time for grad    0.01 s
wall time for grad    0.01 s
 E :    -50.44378535  G :  0.012235    pred/act E change: -0.669D-04 -0.173D-04
Maxdispl :   0.0741   ||displ|| :   0.1192   Lambda : -0.258D-03
Largest |displ|/coords:  0.0741 (   4)  0.0517 (   3)  0.0349 (  16)

generating ANC from model Hessian ...
 Shifting diagonal of input Hessian by   4.839105521589412E-003
 Lowest  eigenvalues of input Hessian
   -0.000000   -0.000000   -0.000000   -0.000000   -0.000000    0.000000
    0.005000    0.005024    0.005351    0.005981    0.006292    0.006736
    0.007414    0.007749    0.008128    0.008377    0.009059    0.009650
 Highest eigenvalues
    1.377993    1.411240    1.418500    2.566465    3.295426    3.876053
 
cpu  time for ANC gen    0.02 s
wall time for ANC gen    0.03 s
................................................................................
.............................. CYCLE   53 ......................................
................................................................................
   1    -50.7382733 -0.507383E+02  0.711E-02    7.70       0.0  T
   2    -50.7382754 -0.214597E-05  0.526E-02    7.70       1.0  T
   3    -50.7382771 -0.165400E-05  0.843E-03    7.69       2.3  T
   4    -50.7382773 -0.233298E-06  0.241E-03    7.70       8.1  T
   5    -50.7382773 -0.107969E-07  0.997E-04    7.70      19.7  T
   6    -50.7382773 -0.149460E-08  0.498E-04    7.70      39.4  T
speedup  1.09
cpu  time for SCC    0.01 s
wall time for SCC    0.01 s
speedup  1.05
cpu  time for grad    0.01 s
wall time for grad    0.01 s
 E :    -50.44388816  G :  0.006503    pred/act E change:  0.000D+00 -0.103D-03
Maxdispl :   0.0391   ||displ|| :   0.0729   Lambda : -0.834D-04
Largest |displ|/coords:  0.0391 (   8)  0.0330 (   2)  0.0258 (   1)
................................................................................
.............................. CYCLE   54 ......................................
................................................................................
   1    -50.7376407 -0.507376E+02  0.475E-02    7.67       0.0  T
   2    -50.7376411 -0.446097E-06  0.355E-02    7.67       1.0  T
   3    -50.7376415 -0.430057E-06  0.370E-03    7.67       5.3  T
   4    -50.7376416 -0.397966E-07  0.123E-03    7.67      15.9  T
   5    -50.7376416 -0.212005E-08  0.448E-04    7.67      43.8  T
speedup  1.06
cpu  time for SCC    0.00 s
wall time for SCC    0.00 s
speedup  1.02
cpu  time for grad    0.01 s
wall time for grad    0.01 s
 E :    -50.44394910  G :  0.002838    pred/act E change:  0.000D+00 -0.609D-04
Maxdispl :   0.0680   ||displ|| :   0.1370   Lambda : -0.837D-04
Largest |displ|/coords:  0.0680 (   7)  0.0612 (   2)  0.0586 (   1)
................................................................................
.............................. CYCLE   55 ......................................
................................................................................
   1    -50.7363709 -0.507364E+02  0.883E-02    7.63       0.0  T
   2    -50.7363721 -0.119481E-05  0.657E-02    7.63       1.0  T
   3    -50.7363732 -0.104928E-05  0.601E-03    7.64       3.3  T
   4    -50.7363733 -0.120916E-06  0.202E-03    7.63       9.7  T
   5    -50.7363733 -0.516982E-08  0.823E-04    7.63      23.8  T
   6    -50.7363733 -0.117778E-08  0.304E-04    7.63      64.4  T
speedup  1.09
cpu  time for SCC    0.01 s
wall time for SCC    0.01 s
speedup  0.99
cpu  time for grad    0.01 s
wall time for grad    0.01 s
 E :    -50.44398932  G :  0.004281    pred/act E change: -0.419D-04 -0.402D-04
Maxdispl :   0.0256   ||displ|| :   0.0418   Lambda : -0.255D-04
Largest |displ|/coords:  0.0256 (   2)  0.0162 (   8)  0.0121 (   1)
................................................................................
.............................. CYCLE   56 ......................................
................................................................................
   1    -50.7365708 -0.507366E+02  0.289E-02    7.63       0.0  T
   2    -50.7365710 -0.133466E-06  0.217E-02    7.63       1.0  T
   3    -50.7365711 -0.154473E-06  0.208E-03    7.63       9.5  T
   4    -50.7365711 -0.807856E-08  0.793E-04    7.63      24.7  T
speedup  1.08
cpu  time for SCC    0.00 s
wall time for SCC    0.00 s
speedup  1.03
cpu  time for grad    0.01 s
wall time for grad    0.01 s
 E :    -50.44400809  G :  0.002940    pred/act E change: -0.426D-04 -0.188D-04
Maxdispl :   0.0419   ||displ|| :   0.0792   Lambda : -0.351D-04
Largest |displ|/coords:  0.0419 (   2)  0.0304 (   1)  0.0297 (   7)
................................................................................
.............................. CYCLE   57 ......................................
................................................................................
   1    -50.7369927 -0.507370E+02  0.558E-02    7.64       0.0  T
   2    -50.7369931 -0.458079E-06  0.417E-02    7.64       1.0  T
   3    -50.7369936 -0.475078E-06  0.416E-03    7.63       4.7  T
   4    -50.7369936 -0.351881E-07  0.148E-03    7.64      13.2  T
   5    -50.7369936 -0.231051E-08  0.481E-04    7.64      40.8  T
   6    -50.7369936 -0.357304E-09  0.268E-04    7.64      73.2  T
speedup  0.93
cpu  time for SCC    0.00 s
wall time for SCC    0.01 s
speedup  1.00
cpu  time for grad    0.01 s
wall time for grad    0.01 s
 E :    -50.44402820  G :  0.001434    pred/act E change: -0.128D-04 -0.201D-04
Maxdispl :   0.0415   ||displ|| :   0.0802   Lambda : -0.159D-04
Largest |displ|/coords:  0.0415 (   2)  0.0359 (   7)  0.0321 (   1)
................................................................................
.............................. CYCLE   58 ......................................
................................................................................
   1    -50.7368118 -0.507368E+02  0.559E-02    7.63       0.0  T
   2    -50.7368121 -0.284866E-06  0.417E-02    7.63       1.0  T
   3    -50.7368124 -0.336549E-06  0.331E-03    7.63       5.9  T
   4    -50.7368124 -0.114354E-07  0.893E-04    7.63      22.0  T
   5    -50.7368125 -0.115741E-08  0.432E-04    7.63      45.4  T
speedup  1.09
cpu  time for SCC    0.00 s
wall time for SCC    0.00 s
speedup  0.99
cpu  time for grad    0.01 s
wall time for grad    0.01 s
 E :    -50.44403539  G :  0.001529    pred/act E change: -0.177D-04 -0.720D-05
Maxdispl :   0.0083   ||displ|| :   0.0224   Lambda : -0.604D-05
Largest |displ|/coords:  0.0083 (   7)  0.0081 (   4)  0.0079 (   2)
................................................................................
.............................. CYCLE   59 ......................................
................................................................................
   1    -50.7371174 -0.507371E+02  0.160E-02    7.65       0.0  T
   2    -50.7371175 -0.532797E-07  0.120E-02    7.65       1.6  T
   3    -50.7371175 -0.483333E-07  0.148E-03    7.65      13.3  T
   4    -50.7371175 -0.590794E-08  0.616E-04    7.65      31.8  T
   5    -50.7371175 -0.397925E-09  0.159E-04    7.65     123.6  T
speedup  1.09
cpu  time for SCC    0.00 s
wall time for SCC    0.00 s
speedup  0.98
cpu  time for grad    0.01 s
wall time for grad    0.01 s
 E :    -50.44403964  G :  0.000903    pred/act E change: -0.798D-05 -0.425D-05
Maxdispl :   0.0187   ||displ|| :   0.0292   Lambda : -0.512D-05
Largest |displ|/coords:  0.0187 (   4)  0.0126 (   8)  0.0082 (   7)
................................................................................
.............................. CYCLE   60 ......................................
................................................................................
   1    -50.7377142 -0.507377E+02  0.175E-02    7.66       0.0  T
   2    -50.7377143 -0.738326E-07  0.130E-02    7.66       1.5  T
   3    -50.7377143 -0.519325E-07  0.181E-03    7.66      10.8  T
   4    -50.7377143 -0.971320E-08  0.806E-04    7.66      24.3  T
   5    -50.7377143 -0.593261E-09  0.168E-04    7.66     116.7  T
speedup  1.04
cpu  time for SCC    0.00 s
wall time for SCC    0.00 s
speedup  1.04
cpu  time for grad    0.01 s
wall time for grad    0.01 s
 E :    -50.44404254  G :  0.000835    pred/act E change: -0.302D-05 -0.290D-05
Maxdispl :   0.0143   ||displ|| :   0.0276   Lambda : -0.221D-05
Largest |displ|/coords:  0.0143 (   4)  0.0119 (   7)  0.0108 (   2)
................................................................................
.............................. CYCLE   61 ......................................
................................................................................
   1    -50.7376574 -0.507377E+02  0.183E-02    7.66       0.0  T
   2    -50.7376574 -0.571883E-07  0.137E-02    7.66       1.4  T
   3    -50.7376575 -0.553440E-07  0.157E-03    7.66      12.5  T
   4    -50.7376575 -0.549979E-08  0.647E-04    7.66      30.3  T
   5    -50.7376575 -0.405613E-09  0.157E-04    7.66     125.2  T
speedup  0.87
cpu  time for SCC    0.00 s
wall time for SCC    0.00 s
speedup  0.98
cpu  time for grad    0.01 s
wall time for grad    0.01 s
 E :    -50.44404400  G :  0.000644    pred/act E change: -0.256D-05 -0.146D-05
Maxdispl :   0.0171   ||displ|| :   0.0277   Lambda : -0.229D-05
Largest |displ|/coords:  0.0171 (   4)  0.0130 (   8)  0.0077 (   7)
................................................................................
.............................. CYCLE   62 ......................................
................................................................................
   1    -50.7377018 -0.507377E+02  0.177E-02    7.66       0.0  T
   2    -50.7377019 -0.607308E-07  0.133E-02    7.66       1.5  T
   3    -50.7377019 -0.484471E-07  0.164E-03    7.66      12.0  T
   4    -50.7377019 -0.783561E-08  0.692E-04    7.66      28.3  T
   5    -50.7377019 -0.393101E-09  0.131E-04    7.66     149.2  T
speedup  1.06
cpu  time for SCC    0.00 s
wall time for SCC    0.00 s
speedup  0.98
cpu  time for grad    0.01 s
wall time for grad    0.01 s
 E :    -50.44404562  G :  0.000574    pred/act E change: -0.111D-05 -0.162D-05
Maxdispl :   0.0160   ||displ|| :   0.0267   Lambda : -0.191D-05
Largest |displ|/coords:  0.0160 (   4)  0.0120 (   8)  0.0075 (   1)
................................................................................
.............................. CYCLE   63 ......................................
................................................................................
   1    -50.7375655 -0.507376E+02  0.172E-02    7.66       0.0  T
   2    -50.7375655 -0.562367E-07  0.129E-02    7.66       1.5  T
   3    -50.7375656 -0.473277E-07  0.144E-03    7.66      13.6  T
   4    -50.7375656 -0.692891E-08  0.567E-04    7.66      34.6  T
   5    -50.7375656 -0.292715E-09  0.132E-04    7.66     148.8  T
speedup  1.06
cpu  time for SCC    0.00 s
wall time for SCC    0.00 s
speedup  1.04
cpu  time for grad    0.01 s
wall time for grad    0.01 s
 E :    -50.44404687  G :  0.000402    pred/act E change: -0.114D-05 -0.125D-05
Maxdispl :   0.0076   ||displ|| :   0.0162   Lambda : -0.100D-05
Largest |displ|/coords:  0.0076 (   8)  0.0074 (   1)  0.0050 (  11)
................................................................................
.............................. CYCLE   64 ......................................
................................................................................
   1    -50.7374974 -0.507375E+02  0.114E-02    7.66       0.0  T
   2    -50.7374974 -0.215186E-07  0.862E-03    7.66       2.3  T
   3    -50.7374974 -0.231545E-07  0.773E-04    7.66      25.4  T
   4    -50.7374974 -0.153711E-08  0.336E-04    7.66      58.3  T
speedup  1.05
cpu  time for SCC    0.00 s
wall time for SCC    0.00 s
speedup  0.97
cpu  time for grad    0.01 s
wall time for grad    0.01 s
 E :    -50.44404762  G :  0.000429    pred/act E change: -0.956D-06 -0.749D-06
Maxdispl :   0.0076   ||displ|| :   0.0185   Lambda : -0.115D-05
Largest |displ|/coords:  0.0076 (   1)  0.0073 (   6)  0.0064 (   8)
................................................................................
.............................. CYCLE   65 ......................................
................................................................................
   1    -50.7374277 -0.507374E+02  0.130E-02    7.65       0.0  T
   2    -50.7374277 -0.251456E-07  0.984E-03    7.65       2.0  T
   3    -50.7374277 -0.299869E-07  0.812E-04    7.65      24.2  T
   4    -50.7374277 -0.131931E-08  0.323E-04    7.65      60.8  T
speedup  1.08
cpu  time for SCC    0.00 s
wall time for SCC    0.00 s
speedup  1.06
cpu  time for grad    0.01 s
wall time for grad    0.01 s
 E :    -50.44404848  G :  0.000468    pred/act E change: -0.500D-06 -0.860D-06
Maxdispl :   0.0074   ||displ|| :   0.0169   Lambda : -0.904D-06
Largest |displ|/coords:  0.0074 (   6)  0.0066 (  11)  0.0054 (   1)
................................................................................
.............................. CYCLE   66 ......................................
................................................................................
   1    -50.7374313 -0.507374E+02  0.113E-02    7.65       0.0  T
   2    -50.7374313 -0.205410E-07  0.853E-03    7.65       2.3  T
   3    -50.7374313 -0.246657E-07  0.793E-04    7.65      24.7  T
   4    -50.7374313 -0.112843E-08  0.266E-04    7.65      73.7  T
speedup  1.05
cpu  time for SCC    0.00 s
wall time for SCC    0.00 s
speedup  0.97
cpu  time for grad    0.01 s
wall time for grad    0.01 s
 E :    -50.44404914  G :  0.000406    pred/act E change: -0.578D-06 -0.660D-06
Maxdispl :   0.0054   ||displ|| :   0.0126   Lambda : -0.590D-06
Largest |displ|/coords:  0.0054 (  11)  0.0053 (   6)  0.0042 (  10)
................................................................................
.............................. CYCLE   67 ......................................
................................................................................
   1    -50.7374701 -0.507375E+02  0.805E-03    7.66       0.0  T
   2    -50.7374701 -0.109968E-07  0.607E-03    7.66       3.2  T
   3    -50.7374701 -0.138456E-07  0.636E-04    7.66      30.9  T
   4    -50.7374701 -0.489486E-09  0.162E-04    7.66     121.2  T
speedup  1.03
cpu  time for SCC    0.00 s
wall time for SCC    0.00 s
speedup  1.04
cpu  time for grad    0.01 s
wall time for grad    0.01 s
 E :    -50.44404956  G :  0.000297    pred/act E change: -0.452D-06 -0.426D-06
Maxdispl :   0.0054   ||displ|| :   0.0097   Lambda : -0.372D-06
Largest |displ|/coords:  0.0054 (  11)  0.0036 (   4)  0.0035 (  10)
................................................................................
.............................. CYCLE   68 ......................................
................................................................................
   1    -50.7375116 -0.507375E+02  0.644E-03    7.66       0.0  T
   2    -50.7375116 -0.737288E-08  0.483E-03    7.66       4.1  T
   3    -50.7375116 -0.872537E-08  0.607E-04    7.66      32.3  T
   4    -50.7375116 -0.393356E-09  0.138E-04    7.66     142.1  T
speedup  1.05
cpu  time for SCC    0.00 s
wall time for SCC    0.00 s
speedup  0.96
cpu  time for grad    0.01 s
wall time for grad    0.01 s
 E :    -50.44404981  G :  0.000223    pred/act E change: -0.295D-06 -0.252D-06
Maxdispl :   0.0032   ||displ|| :   0.0054   Lambda : -0.174D-06
Largest |displ|/coords:  0.0032 (  11)  0.0019 (   4)  0.0019 (  10)
................................................................................
.............................. CYCLE   69 ......................................
................................................................................
   1    -50.7375245 -0.507375E+02  0.372E-03    7.66       0.0  T
   2    -50.7375245 -0.272334E-08  0.276E-03    7.66       7.1  T
   3    -50.7375245 -0.250743E-08  0.417E-04    7.66      47.0  T
   4    -50.7375245 -0.248171E-09  0.120E-04    7.66     163.1  T
speedup  0.79
cpu  time for SCC    0.00 s
wall time for SCC    0.00 s
speedup  0.97
cpu  time for grad    0.01 s
wall time for grad    0.01 s
 E :    -50.44404994  G :  0.000173    pred/act E change: -0.186D-06 -0.122D-06
Maxdispl :   0.0035   ||displ|| :   0.0043   Lambda : -0.958D-07
Largest |displ|/coords:  0.0035 (  11)  0.0010 (  10)  0.0008 (  12)
................................................................................
.............................. CYCLE   70 ......................................
................................................................................
   1    -50.7375158 -0.507375E+02  0.321E-03    7.66       0.0  T
   2    -50.7375158 -0.217883E-08  0.238E-03    7.66       8.2  T
   3    -50.7375158 -0.165490E-08  0.377E-04    7.66      52.0  T
   4    -50.7375158 -0.252264E-09  0.129E-04    7.66     151.9  T
speedup  1.05
cpu  time for SCC    0.00 s
wall time for SCC    0.00 s
speedup  0.97
cpu  time for grad    0.01 s
wall time for grad    0.01 s
 E :    -50.44405000  G :  0.000123    pred/act E change: -0.871D-07 -0.668D-07
Maxdispl :   0.0026   ||displ|| :   0.0036   Lambda : -0.605D-07
Largest |displ|/coords:  0.0026 (  11)  0.0010 (  14)  0.0009 (  12)

   *** GEOMETRY OPTIMIZATION CONVERGED AFTER 70 ITERATIONS ***

------------------------------------------------------------------------
 total energy gain (kcal):     -0.1016
------------------------------------------------------------------------
================
 final structure:
================
$coord
        0.20326957226562       -4.48542042073871       -0.48724186261957      S 
        1.56194140948778       -2.82034695851869        1.18637432642905      O 
        0.07621902976100       -7.06390309153699        0.20742528426304      O 
       -2.49596249132433       -3.35216541074171       -0.87609900469152      O 
        1.29323579142999       -4.23244224497019       -3.18493700192756      O 
        0.95373702161272       -2.45861761523978       -3.69407269501860      H 
       -3.00908623831867       -2.29249599478750        0.60304108531294      H 
       -3.87240530989087       -0.39163295498008        2.74846446665929      O 
       -5.01138279806985       -1.14484562584241        3.93755854927661      H 
       -0.00201900502520        0.33940402425194       -4.49856400355833      O 
       -0.91797452584794        1.25817870198774       -3.18072200767229      H 
       -1.18064323845720        0.07443492856061       -5.85124486513338      H 
       -2.91707318707665        2.91743767946218       -1.08685299781222      O 
       -4.35500899021156        3.93561932195634       -1.50634105753951      H 
       -3.42906314531776        1.80891937649946        0.29107724797745      H 
        1.44506370537623        4.40200277260740        1.82437111023352      O 
       -0.00463186194917        4.34993892987093        0.71995338657536      H 
        2.79493276740988        3.53098740613200        0.88051702863246      H 
        0.31015097608398        0.56731702006993        4.84502367097094      O 
       -2.23973619218898        0.02714560662304        3.73381809101114      H 
        1.22217011729872       -0.74838942645944        3.95154665217049      H 
        0.82794702675795        2.16434423842047        4.00960022358357      H 
        4.51120192876515        1.33013908496825       -0.90073587369223      N 
        4.03790357444035        1.34059407175521       -2.75531929764020      H 
        3.78105873717028       -0.27756516883370       -0.13745487502555      H 
        6.41615538261133        1.22136176815321       -0.77918558068918      H 
$end
 
 Bond Distances (Angstroems)
 ---------------------------
S1-O2=1.4414         S1-O3=1.4147         S1-O4=1.5628         S1-O5=1.5455         O2-S1=1.4414         O3-S1=1.4147         
O4-S1=1.5628         O4-H7=1.0004         O5-S1=1.5455         O5-H6=0.9930         H6-O5=0.9930         H7-O4=1.0004         
O8-H9=0.9582         O8-H20=1.0332        H9-O8=0.9582         O10-H11=0.9786       O10-H12=0.9597       H11-O10=0.9786       
H12-O10=0.9597       O13-H14=0.9584       O13-H15=0.9743       H14-O13=0.9584       H15-O13=0.9743       O16-H17=0.9648       
O16-H18=0.9860       H17-O16=0.9648       H18-O16=0.9860       O19-H21=0.9702       O19-H22=0.9923       H20-O8=1.0332        
H21-O19=0.9702       H22-O19=0.9923       N23-H24=1.0129       N23-H25=1.0180       N23-H26=1.0117       H24-N23=1.0129       
H25-N23=1.0180       H26-N23=1.0117       
 N  H  Rav=1.0142 sigma=0.0027  Rmin=1.0117  Rmax=1.0180     3
 O  H  Rav=0.9807 sigma=0.0210  Rmin=0.9582  Rmax=1.0332    12
 S  O  Rav=1.4911 sigma=0.0640  Rmin=1.4147  Rmax=1.5628     4
 
 selected bond angles (degree)
 --------------------
O3-S1-O2=116.98                O4-S1-O2=107.59                O4-S1-O3=111.15                O5-S1-O2=109.17                
O5-S1-O3=109.96                O5-S1-O4=100.73                H7-O4-S1=111.11                H6-O5-S1=105.37                
H20-O8-H9=106.49               H12-O10-H11=106.39             
 
 selected dihedral angles (degree)
 ---------------------------------
H7-O4-S1-O2=333.64            H7-O4-S1-O3=102.91            H7-O4-S1-O5=219.39            H6-O5-S1-O2=296.61            
H6-O5-S1-O3=167.03            H6-O5-S1-O4= 49.66            
 
 CMA Distance (Angstroems)
 ---------------------------
R(CMA):  3.1667

========================================================================
 FINAL SINGLEPOINT CALCULATION ON OPTIMIZED GEOMETRY
========================================================================

 Ncao       : 65
 Nao        : 64
 Nshell     : 38
 Nel        : 80
 T(el)      :   300.0
 intcut     :    25.0
 scfconv/Eh :  0.100E-05
   qconv/e  :  0.100E-03
 intneglect :  0.100E-07
 broydamp   :      0.250
 iter      E             dE          RMSdq      gap      omega  full diag
   1    -50.7375158 -0.507375E+02  0.535E-05    7.66       0.0  T
   2    -50.7375158 -0.164846E-11  0.340E-05    7.66     577.1  T
   3    -50.7375158 -0.859757E-12  0.595E-06    7.66    3296.9  T
speedup  1.07
cpu  time for SCC    0.00 s
wall time for SCC    0.00 s

   *** convergence criteria satisfied after 3 iterations ***

          eigenvalues
 #    :          28         29         30         31         32         33         34         35
 occ. :        2.000      2.000      2.000      2.000      2.000      2.000      2.000      2.000
 eps  :       -13.599    -13.422    -13.116    -12.947    -12.858    -12.791    -12.712    -12.611
 #    :          36         37         38         39         40         41         42         43
 occ. :        2.000      2.000      2.000      2.000      2.000      0.000      0.000      0.000
 eps  :       -12.431    -12.122    -11.883    -11.488    -10.756     -3.096     -1.039     -0.966
 #    :          44         45         46         47         48         49         50         51
 occ. :        0.000      0.000      0.000      0.000      0.000      0.000      0.000      0.000
 eps  :        -0.056      0.876      1.074      1.654      2.757      3.432      4.856      5.239


   #   Z            q   n(s)   n(p)   n(d)      C6AA      α(0)
   1  16 S      1.677  1.578  1.793  0.952    89.295    15.904
   2   8 O     -0.713  1.756  4.958  0.000    29.073     7.229
   3   8 O     -0.637  1.752  4.885  0.000    27.056     6.974
   4   8 O     -0.625  1.754  4.871  0.000    25.761     6.852
   5   8 O     -0.594  1.752  4.842  0.000    25.005     6.750
   6   1 H      0.387  0.613  0.000  0.000     0.504     1.112
   7   1 H      0.387  0.613  0.000  0.000     0.508     1.118
   8   8 O     -0.656  1.764  4.892  0.000    26.572     6.957
   9   1 H      0.294  0.706  0.000  0.000     0.738     1.349
  10   8 O     -0.604  1.747  4.857  0.000    25.281     6.786
  11   1 H      0.344  0.656  0.000  0.000     0.602     1.219
  12   1 H      0.299  0.701  0.000  0.000     0.725     1.337
  13   8 O     -0.611  1.740  4.871  0.000    25.445     6.808
  14   1 H      0.292  0.708  0.000  0.000     0.745     1.356
  15   1 H      0.339  0.661  0.000  0.000     0.615     1.232
  16   8 O     -0.624  1.758  4.866  0.000    25.775     6.852
  17   1 H      0.298  0.702  0.000  0.000     0.727     1.340
  18   1 H      0.314  0.686  0.000  0.000     0.680     1.295
  19   8 O     -0.618  1.761  4.856  0.000    25.604     6.830
  20   1 H      0.356  0.644  0.000  0.000     0.574     1.190
  21   1 H      0.320  0.680  0.000  0.000     0.664     1.280
  22   1 H      0.340  0.660  0.000  0.000     0.613     1.230
  23   7 N     -0.460  1.375  4.085  0.000    32.121     8.417
  24   1 H      0.162  0.838  0.000  0.000     1.324     1.802
  25   1 H      0.184  0.816  0.000  0.000     1.190     1.709
  26   1 H      0.149  0.851  0.000  0.000     1.407     1.858

 Mol. C6AA /au·bohr⁶  :       5450.296011
 Mol. C8AA /au·bohr⁸  :     117696.002505
 Mol. α(0) /au        :        106.786340

 
 Wiberg/Mayer (AO) data. WBOs > 0.1 written file <wbo>
 largest (>0.05) Wiberg bond orders for each atom
           total WBO             WBO to atom ...
     1  S   4.871    O    3 1.512    O    2 1.360    O    5 1.000    O    4 0.965
     2  O   1.738    S    1 1.360    O    3 0.126    O    4 0.090    O    5 0.086
     3  O   1.821    S    1 1.512    O    2 0.126    O    4 0.089    O    5 0.079
     4  O   1.958    S    1 0.965    H    7 0.712    O    2 0.090    O    3 0.089    O    5 0.055
     5  O   1.997    S    1 1.000    H    6 0.730    O    2 0.086    O    3 0.079    O    4 0.055
     6  H   0.850    O    5 0.730    O   10 0.101
     7  H   0.851    O    4 0.712    O    8 0.119
     8  O   1.897    H    9 0.901    H   20 0.710    H    7 0.119    O   19 0.063
     9  H   0.913    O    8 0.901
    10  O   1.908    H   12 0.908    H   11 0.830    H    6 0.101
    11  H   0.882    O   10 0.830
    12  H   0.911    O   10 0.908
    13  O   1.872    H   14 0.908    H   15 0.839
    14  H   0.915    O   13 0.908
    15  H   0.885    O   13 0.839
    16  O   1.880    H   17 0.887    H   18 0.826    H   22 0.078
    17  H   0.911    O   16 0.887
    18  H   0.901    O   16 0.826    N   23 0.073
    19  O   1.953    H   21 0.867    H   22 0.805    H   20 0.161    O    8 0.063
    20  H   0.873    O    8 0.710    O   19 0.161
    21  H   0.898    O   19 0.867
    22  H   0.884    O   19 0.805    O   16 0.078
    23  N   3.013    H   26 0.974    H   24 0.968    H   25 0.939    H   18 0.073
    24  H   0.974    N   23 0.968
    25  H   0.966    N   23 0.939
    26  H   0.978    N   23 0.974
 MOs/occ written to file <molden.input>
 
molecular dipole:
                 x           y           z       tot (Debye)
 q only:       -1.192       1.464      -0.857
   full:       -1.534       1.218      -1.304       5.981
molecular quadrupole (traceless):
                xx          xy          yy          xz          yz          zz
 q only:       14.289      -2.254     -19.618      -2.225      -5.455       5.329
  q+dip:       19.449      -4.613     -24.104      -3.394      -7.273       4.655
   full:       19.779      -4.888     -24.639      -3.542      -7.455       4.861

SCC energy    :     -50.7375158
rep           :       0.2930327
ES            :       0.2328233
AES           :      -0.0487142
AXC           :      -0.0062489
disp          :      -0.0190223
XB            :       0.0000000
fix           :       0.0000000
total E       :     -50.4440500
atomizationE  :       4.9743542     3121.45
(atE without considering molecular charge,
 total energy contains solvation terms)
H-L gap (eV)  :          7.6609
optimized geometry written to: xtbopt.xyz


------------------------------------------------------------------------
 * finished run on 2019/09/16 at 12:40:46.775     
------------------------------------------------------------------------
 total:
 * wall-time:     0 d,  0 h,  0 min,  2.463 sec
 *  cpu-time:     0 d,  0 h,  0 min,  1.827 sec
 * ratio c/w:     0.742 speedup
 SCF:
 * wall-time:     0 d,  0 h,  0 min,  0.174 sec
 *  cpu-time:     0 d,  0 h,  0 min,  0.170 sec
 * ratio c/w:     0.976 speedup
 ANC optimizer:
 * wall-time:     0 d,  0 h,  0 min,  2.189 sec
 *  cpu-time:     0 d,  0 h,  0 min,  1.633 sec
 * ratio c/w:     0.746 speedup

