      -----------------------------------------------------------      
     |                   =====================                   |     
     |                           x T B                           |     
     |                   =====================                   |     
     |                         S. Grimme                         |     
     |          Mulliken Center for Theoretical Chemistry        |     
     |                    University of Bonn                     |     
     |                 Version 6.0.1 (SAW181210)                 |     
      -----------------------------------------------------------      

   This program is distributed in the hope that it will be useful,
   but WITHOUT ANY WARRANTY; without even the implied warranty of
   MERCHANTABILITY or FITNESS FOR A PARTICULAR PURPOSE.
   
   FOR NON-COMMERCIAL, ACADEMIA USE ONLY.
   
   Cite this work as:
   S. Grimme, C. Bannwarth, P. Shushkov, J. Comput. Theory Chem., 2017,
   13, 1989-2009.
   C. Bannwarth, S. Ehlert and S. Grimme., ChemRxiv, 2018, preprint.
   http://doi.org/10.26434/chemrxiv.7246238.v1
   
   for sTDA-xTB:
   S. Grimme and C. Bannwarth, J. Chem. Phys., 2016, 145, 054103.
   
   in the mass-spec context:
   V. Asgeirsson, C. Bauer and S. Grimme, Chem. Sci., 2017, 8, 4879.
   
   if GBSA is used:
   P. Shushkov, F. März and S. Grimme, unpublished.
   
   for ANC optimizer:
   S. Grimme, unpublished.
   Rational Function algorithm used in ANCopt:
   F. Eckert, P. Pulay, H.-J. Werner, J. Comput. Chem., 1997, 18, 1473.
   
   with help from (in alphabetical order)
   C. Bannwarth, F. Bohle, G. Brandenburg, E. Caldeweyher, M. Checinski,
   S. Dohm, S. Ehlert, S. Ehrlich, F. März, H. Neugebauer, J. Pisarek,
   P. Pracht, P. Shushkov, and S. Spicher.
   
 * started run on 2019/09/16 at 12:50:25.934     
========================================================================
 # omp threads = 1
========================================================================
number of atoms            : 26
number of electrons        : 80
charge                     : 0
spin                       : .0
first test random number   : .9258

########################################################################
# WARNING! Please study the warnings concerning your input carefully
#  - XTBPATH is not set, using XTBHOME instead
#  - the use of '-opt' is discouraged, please use '--opt' next time
#  - the use of '-chrg' is discouraged, please use '--chrg' next time
#  - the use of '-uhf' is discouraged, please use '--uhf' next time
########################################################################

           ------------------------------------------------- 
          |                 G F N 2 - x T B                 |
          | Geometry, Frequencies, Noncovalent interactions |
          |            JCTC 2018 parametrisation            |
           ------------------------------------------------- 
      method parameters     
 k(s)        :  1.8500
 k(p)        :  2.2300
 k(d)        :  2.2300
 k(f)        :  2.0000
 kEN (H0ij)  : -2.0000
 D4 a1       :  0.5200
 D4 a2       :  5.0000
 D4 s6       :  1.0000
 D4 s8       :  2.7000
 D4 s9       :  5.0000
 alphaj      :  2.0000


            Z     q(EN)     CN     RAES       Cart. coordinates
     1  S   6.0    0.58    4.28    4.20     3.20716     2.46069     2.74229
     2  O   6.0   -0.32    1.16    1.80     0.94964     3.70606     1.77582
     3  O   6.0   -0.28    1.09    1.80     5.13031     3.77015     4.16512
     4  O   6.0   -0.25    2.03    1.83     2.26593    -0.04624     4.28333
     5  O   6.0   -0.24    2.07    1.83     4.68070     1.02537     0.49814
     6  H   1.0    0.17    1.30    1.49     3.45655     0.22438    -0.61820
     7  H   1.0    0.14    1.12    1.45     0.63174     0.35497     5.02818
     8  O   6.0   -0.40    1.71    1.81     1.23499    -0.92954    -1.92513
     9  H   1.0    0.16    0.95    1.42     2.07653    -2.03931    -3.16770
    10  O   6.0   -0.29    2.06    1.83    -2.10045     5.82982    -1.68214
    11  H   1.0    0.15    0.97    1.43    -2.31397     7.62614    -1.47658
    12  H   1.0    0.18    1.03    1.43    -1.05476     5.30647    -0.28671
    13  O   6.0   -0.30    2.05    1.83    -1.98278    -2.68143     1.02330
    14  H   1.0    0.18    1.13    1.45    -0.75101    -1.94574    -0.09747
    15  H   1.0    0.15    0.99    1.43    -1.15315    -4.11735     1.77460
    16  O   6.0   -0.29    2.05    1.83    -5.94494    -1.13762    -1.58016
    17  H   1.0    0.15    0.97    1.43    -7.53449    -1.94594    -1.21334
    18  H   1.0    0.16    1.04    1.43    -4.75096    -1.87474    -0.42014
    19  O   6.0   -0.23    2.92    2.58    -2.27283     1.35741    -3.67631
    20  H   1.0    0.14    1.06    1.44    -3.83763     0.48395    -3.14874
    21  H   1.0    0.15    1.06    1.44    -2.25551     3.14731    -3.14155
    22  H   1.0    0.16    1.21    1.47    -0.74063     0.44604    -3.11662
    23  N   5.0   -0.21    2.95    1.92     2.84303    -5.11091     1.18095
    24  H   1.0    0.11    0.99    1.43     3.46037    -4.14638     2.73003
    25  H   1.0    0.11    1.03    1.43     2.36002    -3.76814    -0.11317
    26  H   1.0    0.10    0.99    1.43     4.39613    -5.99543     0.46221

  Z AO/shell   Hii/eV     exponent
  1     Wed Apr 25 08:07:45 CEST 2018   EN: 2.200 GM2: 0.406  GM3: 0.0800  RAES: 1.40
     1s    -10.707211    1.230000
  7     Wed Apr 25 08:07:45 CEST 2018   EN: 3.040 GM2: 0.461  GM3:-0.0640  RAES: 1.90
     2s    -16.686243    2.339881
     2p    -12.523956    2.014332
  8     Wed Apr 25 08:07:45 CEST 2018   EN: 3.440 GM2: 0.452  GM3:-0.0517  RAES: 1.80
     2s    -20.229985    2.439742
     2p    -15.503117    2.137023
 16     Tue Apr 24 11:44:34 CEST 2018   EN: 2.580 GM2: 0.340  GM3:-0.0502  RAES: 3.10
     3s    -20.029654    1.981333
     3p    -11.377694    2.025643
     3d     -0.420282    1.702555
 no old-style atom pair restraining (fixing) potential

molecular fragmentation (1/2 indicates fragments):
11111112222222222222222222
# atoms in fragment 1/2:     7    19
 fragment masses (1/2) :       98.07      107.11
CMA distance (Bohr)    :   6.515
constraining FC (au)   :  0.0500
           ------------------------------------------------- 
          |        Self-Consistent Charge Iterations        |
           ------------------------------------------------- 

 Ncao       : 65
 Nao        : 64
 Nshell     : 38
 Nel        : 80
 T(el)      :   300.0
 intcut     :    25.0
 scfconv/Eh :  0.100E-05
   qconv/e  :  0.100E-03
 intneglect :  0.100E-07
 broydamp   :      0.250
 iter      E             dE          RMSdq      gap      omega  full diag
   1    -50.5681870 -0.505682E+02  0.705E+00    7.86       0.0  T
   2    -50.6199519 -0.517649E-01  0.494E+00    6.82       1.0  T
   3    -50.6581239 -0.381719E-01  0.121E+00    4.92       1.0  T
   4    -50.6626024 -0.447851E-02  0.600E-01    5.18       1.0  T
   5    -50.6637032 -0.110084E-02  0.289E-01    5.14       1.0  T
   6    -50.6641063 -0.403063E-03  0.158E-01    5.10       1.0  T
   7    -50.6642546 -0.148307E-03  0.584E-02    5.09       1.0  T
   8    -50.6642770 -0.224218E-04  0.250E-02    5.10       1.0  T
   9    -50.6642802 -0.315067E-05  0.128E-02    5.11       1.5  T
  10    -50.6642810 -0.862553E-06  0.279E-03    5.11       7.0  T
  11    -50.6642810 -0.262322E-07  0.120E-03    5.11      16.4  T
  12    -50.6642810 -0.642488E-08  0.477E-04    5.11      41.1  T
  13    -50.6642810 -0.908713E-09  0.193E-04    5.11     101.8  T
speedup  0.98
cpu  time for SCC    0.02 s
wall time for SCC    0.02 s

   *** convergence criteria satisfied after 13 iterations ***

          eigenvalues
 #    :          28         29         30         31         32         33         34         35
 occ. :        2.000      2.000      2.000      2.000      2.000      2.000      2.000      2.000
 eps  :       -12.955    -12.852    -12.740    -12.658    -12.608    -12.501    -12.343    -12.312
 #    :          36         37         38         39         40         41         42         43
 occ. :        2.000      2.000      2.000      2.000      2.000      0.000      0.000      0.000
 eps  :       -12.300    -11.221    -10.791    -10.446     -9.908     -4.795     -1.983     -1.047
 #    :          44         45         46         47         48         49         50         51
 occ. :        0.000      0.000      0.000      0.000      0.000      0.000      0.000      0.000
 eps  :        -0.919      0.567      1.351      1.843      2.974      3.667      4.607      4.728


   #   Z            q   n(s)   n(p)   n(d)      C6AA      α(0)
   1  16 S      1.643  1.628  1.801  0.929    90.083    15.974
   2   8 O     -0.682  1.766  4.917  0.000    28.233     7.124
   3   8 O     -0.623  1.772  4.851  0.000    26.686     6.926
   4   8 O     -0.566  1.758  4.808  0.000    24.361     6.663
   5   8 O     -0.597  1.761  4.836  0.000    25.079     6.761
   6   1 H      0.385  0.615  0.000  0.000     0.509     1.119
   7   1 H      0.351  0.649  0.000  0.000     0.585     1.200
   8   8 O     -0.853  1.847  5.006  0.000    33.195     7.726
   9   1 H      0.224  0.776  0.000  0.000     1.004     1.574
  10   8 O     -0.605  1.723  4.882  0.000    25.302     6.789
  11   1 H      0.295  0.705  0.000  0.000     0.736     1.348
  12   1 H      0.336  0.664  0.000  0.000     0.622     1.239
  13   8 O     -0.673  1.751  4.923  0.000    27.008     7.014
  14   1 H      0.334  0.666  0.000  0.000     0.625     1.241
  15   1 H      0.295  0.705  0.000  0.000     0.736     1.348
  16   8 O     -0.620  1.730  4.891  0.000    25.676     6.839
  17   1 H      0.286  0.714  0.000  0.000     0.766     1.374
  18   1 H      0.342  0.658  0.000  0.000     0.607     1.224
  19   8 O     -0.459  1.660  4.799  0.000    21.969     6.330
  20   1 H      0.405  0.595  0.000  0.000     0.476     1.084
  21   1 H      0.401  0.599  0.000  0.000     0.483     1.092
  22   1 H      0.405  0.595  0.000  0.000     0.470     1.073
  23   7 N     -0.477  1.411  4.067  0.000    32.626     8.483
  24   1 H      0.144  0.856  0.000  0.000     1.440     1.880
  25   1 H      0.186  0.814  0.000  0.000     1.181     1.702
  26   1 H      0.126  0.874  0.000  0.000     1.578     1.968

 Mol. C6AA /au·bohr⁶  :       5486.120040
 Mol. C8AA /au·bohr⁸  :     118502.114584
 Mol. α(0) /au        :        107.094049

 
 Wiberg/Mayer (AO) data. WBOs > 0.1 written file <wbo>
 largest (>0.05) Wiberg bond orders for each atom
           total WBO             WBO to atom ...
     1  S   4.779    O    3 1.483    O    2 1.378    O    5 1.000    O    4 0.888
     2  O   1.755    S    1 1.378    O    3 0.139    O    5 0.100    O    4 0.089
     3  O   1.819    S    1 1.483    O    2 0.139    O    4 0.092    O    5 0.091
     4  O   1.991    S    1 0.888    H    7 0.857    O    3 0.092    O    2 0.089    O    5 0.055
     5  O   1.988    S    1 1.000    H    6 0.678    O    2 0.100    O    3 0.091    O    4 0.055    O    8 0.050
     6  H   0.852    O    5 0.678    O    8 0.156
     7  H   0.877    O    4 0.857
     8  O   1.625    H    9 0.936    H   22 0.203    H    6 0.156    H   14 0.102    O   19 0.063    O    5 0.050
     9  H   0.950    O    8 0.936
    10  O   1.864    H   11 0.898    H   12 0.847    H   21 0.072
    11  H   0.913    O   10 0.898
    12  H   0.887    O   10 0.847
    13  O   1.811    H   15 0.891    H   14 0.778    H   18 0.056
    14  H   0.888    O   13 0.778    O    8 0.102
    15  H   0.913    O   13 0.891
    16  O   1.848    H   17 0.903    H   18 0.825    H   20 0.069
    17  H   0.918    O   16 0.903
    18  H   0.883    O   16 0.825    O   13 0.056
    19  O   2.282    H   21 0.760    H   20 0.759    H   22 0.628    O    8 0.063
    20  H   0.836    O   19 0.759    O   16 0.069
    21  H   0.839    O   19 0.760    O   10 0.072
    22  H   0.836    O   19 0.628    O    8 0.203
    23  N   2.926    H   26 0.980    H   24 0.974    H   25 0.919
    24  H   0.979    N   23 0.974
    25  H   0.965    N   23 0.919
    26  H   0.984    N   23 0.980
 MOs/occ written to file <molden.input>
 
molecular dipole:
                 x           y           z       tot (Debye)
 q only:       -2.381       0.481      -1.028
   full:       -1.985       0.384      -0.696       5.434
molecular quadrupole (traceless):
                xx          xy          yy          xz          yz          zz
 q only:       -6.270      -6.954       2.824      -6.041      -4.624       3.446
  q+dip:       -5.043      -8.710       3.414      -9.465      -2.039       1.629
   full:       -5.049      -8.965       3.408      -9.625      -2.229       1.641

SCC energy    :     -50.6642810
rep           :       0.2852309
ES            :       0.2617036
AES           :      -0.0479624
AXC           :      -0.0029963
disp          :      -0.0178025
XB            :       0.0000000
fix           :       0.0000000
total E       :     -50.3787348
atomizationE  :       4.9090390     3080.47
(atE without considering molecular charge,
 total energy contains solvation terms)
H-L gap (eV)  :          5.1130
           ------------------------------------------------- 
          |                 ===============                 |
          |                   A N C O P T                   |
          |                 ===============                 |
          |          Approximate Normal Coordinate          |
          |           Rational Function Optimizer           |
           ------------------------------------------------- 
dumping coords to <xtbopt.coord> and <xtbopt.log>
 optlevel               2
 Maxcycle             520
 Maxmicro              25
 Econv         1.000000000000000E-007
 Gconv         2.000000000000000E-004
 Maxdispl       1.00000000000000     
 Hlow          5.000000000000000E-003
 S6             20.0000000000000     
 Nvar               72

generating ANC from model Hessian ...
 Shifting diagonal of input Hessian by   7.229592283666073E-003
 Lowest  eigenvalues of input Hessian
    0.005000    0.006974    0.007102   -0.000000   -0.000000    0.000000
    0.000000    0.000000    0.000000    0.007238    0.007590    0.007607
    0.007777    0.008048    0.008308    0.008770    0.008930    0.009089
 Highest eigenvalues
    1.441901    1.569209    1.592130    1.955686    2.770676    3.594082
 
cpu  time for ANC gen    0.02 s
wall time for ANC gen    0.02 s
................................................................................
.............................. CYCLE    1 ......................................
................................................................................
   1    -50.6642810 -0.506643E+02  0.407E-05    5.11       0.0  T
   2    -50.6642810 -0.218137E-11  0.312E-05    5.11     628.5  T
   3    -50.6642810 -0.174083E-11  0.127E-05    5.11    1538.3  T
speedup  1.25
cpu  time for SCC    0.00 s
wall time for SCC    0.00 s
speedup  1.07
cpu  time for grad    0.01 s
wall time for grad    0.01 s
 E :    -50.37873479  G :  0.156137    pred/act E change:  0.000D+00  0.227D-07
Maxdispl :   0.0990   ||displ|| :   0.3141   Lambda : -0.240D-01
Largest |displ|/coords:  0.0990 (   2)  0.0906 (  23)  0.0837 (  20)
................................................................................
.............................. CYCLE    2 ......................................
................................................................................
   1    -50.6790326 -0.506790E+02  0.313E-01    5.81       0.0  T
   2    -50.6791674 -0.134794E-03  0.230E-01    5.84       1.0  T
   3    -50.6792328 -0.654923E-04  0.581E-02    5.92       1.0  T
   4    -50.6792438 -0.109796E-04  0.256E-02    5.92       1.0  T
   5    -50.6792448 -0.932348E-06  0.546E-03    5.92       3.6  T
   6    -50.6792448 -0.623471E-07  0.308E-03    5.92       6.4  T
speedup  1.09
cpu  time for SCC    0.01 s
wall time for SCC    0.01 s
speedup  1.07
cpu  time for grad    0.01 s
wall time for grad    0.01 s
 E :    -50.39706006  G :  0.091167    pred/act E change:  0.000D+00 -0.183D-01
Maxdispl :   0.0998   ||displ|| :   0.3045   Lambda : -0.105D-01
Largest |displ|/coords:  0.0998 (   2)  0.0854 (  13)  0.0811 (  25)
................................................................................
.............................. CYCLE    3 ......................................
................................................................................
   1    -50.6877003 -0.506877E+02  0.262E-01    6.47       0.0  T
   2    -50.6878037 -0.103443E-03  0.193E-01    6.51       1.0  T
   3    -50.6878505 -0.467363E-04  0.477E-02    6.59       1.0  T
   4    -50.6878598 -0.934182E-05  0.190E-02    6.58       1.0  T
   5    -50.6878604 -0.577568E-06  0.421E-03    6.58       4.7  T
   6    -50.6878604 -0.346871E-07  0.254E-03    6.58       7.7  T
speedup  1.07
cpu  time for SCC    0.01 s
wall time for SCC    0.01 s
speedup  1.04
cpu  time for grad    0.01 s
wall time for grad    0.01 s
 E :    -50.40573089  G :  0.061973    pred/act E change: -0.132D-01 -0.867D-02
Maxdispl :   0.1042   ||displ|| :   0.3047   Lambda : -0.622D-02
Largest |displ|/coords:  0.1042 (  16)  0.0990 (  13)  0.0959 (  25)
................................................................................
.............................. CYCLE    4 ......................................
................................................................................
   1    -50.6928588 -0.506929E+02  0.236E-01    6.98       0.0  T
   2    -50.6929752 -0.116443E-03  0.171E-01    7.02       1.0  T
   3    -50.6930266 -0.513542E-04  0.483E-02    7.09       1.0  T
   4    -50.6930350 -0.844599E-05  0.151E-02    7.08       1.3  T
   5    -50.6930354 -0.386188E-06  0.394E-03    7.08       5.0  T
   6    -50.6930354 -0.261188E-07  0.240E-03    7.08       8.2  T
speedup  1.09
cpu  time for SCC    0.01 s
wall time for SCC    0.01 s
speedup  1.05
cpu  time for grad    0.01 s
wall time for grad    0.01 s
 E :    -50.41102654  G :  0.044508    pred/act E change: -0.572D-02 -0.530D-02
Maxdispl :   0.1634   ||displ|| :   0.4804   Lambda : -0.878D-02
Largest |displ|/coords:  0.1634 (  25)  0.1622 (  16)  0.1275 (  13)
................................................................................
.............................. CYCLE    5 ......................................
................................................................................
   1    -50.7010755 -0.507011E+02  0.422E-01    7.70       0.0  T
   2    -50.7016679 -0.592411E-03  0.301E-01    7.75       1.0  T
   3    -50.7019243 -0.256391E-03  0.103E-01    7.85       1.0  T
   4    -50.7019518 -0.274873E-04  0.274E-02    7.86       1.0  T
   5    -50.7019529 -0.117618E-05  0.813E-03    7.86       2.4  T
   6    -50.7019531 -0.116933E-06  0.454E-03    7.86       4.3  T
   7    -50.7019531 -0.450048E-07  0.158E-03    7.86      12.4  T
speedup  1.08
cpu  time for SCC    0.01 s
wall time for SCC    0.01 s
speedup  1.06
cpu  time for grad    0.01 s
wall time for grad    0.01 s
 E :    -50.41687993  G :  0.028877    pred/act E change: -0.340D-02 -0.585D-02
Maxdispl :   0.2012   ||displ|| :   0.4837   Lambda : -0.375D-02
Largest |displ|/coords:  0.2012 (  16)  0.1812 (  13)  0.1780 (  10)
................................................................................
.............................. CYCLE    6 ......................................
................................................................................
   1    -50.7053082 -0.507053E+02  0.408E-01    7.94       0.0  T
   2    -50.7056315 -0.323292E-03  0.297E-01    7.98       1.0  T
   3    -50.7057713 -0.139742E-03  0.874E-02    8.05       1.0  T
   4    -50.7057989 -0.276476E-04  0.198E-02    8.04       1.0  T
   5    -50.7057996 -0.700709E-06  0.714E-03    8.04       2.7  T
   6    -50.7057997 -0.613715E-07  0.393E-03    8.04       5.0  T
   7    -50.7057997 -0.217006E-07  0.109E-03    8.04      18.1  T
speedup  1.11
cpu  time for SCC    0.01 s
wall time for SCC    0.01 s
speedup  1.01
cpu  time for grad    0.01 s
wall time for grad    0.01 s
 E :    -50.41889269  G :  0.037846    pred/act E change: -0.540D-02 -0.201D-02
Maxdispl :   0.2255   ||displ|| :   0.5284   Lambda : -0.417D-02
Largest |displ|/coords:  0.2255 (  11)  0.1657 (   5)  0.1309 (  13)
................................................................................
.............................. CYCLE    7 ......................................
................................................................................
   1    -50.7009490 -0.507009E+02  0.538E-01    7.91       0.0  T
   2    -50.7012550 -0.305972E-03  0.399E-01    7.93       1.0  T
   3    -50.7013905 -0.135483E-03  0.952E-02    7.96       1.0  T
   4    -50.7014317 -0.411809E-04  0.154E-02    7.95       1.3  T
   5    -50.7014321 -0.425860E-06  0.828E-03    7.95       2.4  T
   6    -50.7014322 -0.554505E-07  0.374E-03    7.95       5.2  T
   7    -50.7014322 -0.220088E-07  0.102E-03    7.95      19.2  T
speedup  0.95
cpu  time for SCC    0.01 s
wall time for SCC    0.01 s
speedup  1.01
cpu  time for grad    0.01 s
wall time for grad    0.01 s
 E :    -50.42025944  G :  0.053336    pred/act E change: -0.231D-02 -0.137D-02
Maxdispl :   0.1715   ||displ|| :   0.4110   Lambda : -0.717D-02
Largest |displ|/coords:  0.1715 (  10)  0.1563 (   8)  0.1559 (   5)
................................................................................
.............................. CYCLE    8 ......................................
................................................................................
   1    -50.7194229 -0.507194E+02  0.592E-01    7.88       0.0  T
   2    -50.7196496 -0.226648E-03  0.446E-01    7.85       1.0  T
   3    -50.7197922 -0.142573E-03  0.855E-02    7.78       1.0  T
   4    -50.7198252 -0.330085E-04  0.200E-02    7.80       1.0  T
   5    -50.7198259 -0.700987E-06  0.860E-03    7.80       2.3  T
   6    -50.7198259 -0.372658E-07  0.412E-03    7.80       4.8  T
   7    -50.7198259 -0.275279E-07  0.912E-04    7.80      21.5  T
speedup  0.90
cpu  time for SCC    0.01 s
wall time for SCC    0.01 s
speedup  0.95
cpu  time for grad    0.01 s
wall time for grad    0.01 s
 E :    -50.42076900  G :  0.052933    pred/act E change: -0.267D-02 -0.510D-03
Maxdispl :   0.1299   ||displ|| :   0.3473   Lambda : -0.364D-02
Largest |displ|/coords:  0.1299 (   6)  0.1258 (   7)  0.1225 (  13)
................................................................................
.............................. CYCLE    9 ......................................
................................................................................
   1    -50.7059943 -0.507060E+02  0.393E-01    7.69       0.0  T
   2    -50.7060721 -0.777346E-04  0.293E-01    7.72       1.0  T
   3    -50.7061173 -0.452583E-04  0.507E-02    7.76       1.0  T
   4    -50.7061291 -0.117767E-04  0.132E-02    7.73       1.5  T
   5    -50.7061293 -0.210279E-06  0.541E-03    7.73       3.6  T
   6    -50.7061293 -0.336629E-07  0.214E-03    7.74       9.2  T
speedup  1.07
cpu  time for SCC    0.01 s
wall time for SCC    0.01 s
speedup  1.04
cpu  time for grad    0.01 s
wall time for grad    0.01 s
 E :    -50.42248929  G :  0.040000    pred/act E change: -0.419D-02 -0.172D-02
Maxdispl :   0.1375   ||displ|| :   0.3391   Lambda : -0.314D-02
Largest |displ|/coords:  0.1375 (   1)  0.1364 (   5)  0.1357 (   9)
................................................................................
.............................. CYCLE   10 ......................................
................................................................................
   1    -50.7108845 -0.507109E+02  0.276E-01    7.70       0.0  T
   2    -50.7109713 -0.867994E-04  0.204E-01    7.66       1.0  T
   3    -50.7110170 -0.456796E-04  0.507E-02    7.60       1.0  T
   4    -50.7110278 -0.107982E-04  0.112E-02    7.62       1.7  T
   5    -50.7110279 -0.192059E-06  0.494E-03    7.62       4.0  T
   6    -50.7110280 -0.183620E-07  0.216E-03    7.61       9.1  T
speedup  0.91
cpu  time for SCC    0.00 s
wall time for SCC    0.01 s
speedup  0.98
cpu  time for grad    0.01 s
wall time for grad    0.01 s
 E :    -50.42359378  G :  0.041764    pred/act E change: -0.204D-02 -0.110D-02
Maxdispl :   0.0989   ||displ|| :   0.2558   Lambda : -0.260D-02
Largest |displ|/coords:  0.0989 (  13)  0.0872 (   7)  0.0760 (  10)
................................................................................
.............................. CYCLE   11 ......................................
................................................................................
   1    -50.7186700 -0.507187E+02  0.281E-01    7.62       0.0  T
   2    -50.7187010 -0.309564E-04  0.212E-01    7.62       1.0  T
   3    -50.7187252 -0.242053E-04  0.316E-02    7.61       1.0  T
   4    -50.7187294 -0.422962E-05  0.103E-02    7.61       1.9  T
   5    -50.7187296 -0.143706E-06  0.372E-03    7.61       5.3  T
   6    -50.7187296 -0.116171E-07  0.204E-03    7.61       9.6  T
speedup  1.05
cpu  time for SCC    0.01 s
wall time for SCC    0.01 s
speedup  0.97
cpu  time for grad    0.01 s
wall time for grad    0.01 s
 E :    -50.42507677  G :  0.030267    pred/act E change: -0.175D-02 -0.148D-02
Maxdispl :   0.1104   ||displ|| :   0.3323   Lambda : -0.275D-02
Largest |displ|/coords:  0.1104 (  10)  0.1025 (   9)  0.0933 (  16)
................................................................................
.............................. CYCLE   12 ......................................
................................................................................
   1    -50.7275100 -0.507275E+02  0.346E-01    7.57       0.0  T
   2    -50.7275555 -0.454966E-04  0.261E-01    7.54       1.0  T
   3    -50.7275918 -0.363227E-04  0.398E-02    7.48       1.0  T
   4    -50.7275979 -0.607294E-05  0.146E-02    7.49       1.3  T
   5    -50.7275982 -0.234521E-06  0.459E-03    7.49       4.3  T
   6    -50.7275982 -0.222864E-07  0.273E-03    7.49       7.2  T
speedup  0.94
cpu  time for SCC    0.00 s
wall time for SCC    0.01 s
speedup  1.02
cpu  time for grad    0.01 s
wall time for grad    0.01 s
 E :    -50.42678859  G :  0.023462    pred/act E change: -0.138D-02 -0.171D-02
Maxdispl :   0.2391   ||displ|| :   0.5294   Lambda : -0.312D-02
Largest |displ|/coords:  0.2391 (   7)  0.1893 (   9)  0.1648 (  10)
................................................................................
.............................. CYCLE   13 ......................................
................................................................................
   1    -50.7284563 -0.507285E+02  0.405E-01    7.41       0.0  T
   2    -50.7285443 -0.880589E-04  0.299E-01    7.42       1.0  T
   3    -50.7286038 -0.594968E-04  0.519E-02    7.44       1.0  T
   4    -50.7286153 -0.114450E-04  0.180E-02    7.42       1.1  T
   5    -50.7286157 -0.430437E-06  0.675E-03    7.42       2.9  T
   6    -50.7286158 -0.630571E-07  0.334E-03    7.42       5.9  T
   7    -50.7286158 -0.203337E-07  0.999E-04    7.42      19.6  T
speedup  1.03
cpu  time for SCC    0.01 s
wall time for SCC    0.01 s
speedup  1.04
cpu  time for grad    0.01 s
wall time for grad    0.01 s
 E :    -50.42806385  G :  0.035519    pred/act E change: -0.153D-02 -0.128D-02
Maxdispl :   0.0600   ||displ|| :   0.1885   Lambda : -0.169D-02
Largest |displ|/coords:  0.0600 (  14)  0.0593 (   1)  0.0580 (   6)
................................................................................
.............................. CYCLE   14 ......................................
................................................................................
   1    -50.7311614 -0.507312E+02  0.167E-01    7.50       0.0  T
   2    -50.7311797 -0.183185E-04  0.122E-01    7.48       1.0  T
   3    -50.7311871 -0.743421E-05  0.246E-02    7.43       1.0  T
   4    -50.7311896 -0.247855E-05  0.622E-03    7.45       3.2  T
   5    -50.7311896 -0.376689E-07  0.220E-03    7.45       8.9  T
   6    -50.7311896 -0.353891E-08  0.106E-03    7.45      18.5  T
speedup  1.11
cpu  time for SCC    0.01 s
wall time for SCC    0.01 s
speedup  1.06
cpu  time for grad    0.01 s
wall time for grad    0.01 s
 E :    -50.42880368  G :  0.026454    pred/act E change: -0.200D-02 -0.740D-03
Maxdispl :   0.1147   ||displ|| :   0.2520   Lambda : -0.179D-02
Largest |displ|/coords:  0.1147 (  13)  0.1062 (   9)  0.0763 (  18)
................................................................................
.............................. CYCLE   15 ......................................
................................................................................
   1    -50.7334559 -0.507335E+02  0.314E-01    7.53       0.0  T
   2    -50.7334935 -0.375492E-04  0.238E-01    7.54       1.0  T
   3    -50.7335168 -0.232960E-04  0.350E-02    7.58       1.0  T
   4    -50.7335225 -0.572905E-05  0.136E-02    7.57       1.4  T
   5    -50.7335229 -0.371928E-06  0.339E-03    7.57       5.8  T
   6    -50.7335229 -0.502921E-08  0.185E-03    7.57      10.6  T
speedup  1.11
cpu  time for SCC    0.01 s
wall time for SCC    0.01 s
speedup  1.00
cpu  time for grad    0.01 s
wall time for grad    0.01 s
 E :    -50.42884767  G :  0.034765    pred/act E change: -0.874D-03 -0.440D-04
Maxdispl :   0.1220   ||displ|| :   0.2513   Lambda : -0.240D-02
Largest |displ|/coords:  0.1220 (   7)  0.1049 (   6)  0.0931 (   9)
................................................................................
.............................. CYCLE   16 ......................................
................................................................................
   1    -50.7347809 -0.507348E+02  0.261E-01    7.72       0.0  T
   2    -50.7348041 -0.232478E-04  0.195E-01    7.73       1.0  T
   3    -50.7348186 -0.144511E-04  0.273E-02    7.75       1.0  T
   4    -50.7348217 -0.311085E-05  0.715E-03    7.74       2.7  T
   5    -50.7348218 -0.530812E-07  0.327E-03    7.74       6.0  T
   6    -50.7348218 -0.541674E-08  0.132E-03    7.74      14.9  T
speedup  0.91
cpu  time for SCC    0.00 s
wall time for SCC    0.01 s
speedup  0.98
cpu  time for grad    0.01 s
wall time for grad    0.01 s
 E :    -50.43012780  G :  0.019564    pred/act E change: -0.951D-03 -0.128D-02
Maxdispl :   0.1607   ||displ|| :   0.3274   Lambda : -0.140D-02
Largest |displ|/coords:  0.1607 (   7)  0.1566 (   9)  0.0686 (   6)
................................................................................
.............................. CYCLE   17 ......................................
................................................................................
   1    -50.7274945 -0.507275E+02  0.267E-01    7.75       0.0  T
   2    -50.7275303 -0.357734E-04  0.197E-01    7.78       1.0  T
   3    -50.7275484 -0.180510E-04  0.334E-02    7.83       1.0  T
   4    -50.7275534 -0.500004E-05  0.143E-02    7.81       1.4  T
   5    -50.7275536 -0.270070E-06  0.397E-03    7.81       4.9  T
   6    -50.7275536 -0.189456E-07  0.227E-03    7.81       8.6  T
   7    -50.7275537 -0.870678E-08  0.723E-04    7.81      27.1  T
speedup  0.94
cpu  time for SCC    0.01 s
wall time for SCC    0.01 s
speedup  0.99
cpu  time for grad    0.01 s
wall time for grad    0.01 s
 E :    -50.43072164  G :  0.028213    pred/act E change: -0.128D-02 -0.594D-03
Maxdispl :   0.1019   ||displ|| :   0.2608   Lambda : -0.158D-02
Largest |displ|/coords:  0.1019 (  15)  0.0998 (   7)  0.0894 (   1)
................................................................................
.............................. CYCLE   18 ......................................
................................................................................
   1    -50.7322245 -0.507322E+02  0.169E-01    7.89       0.0  T
   2    -50.7322368 -0.123035E-04  0.125E-01    7.90       1.0  T
   3    -50.7322463 -0.945607E-05  0.205E-02    7.92       1.0  T
   4    -50.7322476 -0.138815E-05  0.892E-03    7.92       2.2  T
   5    -50.7322478 -0.118203E-06  0.262E-03    7.92       7.5  T
   6    -50.7322478 -0.808380E-08  0.154E-03    7.92      12.8  T
speedup  0.91
cpu  time for SCC    0.01 s
wall time for SCC    0.01 s
speedup  0.98
cpu  time for grad    0.01 s
wall time for grad    0.01 s
 E :    -50.43156668  G :  0.026477    pred/act E change: -0.773D-03 -0.845D-03
Maxdispl :   0.1133   ||displ|| :   0.2903   Lambda : -0.182D-02
Largest |displ|/coords:  0.1133 (   7)  0.1028 (   9)  0.0831 (  17)
................................................................................
.............................. CYCLE   19 ......................................
................................................................................
   1    -50.7353554 -0.507354E+02  0.222E-01    8.07       0.0  T
   2    -50.7353746 -0.191598E-04  0.164E-01    8.08       1.0  T
   3    -50.7353863 -0.117054E-04  0.275E-02    8.10       1.0  T
   4    -50.7353886 -0.226925E-05  0.873E-03    8.10       2.2  T
   5    -50.7353887 -0.109845E-06  0.297E-03    8.10       6.6  T
   6    -50.7353887 -0.746228E-08  0.164E-03    8.10      11.9  T
speedup  0.91
cpu  time for SCC    0.00 s
wall time for SCC    0.01 s
speedup  0.98
cpu  time for grad    0.01 s
wall time for grad    0.01 s
 E :    -50.43251546  G :  0.020474    pred/act E change: -0.842D-03 -0.949D-03
Maxdispl :   0.1663   ||displ|| :   0.4117   Lambda : -0.168D-02
Largest |displ|/coords:  0.1663 (   9)  0.1393 (   7)  0.1180 (   3)
................................................................................
.............................. CYCLE   20 ......................................
................................................................................
   1    -50.7280126 -0.507280E+02  0.370E-01    8.31       0.0  T
   2    -50.7280789 -0.663348E-04  0.276E-01    8.34       1.0  T
   3    -50.7281167 -0.377787E-04  0.486E-02    8.42       1.0  T
   4    -50.7281255 -0.879615E-05  0.134E-02    8.42       1.5  T
   5    -50.7281257 -0.246360E-06  0.522E-03    8.42       3.8  T
   6    -50.7281258 -0.390630E-07  0.316E-03    8.42       6.2  T
speedup  1.09
cpu  time for SCC    0.01 s
wall time for SCC    0.01 s
speedup  1.05
cpu  time for grad    0.01 s
wall time for grad    0.01 s
 E :    -50.43237356  G :  0.040339    pred/act E change: -0.984D-03  0.142D-03
Maxdispl :   0.1076   ||displ|| :   0.1872   Lambda : -0.246D-02
Largest |displ|/coords:  0.1076 (   9)  0.0552 (  17)  0.0493 (  16)
................................................................................
.............................. CYCLE   21 ......................................
................................................................................
   1    -50.7286071 -0.507286E+02  0.163E-01    8.34       0.0  T
   2    -50.7286462 -0.390688E-04  0.120E-01    8.35       1.0  T
   3    -50.7286668 -0.206085E-04  0.340E-02    8.34       1.0  T
   4    -50.7286705 -0.370771E-05  0.984E-03    8.33       2.0  T
   5    -50.7286707 -0.165908E-06  0.334E-03    8.33       5.9  T
   6    -50.7286707 -0.101933E-07  0.184E-03    8.33      10.6  T
speedup  1.07
cpu  time for SCC    0.01 s
wall time for SCC    0.01 s
speedup  1.05
cpu  time for grad    0.01 s
wall time for grad    0.01 s
 E :    -50.43353383  G :  0.024881    pred/act E change: -0.985D-03 -0.116D-02
Maxdispl :   0.1680   ||displ|| :   0.2674   Lambda : -0.183D-02
Largest |displ|/coords:  0.1680 (  12)  0.0729 (   9)  0.0720 (  25)
................................................................................
.............................. CYCLE   22 ......................................
................................................................................
   1    -50.7395479 -0.507395E+02  0.247E-01    8.20       0.0  T
   2    -50.7395858 -0.379004E-04  0.178E-01    8.17       1.0  T
   3    -50.7396059 -0.201001E-04  0.383E-02    8.10       1.0  T
   4    -50.7396100 -0.411771E-05  0.122E-02    8.11       1.6  T
   5    -50.7396102 -0.202484E-06  0.427E-03    8.11       4.6  T
   6    -50.7396103 -0.249164E-07  0.202E-03    8.11       9.7  T
speedup  1.09
cpu  time for SCC    0.01 s
wall time for SCC    0.01 s
speedup  0.98
cpu  time for grad    0.01 s
wall time for grad    0.01 s
 E :    -50.43315943  G :  0.033928    pred/act E change: -0.128D-02  0.374D-03
Maxdispl :   0.1103   ||displ|| :   0.2145   Lambda : -0.214D-02
Largest |displ|/coords:  0.1103 (  12)  0.0746 (   7)  0.0732 (   9)
................................................................................
.............................. CYCLE   23 ......................................
................................................................................
   1    -50.7354452 -0.507354E+02  0.200E-01    8.14       0.0  T
   2    -50.7354555 -0.103184E-04  0.147E-01    8.16       1.0  T
   3    -50.7354654 -0.990217E-05  0.173E-02    8.19       1.1  T
   4    -50.7354661 -0.708008E-06  0.779E-03    8.18       2.5  T
   5    -50.7354662 -0.586190E-07  0.245E-03    8.18       8.0  T
   6    -50.7354662 -0.102863E-07  0.112E-03    8.18      17.4  T
speedup  0.93
cpu  time for SCC    0.00 s
wall time for SCC    0.01 s
speedup  1.00
cpu  time for grad    0.01 s
wall time for grad    0.01 s
 E :    -50.43439022  G :  0.012552    pred/act E change: -0.983D-03 -0.123D-02
Maxdispl :   0.0874   ||displ|| :   0.2329   Lambda : -0.809D-03
Largest |displ|/coords:  0.0874 (   3)  0.0791 (  12)  0.0786 (  13)
................................................................................
.............................. CYCLE   24 ......................................
................................................................................
   1    -50.7295010 -0.507295E+02  0.219E-01    8.30       0.0  T
   2    -50.7295163 -0.153241E-04  0.163E-01    8.32       1.0  T
   3    -50.7295271 -0.107472E-04  0.225E-02    8.38       1.0  T
   4    -50.7295290 -0.194221E-05  0.846E-03    8.36       2.3  T
   5    -50.7295291 -0.662600E-07  0.279E-03    8.36       7.0  T
   6    -50.7295291 -0.910411E-08  0.141E-03    8.36      14.0  T
speedup  0.91
cpu  time for SCC    0.00 s
wall time for SCC    0.01 s
speedup  0.97
cpu  time for grad    0.01 s
wall time for grad    0.01 s
 E :    -50.43459127  G :  0.020392    pred/act E change: -0.112D-02 -0.201D-03
Maxdispl :   0.0778   ||displ|| :   0.1847   Lambda : -0.747D-03
Largest |displ|/coords:  0.0778 (   7)  0.0597 (   2)  0.0555 (   6)
................................................................................
.............................. CYCLE   25 ......................................
................................................................................
   1    -50.7296061 -0.507296E+02  0.125E-01    8.34       0.0  T
   2    -50.7296130 -0.690769E-05  0.934E-02    8.34       1.0  T
   3    -50.7296170 -0.396184E-05  0.159E-02    8.35       1.2  T
   4    -50.7296180 -0.102372E-05  0.570E-03    8.35       3.4  T
   5    -50.7296181 -0.545299E-07  0.171E-03    8.35      11.5  T
speedup  0.87
cpu  time for SCC    0.00 s
wall time for SCC    0.00 s
speedup  0.98
cpu  time for grad    0.01 s
wall time for grad    0.01 s
 E :    -50.43495683  G :  0.017168    pred/act E change: -0.426D-03 -0.366D-03
Maxdispl :   0.1008   ||displ|| :   0.1923   Lambda : -0.863D-03
Largest |displ|/coords:  0.1008 (  18)  0.0685 (   2)  0.0665 (  19)

generating ANC from model Hessian ...
 Shifting diagonal of input Hessian by   4.996490836554480E-003
 Lowest  eigenvalues of input Hessian
   -0.000000    0.000000    0.000000    0.000000    0.000000    0.000000
    0.005000    0.005069    0.005165    0.005344    0.005601    0.005690
    0.005891    0.006251    0.006430    0.007149    0.007471    0.007920
 Highest eigenvalues
    1.387582    1.427977    1.458073    2.507352    3.163960    3.929918
 
cpu  time for ANC gen    0.02 s
wall time for ANC gen    0.02 s
................................................................................
.............................. CYCLE   26 ......................................
................................................................................
   1    -50.7362457 -0.507362E+02  0.124E-01    8.26       0.0  T
   2    -50.7362596 -0.139065E-04  0.899E-02    8.24       1.0  T
   3    -50.7362674 -0.778790E-05  0.243E-02    8.20       1.0  T
   4    -50.7362687 -0.134007E-05  0.893E-03    8.20       2.2  T
   5    -50.7362689 -0.121566E-06  0.251E-03    8.20       7.8  T
   6    -50.7362689 -0.871564E-08  0.137E-03    8.20      14.3  T
   7    -50.7362689 -0.290076E-08  0.474E-04    8.20      41.4  T
   8    -50.7362689 -0.452786E-09  0.127E-04    8.20     154.6  T
speedup  1.01
cpu  time for SCC    0.01 s
wall time for SCC    0.01 s
speedup  0.96
cpu  time for grad    0.02 s
wall time for grad    0.02 s
 E :    -50.43522073  G :  0.014640    pred/act E change:  0.000D+00 -0.264D-03
Maxdispl :   0.1276   ||displ|| :   0.2541   Lambda : -0.780D-03
Largest |displ|/coords:  0.1276 (  16)  0.1177 (  15)  0.0807 (   4)
................................................................................
.............................. CYCLE   27 ......................................
................................................................................
   1    -50.7335409 -0.507335E+02  0.231E-01    8.23       0.0  T
   2    -50.7335527 -0.117883E-04  0.170E-01    8.25       1.0  T
   3    -50.7335627 -0.100146E-04  0.166E-02    8.28       1.2  T
   4    -50.7335637 -0.966773E-06  0.637E-03    8.27       3.1  T
   5    -50.7335637 -0.190785E-07  0.232E-03    8.27       8.5  T
   6    -50.7335637 -0.716844E-08  0.785E-04    8.27      25.0  T
speedup  1.07
cpu  time for SCC    0.01 s
wall time for SCC    0.01 s
speedup  0.98
cpu  time for grad    0.01 s
wall time for grad    0.01 s
 E :    -50.43577652  G :  0.007782    pred/act E change:  0.000D+00 -0.556D-03
Maxdispl :   0.1628   ||displ|| :   0.3919   Lambda : -0.726D-03
Largest |displ|/coords:  0.1628 (  11)  0.1477 (  16)  0.1417 (   7)
................................................................................
.............................. CYCLE   28 ......................................
................................................................................
   1    -50.7271243 -0.507271E+02  0.345E-01    8.33       0.0  T
   2    -50.7271547 -0.304188E-04  0.256E-01    8.36       1.0  T
   3    -50.7271762 -0.214555E-04  0.288E-02    8.42       1.0  T
   4    -50.7271799 -0.372583E-05  0.995E-03    8.40       2.0  T
   5    -50.7271800 -0.475076E-07  0.390E-03    8.40       5.0  T
   6    -50.7271800 -0.192955E-07  0.108E-03    8.40      18.2  T
   7    -50.7271800 -0.421407E-08  0.359E-04    8.40      54.6  T
speedup  1.06
cpu  time for SCC    0.01 s
wall time for SCC    0.01 s
speedup  0.97
cpu  time for grad    0.01 s
wall time for grad    0.01 s
 E :    -50.43598234  G :  0.024073    pred/act E change: -0.415D-03 -0.206D-03
Maxdispl :   0.0695   ||displ|| :   0.1577   Lambda : -0.694D-03
Largest |displ|/coords:  0.0695 (   6)  0.0570 (   2)  0.0519 (  16)
................................................................................
.............................. CYCLE   29 ......................................
................................................................................
   1    -50.7315175 -0.507315E+02  0.172E-01    8.45       0.0  T
   2    -50.7315269 -0.939905E-05  0.130E-01    8.44       1.0  T
   3    -50.7315339 -0.697812E-05  0.166E-02    8.42       1.2  T
   4    -50.7315353 -0.142387E-05  0.424E-03    8.43       4.6  T
   5    -50.7315353 -0.214982E-07  0.187E-03    8.43      10.5  T
speedup  1.06
cpu  time for SCC    0.01 s
wall time for SCC    0.00 s
speedup  0.97
cpu  time for grad    0.01 s
wall time for grad    0.01 s
 E :    -50.43632552  G :  0.011397    pred/act E change: -0.418D-03 -0.343D-03
Maxdispl :   0.0993   ||displ|| :   0.2625   Lambda : -0.648D-03
Largest |displ|/coords:  0.0993 (  11)  0.0931 (   8)  0.0844 (   7)
................................................................................
.............................. CYCLE   30 ......................................
................................................................................
   1    -50.7348570 -0.507349E+02  0.255E-01    8.45       0.0  T
   2    -50.7348717 -0.146999E-04  0.194E-01    8.44       1.0  T
   3    -50.7348863 -0.146171E-04  0.187E-02    8.42       1.0  T
   4    -50.7348879 -0.159127E-05  0.555E-03    8.43       3.5  T
   5    -50.7348879 -0.310107E-07  0.248E-03    8.43       7.9  T
   6    -50.7348879 -0.547559E-08  0.100E-03    8.43      19.6  T
speedup  0.91
cpu  time for SCC    0.00 s
wall time for SCC    0.01 s
speedup  0.98
cpu  time for grad    0.01 s
wall time for grad    0.01 s
 E :    -50.43642922  G :  0.014957    pred/act E change: -0.356D-03 -0.104D-03
Maxdispl :   0.1263   ||displ|| :   0.2934   Lambda : -0.738D-03
Largest |displ|/coords:  0.1263 (  11)  0.0991 (   6)  0.0955 (   2)
................................................................................
.............................. CYCLE   31 ......................................
................................................................................
   1    -50.7335929 -0.507336E+02  0.220E-01    8.45       0.0  T
   2    -50.7336076 -0.147625E-04  0.163E-01    8.47       1.0  T
   3    -50.7336180 -0.103618E-04  0.207E-02    8.52       1.0  T
   4    -50.7336198 -0.177437E-05  0.676E-03    8.50       2.9  T
   5    -50.7336198 -0.303023E-07  0.262E-03    8.50       7.5  T
   6    -50.7336198 -0.711872E-08  0.848E-04    8.50      23.1  T
speedup  1.00
cpu  time for SCC    0.01 s
wall time for SCC    0.01 s
speedup  1.01
cpu  time for grad    0.01 s
wall time for grad    0.01 s
 E :    -50.43694424  G :  0.007016    pred/act E change: -0.346D-03 -0.515D-03
Maxdispl :   0.2073   ||displ|| :   0.5185   Lambda : -0.753D-03
Largest |displ|/coords:  0.2073 (   2)  0.1993 (   4)  0.1741 (  11)
................................................................................
.............................. CYCLE   32 ......................................
................................................................................
   1    -50.7259358 -0.507259E+02  0.352E-01    8.54       0.0  T
   2    -50.7259595 -0.237698E-04  0.262E-01    8.57       1.0  T
   3    -50.7259762 -0.166889E-04  0.281E-02    8.62       1.0  T
   4    -50.7259794 -0.320723E-05  0.915E-03    8.61       2.1  T
   5    -50.7259795 -0.596393E-07  0.378E-03    8.61       5.2  T
   6    -50.7259795 -0.159083E-07  0.129E-03    8.61      15.1  T
   7    -50.7259795 -0.455702E-08  0.444E-04    8.61      44.2  T
speedup  1.00
cpu  time for SCC    0.01 s
wall time for SCC    0.01 s
speedup  0.95
cpu  time for grad    0.01 s
wall time for grad    0.01 s
 E :    -50.43716137  G :  0.024525    pred/act E change: -0.401D-03 -0.217D-03
Maxdispl :   0.1060   ||displ|| :   0.1777   Lambda : -0.800D-03
Largest |displ|/coords:  0.1060 (   3)  0.0564 (   5)  0.0541 (  12)
................................................................................
.............................. CYCLE   33 ......................................
................................................................................
   1    -50.7323977 -0.507324E+02  0.130E-01    8.61       0.0  T
   2    -50.7324076 -0.993004E-05  0.970E-02    8.61       1.0  T
   3    -50.7324144 -0.683141E-05  0.183E-02    8.60       1.1  T
   4    -50.7324157 -0.128884E-05  0.424E-03    8.61       4.6  T
   5    -50.7324157 -0.276237E-07  0.202E-03    8.61       9.7  T
speedup  1.04
cpu  time for SCC    0.00 s
wall time for SCC    0.00 s
speedup  0.97
cpu  time for grad    0.01 s
wall time for grad    0.01 s
 E :    -50.43750629  G :  0.015015    pred/act E change: -0.478D-03 -0.345D-03
Maxdispl :   0.1444   ||displ|| :   0.3283   Lambda : -0.108D-02
Largest |displ|/coords:  0.1444 (  17)  0.1157 (   6)  0.1032 (   3)
................................................................................
.............................. CYCLE   34 ......................................
................................................................................
   1    -50.7367528 -0.507368E+02  0.285E-01    8.61       0.0  T
   2    -50.7367833 -0.304963E-04  0.215E-01    8.59       1.0  T
   3    -50.7368035 -0.202103E-04  0.319E-02    8.54       1.0  T
   4    -50.7368085 -0.492730E-05  0.743E-03    8.57       2.6  T
   5    -50.7368085 -0.821858E-07  0.354E-03    8.56       5.5  T
   6    -50.7368085 -0.999022E-08  0.141E-03    8.56      13.9  T
   7    -50.7368086 -0.483173E-08  0.343E-04    8.56      57.3  T
speedup  1.06
cpu  time for SCC    0.01 s
wall time for SCC    0.01 s
speedup  1.03
cpu  time for grad    0.01 s
wall time for grad    0.01 s
 E :    -50.43729016  G :  0.028056    pred/act E change: -0.413D-03  0.216D-03
Maxdispl :   0.1118   ||displ|| :   0.2582   Lambda : -0.138D-02
Largest |displ|/coords:  0.1118 (  11)  0.0864 (   4)  0.0770 (   3)
................................................................................
.............................. CYCLE   35 ......................................
................................................................................
   1    -50.7319788 -0.507320E+02  0.213E-01    8.56       0.0  T
   2    -50.7319987 -0.198931E-04  0.157E-01    8.59       1.0  T
   3    -50.7320085 -0.972954E-05  0.247E-02    8.64       1.0  T
   4    -50.7320114 -0.296845E-05  0.657E-03    8.62       3.0  T
   5    -50.7320115 -0.467787E-07  0.269E-03    8.62       7.3  T
   6    -50.7320115 -0.597654E-08  0.103E-03    8.62      19.1  T
speedup  0.88
cpu  time for SCC    0.01 s
wall time for SCC    0.01 s
speedup  0.97
cpu  time for grad    0.01 s
wall time for grad    0.01 s
 E :    -50.43804172  G :  0.011894    pred/act E change: -0.600D-03 -0.752D-03
Maxdispl :   0.1993   ||displ|| :   0.3541   Lambda : -0.505D-03
Largest |displ|/coords:  0.1993 (   3)  0.1353 (   4)  0.1249 (   2)
................................................................................
.............................. CYCLE   36 ......................................
................................................................................
   1    -50.7301743 -0.507302E+02  0.223E-01    8.62       0.0  T
   2    -50.7301822 -0.795569E-05  0.166E-01    8.64       1.0  T
   3    -50.7301895 -0.731347E-05  0.180E-02    8.66       1.1  T
   4    -50.7301902 -0.686317E-06  0.582E-03    8.66       3.4  T
   5    -50.7301902 -0.255297E-07  0.208E-03    8.66       9.4  T
   6    -50.7301903 -0.476749E-08  0.799E-04    8.66      24.5  T
speedup  1.07
cpu  time for SCC    0.01 s
wall time for SCC    0.01 s
speedup  0.98
cpu  time for grad    0.01 s
wall time for grad    0.01 s
 E :    -50.43821157  G :  0.014577    pred/act E change: -0.735D-03 -0.170D-03
Maxdispl :   0.1523   ||displ|| :   0.3225   Lambda : -0.492D-03
Largest |displ|/coords:  0.1523 (   4)  0.1351 (   3)  0.1066 (  11)
................................................................................
.............................. CYCLE   37 ......................................
................................................................................
   1    -50.7287884 -0.507288E+02  0.188E-01    8.64       0.0  T
   2    -50.7287962 -0.782069E-05  0.141E-01    8.64       1.0  T
   3    -50.7288048 -0.856676E-05  0.167E-02    8.65       1.2  T
   4    -50.7288053 -0.553138E-06  0.507E-03    8.65       3.9  T
   5    -50.7288053 -0.262957E-07  0.196E-03    8.65      10.0  T
   6    -50.7288054 -0.498885E-08  0.883E-04    8.65      22.2  T
speedup  0.91
cpu  time for SCC    0.00 s
wall time for SCC    0.01 s
speedup  0.98
cpu  time for grad    0.01 s
wall time for grad    0.01 s
 E :    -50.43850371  G :  0.015397    pred/act E change: -0.284D-03 -0.292D-03
Maxdispl :   0.1375   ||displ|| :   0.2324   Lambda : -0.548D-03
Largest |displ|/coords:  0.1375 (   3)  0.0869 (   4)  0.0621 (   6)
................................................................................
.............................. CYCLE   38 ......................................
................................................................................
   1    -50.7366239 -0.507366E+02  0.986E-02    8.70       0.0  T
   2    -50.7366316 -0.779443E-05  0.716E-02    8.68       1.0  T
   3    -50.7366347 -0.301541E-05  0.168E-02    8.66       1.2  T
   4    -50.7366356 -0.980537E-06  0.347E-03    8.67       5.6  T
   5    -50.7366357 -0.190469E-07  0.121E-03    8.67      16.2  T
   6    -50.7366357 -0.112889E-08  0.569E-04    8.67      34.4  T
speedup  1.09
cpu  time for SCC    0.01 s
wall time for SCC    0.01 s
speedup  1.05
cpu  time for grad    0.01 s
wall time for grad    0.01 s
 E :    -50.43861746  G :  0.011202    pred/act E change: -0.272D-03 -0.114D-03
Maxdispl :   0.2069   ||displ|| :   0.3703   Lambda : -0.480D-03
Largest |displ|/coords:  0.2069 (   3)  0.1526 (   4)  0.1225 (  11)
................................................................................
.............................. CYCLE   39 ......................................
................................................................................
   1    -50.7319422 -0.507319E+02  0.214E-01    8.63       0.0  T
   2    -50.7319531 -0.109319E-04  0.158E-01    8.65       1.0  T
   3    -50.7319608 -0.762000E-05  0.197E-02    8.68       1.0  T
   4    -50.7319622 -0.142446E-05  0.664E-03    8.67       3.0  T
   5    -50.7319622 -0.294301E-07  0.234E-03    8.67       8.4  T
   6    -50.7319622 -0.625907E-08  0.980E-04    8.67      20.0  T
speedup  1.09
cpu  time for SCC    0.01 s
wall time for SCC    0.01 s
speedup  1.04
cpu  time for grad    0.01 s
wall time for grad    0.01 s
 E :    -50.43892755  G :  0.010053    pred/act E change: -0.289D-03 -0.310D-03
Maxdispl :   0.1756   ||displ|| :   0.3275   Lambda : -0.314D-03
Largest |displ|/coords:  0.1756 (   3)  0.1351 (   4)  0.1087 (  13)
................................................................................
.............................. CYCLE   40 ......................................
................................................................................
   1    -50.7305822 -0.507306E+02  0.182E-01    8.65       0.0  T
   2    -50.7305890 -0.683023E-05  0.135E-01    8.66       1.0  T
   3    -50.7305940 -0.501447E-05  0.172E-02    8.68       1.1  T
   4    -50.7305949 -0.819593E-06  0.578E-03    8.67       3.4  T
   5    -50.7305949 -0.282061E-07  0.177E-03    8.67      11.1  T
   6    -50.7305949 -0.350931E-08  0.863E-04    8.67      22.7  T
speedup  1.07
cpu  time for SCC    0.01 s
wall time for SCC    0.01 s
speedup  0.98
cpu  time for grad    0.01 s
wall time for grad    0.01 s
 E :    -50.43902377  G :  0.014131    pred/act E change: -0.273D-03 -0.962D-04
Maxdispl :   0.0863   ||displ|| :   0.1465   Lambda : -0.270D-03
Largest |displ|/coords:  0.0863 (   3)  0.0651 (   4)  0.0532 (  14)
................................................................................
.............................. CYCLE   41 ......................................
................................................................................
   1    -50.7330195 -0.507330E+02  0.907E-02    8.69       0.0  T
   2    -50.7330213 -0.182674E-05  0.669E-02    8.69       1.0  T
   3    -50.7330232 -0.185100E-05  0.763E-03    8.69       2.6  T
   4    -50.7330233 -0.888559E-07  0.299E-03    8.69       6.6  T
   5    -50.7330233 -0.789065E-08  0.785E-04    8.69      25.0  T
speedup  1.06
cpu  time for SCC    0.01 s
wall time for SCC    0.00 s
speedup  0.97
cpu  time for grad    0.01 s
wall time for grad    0.01 s
 E :    -50.43918941  G :  0.010134    pred/act E change: -0.174D-03 -0.166D-03
Maxdispl :   0.1444   ||displ|| :   0.2743   Lambda : -0.343D-03
Largest |displ|/coords:  0.1444 (   3)  0.0946 (  11)  0.0915 (   4)
................................................................................
.............................. CYCLE   42 ......................................
................................................................................
   1    -50.7337705 -0.507338E+02  0.139E-01    8.69       0.0  T
   2    -50.7337748 -0.435989E-05  0.105E-01    8.68       1.0  T
   3    -50.7337787 -0.383731E-05  0.110E-02    8.67       1.8  T
   4    -50.7337792 -0.551394E-06  0.514E-03    8.67       3.8  T
   5    -50.7337792 -0.242022E-07  0.142E-03    8.67      13.9  T
   6    -50.7337792 -0.251236E-08  0.772E-04    8.67      25.4  T
speedup  1.09
cpu  time for SCC    0.01 s
wall time for SCC    0.01 s
speedup  1.05
cpu  time for grad    0.01 s
wall time for grad    0.01 s
 E :    -50.43929527  G :  0.009241    pred/act E change: -0.138D-03 -0.106D-03
Maxdispl :   0.1010   ||displ|| :   0.2095   Lambda : -0.266D-03
Largest |displ|/coords:  0.1010 (   3)  0.0954 (   4)  0.0590 (  15)
................................................................................
.............................. CYCLE   43 ......................................
................................................................................
   1    -50.7348131 -0.507348E+02  0.130E-01    8.69       0.0  T
   2    -50.7348166 -0.349006E-05  0.969E-02    8.69       1.0  T
   3    -50.7348199 -0.332168E-05  0.114E-02    8.70       1.7  T
   4    -50.7348202 -0.312274E-06  0.434E-03    8.70       4.5  T
   5    -50.7348202 -0.194131E-07  0.131E-03    8.70      15.0  T
   6    -50.7348202 -0.292476E-08  0.616E-04    8.70      31.8  T
speedup  0.86
cpu  time for SCC    0.00 s
wall time for SCC    0.01 s
speedup  0.97
cpu  time for grad    0.01 s
wall time for grad    0.01 s
 E :    -50.43946166  G :  0.006879    pred/act E change: -0.184D-03 -0.166D-03
Maxdispl :   0.1609   ||displ|| :   0.3822   Lambda : -0.409D-03
Largest |displ|/coords:  0.1609 (   4)  0.1582 (   3)  0.1427 (  14)
................................................................................
.............................. CYCLE   44 ......................................
................................................................................
   1    -50.7356002 -0.507356E+02  0.262E-01    8.74       0.0  T
   2    -50.7356225 -0.223535E-04  0.196E-01    8.72       1.0  T
   3    -50.7356396 -0.170315E-04  0.290E-02    8.70       1.0  T
   4    -50.7356426 -0.303212E-05  0.849E-03    8.71       2.3  T
   5    -50.7356427 -0.996147E-07  0.377E-03    8.71       5.2  T
   6    -50.7356427 -0.173376E-07  0.158E-03    8.71      12.4  T
   7    -50.7356427 -0.726091E-08  0.469E-04    8.71      41.9  T
speedup  0.95
cpu  time for SCC    0.01 s
wall time for SCC    0.01 s
speedup  1.00
cpu  time for grad    0.01 s
wall time for grad    0.01 s
 E :    -50.43876273  G :  0.035111    pred/act E change: -0.139D-03  0.699D-03
Maxdispl :   0.0781   ||displ|| :   0.1364   Lambda : -0.177D-02
Largest |displ|/coords:  0.0781 (  11)  0.0711 (   7)  0.0456 (   6)
................................................................................
.............................. CYCLE   45 ......................................
................................................................................
   1    -50.7351801 -0.507352E+02  0.131E-01    8.66       0.0  T
   2    -50.7351991 -0.189054E-04  0.957E-02    8.67       1.0  T
   3    -50.7352097 -0.106912E-04  0.251E-02    8.70       1.0  T
   4    -50.7352117 -0.200117E-05  0.631E-03    8.69       3.1  T
   5    -50.7352118 -0.792292E-07  0.262E-03    8.69       7.5  T
   6    -50.7352118 -0.645785E-08  0.117E-03    8.69      16.8  T
speedup  1.09
cpu  time for SCC    0.01 s
wall time for SCC    0.01 s
speedup  1.06
cpu  time for grad    0.01 s
wall time for grad    0.01 s
 E :    -50.43959237  G :  0.007785    pred/act E change: -0.235D-03 -0.830D-03
Maxdispl :   0.0523   ||displ|| :   0.1429   Lambda : -0.242D-03
Largest |displ|/coords:  0.0523 (   4)  0.0496 (   7)  0.0493 (  11)
................................................................................
.............................. CYCLE   46 ......................................
................................................................................
   1    -50.7326993 -0.507327E+02  0.101E-01    8.70       0.0  T
   2    -50.7327038 -0.451039E-05  0.761E-02    8.71       1.0  T
   3    -50.7327082 -0.434199E-05  0.114E-02    8.71       1.7  T
   4    -50.7327087 -0.505334E-06  0.329E-03    8.71       6.0  T
   5    -50.7327087 -0.116007E-07  0.148E-03    8.71      13.3  T
   6    -50.7327087 -0.353353E-08  0.504E-04    8.71      38.9  T
speedup  1.05
cpu  time for SCC    0.01 s
wall time for SCC    0.01 s
speedup  1.04
cpu  time for grad    0.01 s
wall time for grad    0.01 s
 E :    -50.43956552  G :  0.015614    pred/act E change: -0.899D-03  0.268D-04
Maxdispl :   0.0659   ||displ|| :   0.1608   Lambda : -0.321D-03
Largest |displ|/coords:  0.0659 (   3)  0.0593 (   4)  0.0569 (   6)
................................................................................
.............................. CYCLE   47 ......................................
................................................................................
   1    -50.7395894 -0.507396E+02  0.889E-02    8.76       0.0  T
   2    -50.7395967 -0.726039E-05  0.649E-02    8.76       1.0  T
   3    -50.7396009 -0.417318E-05  0.158E-02    8.74       1.2  T
   4    -50.7396016 -0.762119E-06  0.428E-03    8.75       4.6  T
   5    -50.7396017 -0.344062E-07  0.151E-03    8.75      13.0  T
   6    -50.7396017 -0.211622E-08  0.811E-04    8.75      24.2  T
speedup  1.07
cpu  time for SCC    0.01 s
wall time for SCC    0.01 s
speedup  0.98
cpu  time for grad    0.01 s
wall time for grad    0.01 s
 E :    -50.43962041  G :  0.011544    pred/act E change: -0.123D-03 -0.549D-04
Maxdispl :   0.1551   ||displ|| :   0.3162   Lambda : -0.434D-03
Largest |displ|/coords:  0.1551 (   3)  0.1295 (   4)  0.1146 (  14)
................................................................................
.............................. CYCLE   48 ......................................
................................................................................
   1    -50.7333478 -0.507333E+02  0.212E-01    8.66       0.0  T
   2    -50.7333569 -0.917087E-05  0.157E-01    8.67       1.0  T
   3    -50.7333640 -0.702307E-05  0.180E-02    8.69       1.1  T
   4    -50.7333650 -0.100225E-05  0.611E-03    8.68       3.2  T
   5    -50.7333650 -0.303445E-07  0.213E-03    8.68       9.2  T
   6    -50.7333650 -0.611291E-08  0.925E-04    8.68      21.2  T
speedup  1.07
cpu  time for SCC    0.01 s
wall time for SCC    0.01 s
speedup  0.98
cpu  time for grad    0.01 s
wall time for grad    0.01 s
 E :    -50.43961143  G :  0.015057    pred/act E change: -0.165D-03  0.898D-05
Maxdispl :   0.0482   ||displ|| :   0.0930   Lambda : -0.408D-03
Largest |displ|/coords:  0.0482 (   3)  0.0396 (  14)  0.0275 (   4)
................................................................................
.............................. CYCLE   49 ......................................
................................................................................
   1    -50.7356988 -0.507357E+02  0.787E-02    8.71       0.0  T
   2    -50.7357026 -0.382975E-05  0.580E-02    8.71       1.0  T
   3    -50.7357047 -0.206279E-05  0.107E-02    8.69       1.8  T
   4    -50.7357052 -0.487971E-06  0.299E-03    8.70       6.6  T
   5    -50.7357052 -0.127324E-07  0.104E-03    8.70      18.9  T
speedup  1.00
cpu  time for SCC    0.01 s
wall time for SCC    0.01 s
speedup  0.95
cpu  time for grad    0.01 s
wall time for grad    0.01 s
 E :    -50.43979267  G :  0.006488    pred/act E change: -0.239D-03 -0.181D-03
Maxdispl :   0.0585   ||displ|| :   0.1372   Lambda : -0.169D-03
Largest |displ|/coords:  0.0585 (   4)  0.0551 (   3)  0.0450 (  11)
................................................................................
.............................. CYCLE   50 ......................................
................................................................................
   1    -50.7350245 -0.507350E+02  0.975E-02    8.72       0.0  T
   2    -50.7350287 -0.416016E-05  0.726E-02    8.73       1.0  T
   3    -50.7350316 -0.286329E-05  0.114E-02    8.74       1.7  T
   4    -50.7350321 -0.552680E-06  0.340E-03    8.74       5.8  T
   5    -50.7350321 -0.171139E-07  0.126E-03    8.74      15.5  T
   6    -50.7350321 -0.173062E-08  0.579E-04    8.74      33.9  T
speedup  1.07
cpu  time for SCC    0.01 s
wall time for SCC    0.01 s
speedup  0.98
cpu  time for grad    0.01 s
wall time for grad    0.01 s
 E :    -50.43977471  G :  0.012832    pred/act E change: -0.206D-03  0.180D-04
Maxdispl :   0.0342   ||displ|| :   0.0808   Lambda : -0.202D-03
Largest |displ|/coords:  0.0342 (  11)  0.0287 (   9)  0.0264 (  18)
................................................................................
.............................. CYCLE   51 ......................................
................................................................................
   1    -50.7359724 -0.507360E+02  0.601E-02    8.75       0.0  T
   2    -50.7359741 -0.169800E-05  0.448E-02    8.74       1.0  T
   3    -50.7359751 -0.104762E-05  0.748E-03    8.74       2.6  T
   4    -50.7359754 -0.230831E-06  0.206E-03    8.74       9.5  T
   5    -50.7359754 -0.668071E-08  0.705E-04    8.74      27.8  T
speedup  1.04
cpu  time for SCC    0.00 s
wall time for SCC    0.00 s
speedup  0.95
cpu  time for grad    0.01 s
wall time for grad    0.01 s
 E :    -50.43988962  G :  0.004906    pred/act E change: -0.860D-04 -0.115D-03
Maxdispl :   0.0946   ||displ|| :   0.2294   Lambda : -0.150D-03
Largest |displ|/coords:  0.0946 (   5)  0.0924 (   3)  0.0828 (   4)
................................................................................
.............................. CYCLE   52 ......................................
................................................................................
   1    -50.7338477 -0.507338E+02  0.167E-01    8.64       0.0  T
   2    -50.7338528 -0.513879E-05  0.125E-01    8.64       1.0  T
   3    -50.7338578 -0.502096E-05  0.157E-02    8.64       1.3  T
   4    -50.7338582 -0.421018E-06  0.444E-03    8.64       4.4  T
   5    -50.7338583 -0.261490E-07  0.161E-03    8.64      12.2  T
   6    -50.7338583 -0.341576E-08  0.866E-04    8.64      22.6  T
speedup  1.05
cpu  time for SCC    0.01 s
wall time for SCC    0.01 s
speedup  1.04
cpu  time for grad    0.01 s
wall time for grad    0.01 s
 E :    -50.43990460  G :  0.007673    pred/act E change: -0.101D-03 -0.150D-04
Maxdispl :   0.0379   ||displ|| :   0.0787   Lambda : -0.154D-03
Largest |displ|/coords:  0.0379 (   9)  0.0292 (   8)  0.0232 (  18)

generating ANC from model Hessian ...
 Shifting diagonal of input Hessian by   5.096221264791216E-003
 Lowest  eigenvalues of input Hessian
    0.005000   -0.000000   -0.000000   -0.000000   -0.000000   -0.000000
    0.000000    0.005102    0.005154    0.005400    0.005895    0.005981
    0.006133    0.006276    0.006476    0.007322    0.008026    0.008562
 Highest eigenvalues
    1.385263    1.409027    1.429503    2.541997    3.189452    3.925779
 
cpu  time for ANC gen    0.01 s
wall time for ANC gen    0.01 s
................................................................................
.............................. CYCLE   53 ......................................
................................................................................
   1    -50.7356752 -0.507357E+02  0.585E-02    8.70       0.0  T
   2    -50.7356761 -0.883131E-06  0.435E-02    8.70       1.0  T
   3    -50.7356766 -0.450271E-06  0.591E-03    8.71       3.3  T
   4    -50.7356767 -0.137933E-06  0.215E-03    8.71       9.1  T
   5    -50.7356767 -0.728497E-08  0.543E-04    8.71      36.1  T
   6    -50.7356767 -0.348443E-09  0.326E-04    8.71      60.2  T
speedup  1.07
cpu  time for SCC    0.01 s
wall time for SCC    0.01 s
speedup  1.00
cpu  time for grad    0.01 s
wall time for grad    0.01 s
 E :    -50.44000437  G :  0.005488    pred/act E change:  0.000D+00 -0.998D-04
Maxdispl :   0.0831   ||displ|| :   0.1635   Lambda : -0.271D-03
Largest |displ|/coords:  0.0831 (   8)  0.0652 (   3)  0.0522 (   7)
................................................................................
.............................. CYCLE   54 ......................................
................................................................................
   1    -50.7351833 -0.507352E+02  0.183E-01    8.69       0.0  T
   2    -50.7351870 -0.370271E-05  0.139E-01    8.69       1.0  T
   3    -50.7351917 -0.469713E-05  0.934E-03    8.69       2.1  T
   4    -50.7351918 -0.157766E-06  0.401E-03    8.69       4.9  T
   5    -50.7351918 -0.131317E-07  0.127E-03    8.69      15.4  T
   6    -50.7351918 -0.166991E-08  0.620E-04    8.69      31.7  T
speedup  0.88
cpu  time for SCC    0.00 s
wall time for SCC    0.01 s
speedup  0.96
cpu  time for grad    0.01 s
wall time for grad    0.01 s
 E :    -50.44022013  G :  0.006360    pred/act E change:  0.000D+00 -0.216D-03
Maxdispl :   0.1531   ||displ|| :   0.2933   Lambda : -0.316D-03
Largest |displ|/coords:  0.1531 (   8)  0.1344 (   3)  0.0967 (   7)
................................................................................
.............................. CYCLE   55 ......................................
................................................................................
   1    -50.7321802 -0.507322E+02  0.292E-01    8.68       0.0  T
   2    -50.7321892 -0.904634E-05  0.220E-01    8.67       1.0  T
   3    -50.7321992 -0.100198E-04  0.170E-02    8.67       1.2  T
   4    -50.7322000 -0.774923E-06  0.577E-03    8.67       3.4  T
   5    -50.7322000 -0.291430E-07  0.287E-03    8.67       6.8  T
   6    -50.7322001 -0.127962E-07  0.110E-03    8.67      17.7  T
speedup  1.03
cpu  time for SCC    0.01 s
wall time for SCC    0.01 s
speedup  0.96
cpu  time for grad    0.01 s
wall time for grad    0.01 s
 E :    -50.44020430  G :  0.023733    pred/act E change: -0.139D-03  0.158D-04
Maxdispl :   0.0405   ||displ|| :   0.0978   Lambda : -0.575D-03
Largest |displ|/coords:  0.0405 (   7)  0.0340 (  16)  0.0327 (   3)
................................................................................
.............................. CYCLE   56 ......................................
................................................................................
   1    -50.7352193 -0.507352E+02  0.119E-01    8.68       0.0  T
   2    -50.7352267 -0.740744E-05  0.895E-02    8.68       1.0  T
   3    -50.7352323 -0.562214E-05  0.152E-02    8.68       1.3  T
   4    -50.7352333 -0.999560E-06  0.332E-03    8.68       5.9  T
   5    -50.7352333 -0.937766E-08  0.183E-03    8.68      10.7  T
speedup  1.04
cpu  time for SCC    0.01 s
wall time for SCC    0.00 s
speedup  0.98
cpu  time for grad    0.01 s
wall time for grad    0.01 s
 E :    -50.44045138  G :  0.004075    pred/act E change: -0.171D-03 -0.247D-03
Maxdispl :   0.0611   ||displ|| :   0.1037   Lambda : -0.113D-03
Largest |displ|/coords:  0.0611 (   3)  0.0388 (   8)  0.0366 (  19)
................................................................................
.............................. CYCLE   57 ......................................
................................................................................
   1    -50.7354630 -0.507355E+02  0.864E-02    8.67       0.0  T
   2    -50.7354639 -0.970428E-06  0.652E-02    8.66       1.0  T
   3    -50.7354649 -0.101568E-05  0.662E-03    8.66       3.0  T
   4    -50.7354650 -0.776023E-07  0.254E-03    8.66       7.7  T
   5    -50.7354650 -0.489703E-08  0.642E-04    8.66      30.6  T
speedup  1.04
cpu  time for SCC    0.00 s
wall time for SCC    0.00 s
speedup  1.03
cpu  time for grad    0.01 s
wall time for grad    0.01 s
 E :    -50.44054752  G :  0.004073    pred/act E change: -0.290D-03 -0.961D-04
Maxdispl :   0.2869   ||displ|| :   0.4792   Lambda : -0.414D-03
Largest |displ|/coords:  0.2869 (   3)  0.2133 (   8)  0.1611 (   1)
................................................................................
.............................. CYCLE   58 ......................................
................................................................................
   1    -50.7312106 -0.507312E+02  0.401E-01    8.63       0.0  T
   2    -50.7312266 -0.159652E-04  0.301E-01    8.63       1.0  T
   3    -50.7312429 -0.163225E-04  0.280E-02    8.62       1.0  T
   4    -50.7312443 -0.144712E-05  0.905E-03    8.63       2.2  T
   5    -50.7312444 -0.979881E-07  0.363E-03    8.63       5.4  T
   6    -50.7312445 -0.156850E-07  0.197E-03    8.63      10.0  T
   7    -50.7312445 -0.590477E-08  0.408E-04    8.63      48.1  T
speedup  1.04
cpu  time for SCC    0.01 s
wall time for SCC    0.01 s
speedup  1.03
cpu  time for grad    0.01 s
wall time for grad    0.01 s
 E :    -50.44052359  G :  0.024269    pred/act E change: -0.571D-04  0.239D-04
Maxdispl :   0.0932   ||displ|| :   0.1884   Lambda : -0.734D-03
Largest |displ|/coords:  0.0932 (   3)  0.0918 (   8)  0.0598 (  16)
................................................................................
.............................. CYCLE   59 ......................................
................................................................................
   1    -50.7357363 -0.507357E+02  0.191E-01    8.65       0.0  T
   2    -50.7357474 -0.110991E-04  0.143E-01    8.65       1.0  T
   3    -50.7357557 -0.830145E-05  0.195E-02    8.65       1.0  T
   4    -50.7357572 -0.151422E-05  0.483E-03    8.65       4.1  T
   5    -50.7357572 -0.260455E-07  0.265E-03    8.65       7.4  T
speedup  0.85
cpu  time for SCC    0.00 s
wall time for SCC    0.00 s
speedup  0.96
cpu  time for grad    0.01 s
wall time for grad    0.01 s
 E :    -50.44075655  G :  0.002760    pred/act E change: -0.254D-03 -0.233D-03
Maxdispl :   0.0806   ||displ|| :   0.1143   Lambda : -0.870D-04
Largest |displ|/coords:  0.0806 (   3)  0.0510 (   1)  0.0281 (   8)
................................................................................
.............................. CYCLE   60 ......................................
................................................................................
   1    -50.7355423 -0.507355E+02  0.813E-02    8.64       0.0  T
   2    -50.7355430 -0.793219E-06  0.613E-02    8.64       1.0  T
   3    -50.7355439 -0.887259E-06  0.567E-03    8.64       3.5  T
   4    -50.7355440 -0.590550E-07  0.220E-03    8.64       8.9  T
   5    -50.7355440 -0.508055E-08  0.641E-04    8.64      30.6  T
   6    -50.7355440 -0.379082E-09  0.385E-04    8.64      50.9  T
speedup  1.07
cpu  time for SCC    0.01 s
wall time for SCC    0.01 s
speedup  1.00
cpu  time for grad    0.01 s
wall time for grad    0.01 s
 E :    -50.44083321  G :  0.003746    pred/act E change: -0.380D-03 -0.767D-04
Maxdispl :   0.3730   ||displ|| :   0.5185   Lambda : -0.316D-03
Largest |displ|/coords:  0.3730 (   3)  0.2214 (   1)  0.1488 (   8)
................................................................................
.............................. CYCLE   61 ......................................
................................................................................
   1    -50.7306508 -0.507307E+02  0.362E-01    8.60       0.0  T
   2    -50.7306660 -0.151540E-04  0.272E-01    8.60       1.0  T
   3    -50.7306817 -0.157303E-04  0.251E-02    8.60       1.0  T
   4    -50.7306831 -0.142489E-05  0.926E-03    8.60       2.1  T
   5    -50.7306832 -0.106241E-06  0.341E-03    8.60       5.8  T
   6    -50.7306832 -0.137333E-07  0.191E-03    8.60      10.3  T
   7    -50.7306833 -0.641657E-08  0.403E-04    8.60      48.6  T
   8    -50.7306833 -0.428997E-09  0.104E-04    8.60     188.5  T
speedup  0.96
cpu  time for SCC    0.01 s
wall time for SCC    0.01 s
speedup  1.01
cpu  time for grad    0.02 s
wall time for grad    0.02 s
 E :    -50.44066489  G :  0.026516    pred/act E change: -0.441D-04  0.168D-03
Maxdispl :   0.1624   ||displ|| :   0.2512   Lambda : -0.846D-03
Largest |displ|/coords:  0.1624 (   3)  0.0956 (   8)  0.0880 (   1)
................................................................................
.............................. CYCLE   62 ......................................
................................................................................
   1    -50.7351401 -0.507351E+02  0.210E-01    8.63       0.0  T
   2    -50.7351509 -0.108740E-04  0.157E-01    8.63       1.0  T
   3    -50.7351594 -0.847149E-05  0.199E-02    8.63       1.0  T
   4    -50.7351609 -0.146442E-05  0.568E-03    8.63       3.5  T
   5    -50.7351609 -0.474103E-07  0.274E-03    8.63       7.1  T
speedup  0.85
cpu  time for SCC    0.00 s
wall time for SCC    0.00 s
speedup  0.96
cpu  time for grad    0.01 s
wall time for grad    0.01 s
 E :    -50.44097226  G :  0.004066    pred/act E change: -0.201D-03 -0.307D-03
Maxdispl :   0.0729   ||displ|| :   0.0927   Lambda : -0.542D-04
Largest |displ|/coords:  0.0729 (   3)  0.0410 (   1)  0.0174 (   4)
................................................................................
.............................. CYCLE   63 ......................................
................................................................................
   1    -50.7351649 -0.507352E+02  0.550E-02    8.63       0.0  T
   2    -50.7351652 -0.284889E-06  0.414E-02    8.63       1.0  T
   3    -50.7351655 -0.304810E-06  0.305E-03    8.63       6.4  T
   4    -50.7351655 -0.286489E-07  0.126E-03    8.63      15.5  T
   5    -50.7351655 -0.177073E-08  0.392E-04    8.63      50.1  T
speedup  0.87
cpu  time for SCC    0.00 s
wall time for SCC    0.00 s
speedup  0.97
cpu  time for grad    0.01 s
wall time for grad    0.01 s
 E :    -50.44102279  G :  0.004337    pred/act E change: -0.450D-03 -0.505D-04
Maxdispl :   0.4481   ||displ|| :   0.5608   Lambda : -0.308D-03
Largest |displ|/coords:  0.4481 (   3)  0.2437 (   1)  0.0967 (  13)
................................................................................
.............................. CYCLE   64 ......................................
................................................................................
   1    -50.7322836 -0.507323E+02  0.324E-01    8.62       0.0  T
   2    -50.7322958 -0.121670E-04  0.245E-01    8.62       1.0  T
   3    -50.7323098 -0.139701E-04  0.184E-02    8.62       1.1  T
   4    -50.7323108 -0.103839E-05  0.791E-03    8.62       2.5  T
   5    -50.7323109 -0.696072E-07  0.297E-03    8.62       6.6  T
   6    -50.7323109 -0.107283E-07  0.122E-03    8.62      16.1  T
speedup  0.93
cpu  time for SCC    0.00 s
wall time for SCC    0.01 s
speedup  0.99
cpu  time for grad    0.01 s
wall time for grad    0.01 s
 E :    -50.44109654  G :  0.018457    pred/act E change: -0.273D-04 -0.738D-04
Maxdispl :   0.1048   ||displ|| :   0.1465   Lambda : -0.310D-03
Largest |displ|/coords:  0.1048 (   3)  0.0633 (   1)  0.0405 (   8)
................................................................................
.............................. CYCLE   65 ......................................
................................................................................
   1    -50.7350224 -0.507350E+02  0.110E-01    8.64       0.0  T
   2    -50.7350264 -0.404206E-05  0.823E-02    8.64       1.0  T
   3    -50.7350296 -0.318040E-05  0.117E-02    8.64       1.7  T
   4    -50.7350301 -0.530442E-06  0.329E-03    8.64       6.0  T
   5    -50.7350301 -0.150665E-07  0.146E-03    8.64      13.5  T
   6    -50.7350301 -0.223667E-08  0.707E-04    8.64      27.7  T
speedup  0.93
cpu  time for SCC    0.00 s
wall time for SCC    0.01 s
speedup  0.98
cpu  time for grad    0.01 s
wall time for grad    0.01 s
[...]
   2    -50.7389222 -0.724486E-07  0.161E-02    8.70       1.2  T
   3    -50.7389222 -0.798551E-07  0.130E-03    8.70      15.1  T
   4    -50.7389222 -0.396717E-08  0.581E-04    8.70      33.7  T
   5    -50.7389222 -0.263427E-09  0.132E-04    8.70     148.8  T
speedup  1.06
cpu  time for SCC    0.00 s
wall time for SCC    0.00 s
speedup  0.98
cpu  time for grad    0.01 s
wall time for grad    0.01 s
 E :    -50.44828604  G :  0.000441    pred/act E change: -0.463D-06 -0.707D-06
Maxdispl :   0.0203   ||displ|| :   0.0341   Lambda : -0.776D-06
Largest |displ|/coords:  0.0203 (   2)  0.0149 (   5)  0.0141 (   1)
................................................................................
.............................. CYCLE  145 ......................................
................................................................................
   1    -50.7389243 -0.507389E+02  0.144E-02    8.70       0.0  T
   2    -50.7389243 -0.299046E-07  0.108E-02    8.70       1.8  T
   3    -50.7389243 -0.295432E-07  0.826E-04    8.70      23.7  T
   4    -50.7389243 -0.230533E-08  0.361E-04    8.70      54.3  T
speedup  0.79
cpu  time for SCC    0.00 s
wall time for SCC    0.00 s
speedup  0.98
cpu  time for grad    0.01 s
wall time for grad    0.01 s
 E :    -50.44828664  G :  0.000423    pred/act E change: -0.513D-06 -0.603D-06
Maxdispl :   0.0169   ||displ|| :   0.0294   Lambda : -0.950D-06
Largest |displ|/coords:  0.0169 (   2)  0.0167 (   5)  0.0083 (   1)
................................................................................
.............................. CYCLE  146 ......................................
................................................................................
   1    -50.7389483 -0.507389E+02  0.150E-02    8.70       0.0  T
   2    -50.7389483 -0.268686E-07  0.112E-02    8.70       1.8  T
   3    -50.7389483 -0.225317E-07  0.902E-04    8.70      21.7  T
   4    -50.7389483 -0.292248E-08  0.376E-04    8.70      52.1  T
speedup  1.03
cpu  time for SCC    0.00 s
wall time for SCC    0.00 s
speedup  1.03
cpu  time for grad    0.01 s
wall time for grad    0.01 s
 E :    -50.44828733  G :  0.000392    pred/act E change: -0.388D-06 -0.684D-06
Maxdispl :   0.0141   ||displ|| :   0.0265   Lambda : -0.602D-06
Largest |displ|/coords:  0.0141 (   2)  0.0137 (   5)  0.0126 (   1)

generating ANC from model Hessian ...
 Shifting diagonal of input Hessian by   5.151537519110846E-003
 Lowest  eigenvalues of input Hessian
    0.005000   -0.000000   -0.000000   -0.000000    0.000000    0.000000
    0.000000    0.005355    0.005436    0.005741    0.006147    0.007119
    0.007534    0.007685    0.007977    0.008585    0.009388    0.009540
 Highest eigenvalues
    1.386391    1.395510    1.412315    2.654645    3.190383    3.905514
 
cpu  time for ANC gen    0.02 s
wall time for ANC gen    0.02 s
................................................................................
.............................. CYCLE  147 ......................................
................................................................................
   1    -50.7389510 -0.507390E+02  0.132E-02    8.70       0.0  T
   2    -50.7389510 -0.166114E-07  0.992E-03    8.70       2.0  T
   3    -50.7389510 -0.151323E-07  0.658E-04    8.70      29.8  T
   4    -50.7389510 -0.167802E-08  0.311E-04    8.70      63.1  T
speedup  1.05
cpu  time for SCC    0.00 s
wall time for SCC    0.00 s
speedup  0.98
cpu  time for grad    0.01 s
wall time for grad    0.01 s
 E :    -50.44828777  G :  0.000331    pred/act E change:  0.000D+00 -0.440D-06
Maxdispl :   0.0018   ||displ|| :   0.0043   Lambda : -0.331D-06
Largest |displ|/coords:  0.0018 (   5)  0.0016 (  18)  0.0014 (   2)
................................................................................
.............................. CYCLE  148 ......................................
................................................................................
   1    -50.7389587 -0.507390E+02  0.447E-03    8.70       0.0  T
   2    -50.7389587 -0.256896E-08  0.337E-03    8.70       5.8  T
   3    -50.7389587 -0.239378E-08  0.339E-04    8.70      57.9  T
   4    -50.7389587 -0.288054E-09  0.878E-05    8.70     223.4  T
speedup  1.08
cpu  time for SCC    0.00 s
wall time for SCC    0.00 s
speedup  1.06
cpu  time for grad    0.01 s
wall time for grad    0.01 s
 E :    -50.44828804  G :  0.000218    pred/act E change:  0.000D+00 -0.268D-06
Maxdispl :   0.0066   ||displ|| :   0.0131   Lambda : -0.681D-06
Largest |displ|/coords:  0.0066 (   5)  0.0058 (  18)  0.0044 (   9)
................................................................................
.............................. CYCLE  149 ......................................
................................................................................
   1    -50.7389647 -0.507390E+02  0.124E-02    8.70       0.0  T
   2    -50.7389647 -0.152892E-07  0.932E-03    8.70       2.1  T
   3    -50.7389647 -0.144412E-07  0.836E-04    8.70      23.5  T
   4    -50.7389647 -0.166539E-08  0.218E-04    8.70      89.8  T
speedup  0.98
cpu  time for SCC    0.00 s
wall time for SCC    0.00 s
speedup  0.95
cpu  time for grad    0.01 s
wall time for grad    0.01 s
 E :    -50.44828837  G :  0.000237    pred/act E change: -0.166D-06 -0.334D-06
Maxdispl :   0.0037   ||displ|| :   0.0065   Lambda : -0.259D-06
Largest |displ|/coords:  0.0037 (   5)  0.0028 (   2)  0.0019 (  17)
................................................................................
.............................. CYCLE  150 ......................................
................................................................................
   1    -50.7389535 -0.507390E+02  0.519E-03    8.70       0.0  T
   2    -50.7389535 -0.234283E-08  0.388E-03    8.70       5.0  T
   3    -50.7389535 -0.210530E-08  0.387E-04    8.70      50.6  T
   4    -50.7389535 -0.256357E-09  0.951E-05    8.70     206.1  T
speedup  1.05
cpu  time for SCC    0.00 s
wall time for SCC    0.00 s
speedup  1.06
cpu  time for grad    0.01 s
wall time for grad    0.01 s
 E :    -50.44828852  G :  0.000178    pred/act E change: -0.341D-06 -0.152D-06
Maxdispl :   0.0042   ||displ|| :   0.0061   Lambda : -0.169D-06
Largest |displ|/coords:  0.0042 (   5)  0.0025 (   2)  0.0014 (  18)
................................................................................
.............................. CYCLE  151 ......................................
................................................................................
   1    -50.7389384 -0.507389E+02  0.394E-03    8.70       0.0  T
   2    -50.7389384 -0.167257E-08  0.294E-03    8.70       6.7  T
   3    -50.7389384 -0.141062E-08  0.291E-04    8.70      67.4  T
   4    -50.7389384 -0.197758E-09  0.726E-05    8.70     270.0  T
speedup  1.00
cpu  time for SCC    0.00 s
wall time for SCC    0.00 s
speedup  0.96
cpu  time for grad    0.01 s
wall time for grad    0.01 s
 E :    -50.44828865  G :  0.000107    pred/act E change: -0.130D-06 -0.132D-06
Maxdispl :   0.0081   ||displ|| :   0.0116   Lambda : -0.221D-06
Largest |displ|/coords:  0.0081 (   5)  0.0057 (   2)  0.0023 (   7)
................................................................................
.............................. CYCLE  152 ......................................
................................................................................
   1    -50.7389107 -0.507389E+02  0.689E-03    8.70       0.0  T
   2    -50.7389107 -0.376842E-08  0.515E-03    8.70       3.8  T
   3    -50.7389107 -0.327703E-08  0.416E-04    8.70      47.1  T
   4    -50.7389107 -0.437332E-09  0.119E-04    8.70     165.1  T
speedup  1.03
cpu  time for SCC    0.00 s
wall time for SCC    0.00 s
speedup  0.97
cpu  time for grad    0.01 s
wall time for grad    0.01 s
 E :    -50.44828878  G :  0.000118    pred/act E change: -0.846D-07 -0.127D-06
Maxdispl :   0.0036   ||displ|| :   0.0052   Lambda : -0.639D-07
Largest |displ|/coords:  0.0036 (   5)  0.0028 (   2)  0.0012 (   7)
................................................................................
.............................. CYCLE  153 ......................................
................................................................................
   1    -50.7389085 -0.507389E+02  0.264E-03    8.70       0.0  T
   2    -50.7389085 -0.459778E-09  0.197E-03    8.70       9.9  T
   3    -50.7389085 -0.573287E-09  0.147E-04    8.70     133.6  T
   4    -50.7389085 -0.236753E-10  0.322E-05    8.70     608.8  T
speedup  0.79
cpu  time for SCC    0.00 s
wall time for SCC    0.00 s
speedup  0.97
cpu  time for grad    0.01 s
wall time for grad    0.01 s
 E :    -50.44828883  G :  0.000103    pred/act E change: -0.111D-06 -0.530D-07
Maxdispl :   0.0076   ||displ|| :   0.0111   Lambda : -0.116D-06
Largest |displ|/coords:  0.0076 (   5)  0.0066 (   2)  0.0023 (   7)

   *** GEOMETRY OPTIMIZATION CONVERGED AFTER 153 ITERATIONS ***

------------------------------------------------------------------------
 total energy gain (kcal):     -0.0007
------------------------------------------------------------------------
================
 final structure:
================
$coord
        1.57116702459156        2.35189310287412        2.71847302448294      S 
       -0.93919039246190        2.97827688820740        1.83358256595767      O 
        2.68812261940210        3.98385524116662        4.50825918937931      O 
        1.48376524335999       -0.36921723926843        3.78631948269769      O 
        3.32169186969697        2.12425339745599        0.38198294366690      O 
        2.42770428587663        1.25314145151998       -1.04360497827575      H 
        0.48031860066030       -1.46628509005914        2.57897353341987      H 
        1.14593974508859       -0.30138755411134       -3.24808701840292      O 
        2.18863600856622       -0.24724726618949       -4.72801281977116      H 
       -1.73695059599128        6.15928943147657       -2.02197900371486      O 
       -2.90335679342595        7.44159749137655       -1.49679386502202      H 
       -1.35421841437605        5.16159169870546       -0.51698129006738      H 
       -0.59579245292585       -3.29019970628290        0.54535899433644      O 
       -0.02202531490660       -2.54730957200317       -1.03749772739764      H 
        0.59991719586296       -4.66469599753098        0.94636642082465      H 
       -4.83064563033165        0.05024911795042        0.12206015519717      O 
       -3.72209004924490        1.22764463580822        0.99150985409415      H 
       -4.08458984361406       -1.58947203679838        0.38463785477851      H 
       -3.03816523897306        1.78037016117831       -4.30141747360096      O 
       -4.07781330266989        1.11160959017309       -2.91383741383023      H 
       -2.70223886662922        3.53957664254893       -3.84284984430312      H 
       -0.53599653137118        0.54539999383619       -3.75311174291912      H 
        3.25533500848761       -6.15654768644664        2.24469945901809      N 
        3.74439156030032       -4.81985771912362        3.52874358297050      H 
        4.77741942307011       -6.49000520706440        1.13422848975943      H 
        2.85866480381157       -7.76652382568887        3.19897760766763      H 
$end
 
 Bond Distances (Angstroems)
 ---------------------------
S1-O2=1.4470         S1-O3=1.4114         S1-O4=1.5475         S1-O5=1.5496         O2-S1=1.4470         O3-S1=1.4114         
O4-S1=1.5475         O4-H7=1.0135         O5-S1=1.5496         O5-H6=1.0027         H6-O5=1.0027         H7-O4=1.0135         
O8-H9=0.9584         O8-H22=1.0317        H9-O8=0.9584         O10-H11=0.9585       O10-H12=0.9767       H11-O10=0.9585       
H12-O10=0.9767       O13-H14=0.9738       O13-H15=0.9871       H14-O13=0.9738       H15-O13=0.9871       O16-H17=0.9716       
O16-H18=0.9634       H17-O16=0.9716       H18-O16=0.9634       O19-H20=0.9834       O19-H21=0.9783       H20-O19=0.9834       
H21-O19=0.9783       H22-O8=1.0317        N23-H24=1.0144       N23-H25=1.0125       N23-H26=1.0124       H24-N23=1.0144       
H25-N23=1.0125       H26-N23=1.0124       
 N  H  Rav=1.0131 sigma=0.0009  Rmin=1.0124  Rmax=1.0144     3
 O  H  Rav=0.9833 sigma=0.0215  Rmin=0.9584  Rmax=1.0317    12
 S  O  Rav=1.4889 sigma=0.0610  Rmin=1.4114  Rmax=1.5496     4
 
 selected bond angles (degree)
 --------------------
O3-S1-O2=117.48                O4-S1-O2=107.69                O4-S1-O3=109.68                O5-S1-O2=107.96                
O5-S1-O3=109.43                O5-S1-O4=103.70                H7-O4-S1=108.57                H6-O5-S1=110.73                
H22-O8-H9=105.78               H12-O10-H11=106.25             
 
 selected dihedral angles (degree)
 ---------------------------------
H7-O4-S1-O2= 43.92            H7-O4-S1-O3=172.86            H7-O4-S1-O5=289.65            H6-O5-S1-O2=319.89            
H6-O5-S1-O3=190.94            H6-O5-S1-O4= 73.96            
 
 CMA Distance (Angstroems)
 ---------------------------
R(CMA):  2.7240

========================================================================
 FINAL SINGLEPOINT CALCULATION ON OPTIMIZED GEOMETRY
========================================================================

 Ncao       : 65
 Nao        : 64
 Nshell     : 38
 Nel        : 80
 T(el)      :   300.0
 intcut     :    25.0
 scfconv/Eh :  0.100E-05
   qconv/e  :  0.100E-03
 intneglect :  0.100E-07
 broydamp   :      0.250
 iter      E             dE          RMSdq      gap      omega  full diag
   1    -50.7389085 -0.507389E+02  0.129E-05    8.70       0.0  T
   2    -50.7389085 -0.852651E-13  0.827E-06    8.70    2372.4  T
   3    -50.7389085 -0.781597E-13  0.197E-06    8.70    9940.2  T
speedup  1.03
cpu  time for SCC    0.00 s
wall time for SCC    0.00 s

   *** convergence criteria satisfied after 3 iterations ***

          eigenvalues
 #    :          28         29         30         31         32         33         34         35
 occ. :        2.000      2.000      2.000      2.000      2.000      2.000      2.000      2.000
 eps  :       -13.646    -13.401    -13.351    -12.919    -12.873    -12.653    -12.581    -12.422
 #    :          36         37         38         39         40         41         42         43
 occ. :        2.000      2.000      2.000      2.000      2.000      0.000      0.000      0.000
 eps  :       -12.236    -11.969    -11.928    -11.775    -11.737     -3.037     -0.806     -0.693
 #    :          44         45         46         47         48         49         50         51
 occ. :        0.000      0.000      0.000      0.000      0.000      0.000      0.000      0.000
 eps  :         0.098      0.513      0.815      2.195      2.432      3.692      4.655      4.919


   #   Z            q   n(s)   n(p)   n(d)      C6AA      α(0)
   1  16 S      1.687  1.573  1.786  0.954    89.071    15.884
   2   8 O     -0.727  1.760  4.967  0.000    29.452     7.276
   3   8 O     -0.629  1.748  4.881  0.000    26.831     6.945
   4   8 O     -0.621  1.759  4.862  0.000    25.671     6.840
   5   8 O     -0.613  1.757  4.856  0.000    25.460     6.812
   6   1 H      0.388  0.612  0.000  0.000     0.505     1.116
   7   1 H      0.388  0.612  0.000  0.000     0.505     1.114
   8   8 O     -0.654  1.765  4.889  0.000    26.527     6.951
   9   1 H      0.295  0.705  0.000  0.000     0.737     1.348
  10   8 O     -0.609  1.743  4.866  0.000    25.398     6.802
  11   1 H      0.287  0.713  0.000  0.000     0.761     1.370
  12   1 H      0.321  0.679  0.000  0.000     0.662     1.278
  13   8 O     -0.628  1.758  4.870  0.000    25.868     6.864
  14   1 H      0.331  0.669  0.000  0.000     0.635     1.252
  15   1 H      0.323  0.677  0.000  0.000     0.656     1.273
  16   8 O     -0.610  1.749  4.862  0.000    25.438     6.807
  17   1 H      0.317  0.683  0.000  0.000     0.671     1.287
  18   1 H      0.305  0.695  0.000  0.000     0.706     1.319
  19   8 O     -0.622  1.764  4.858  0.000    25.711     6.844
  20   1 H      0.331  0.669  0.000  0.000     0.636     1.253
  21   1 H      0.328  0.672  0.000  0.000     0.644     1.261
  22   1 H      0.358  0.642  0.000  0.000     0.570     1.186
  23   7 N     -0.439  1.367  4.073  0.000    31.511     8.337
  24   1 H      0.174  0.826  0.000  0.000     1.247     1.749
  25   1 H      0.160  0.840  0.000  0.000     1.334     1.809
  26   1 H      0.161  0.839  0.000  0.000     1.330     1.807

 Mol. C6AA /au·bohr⁶  :       5451.109084
 Mol. C8AA /au·bohr⁸  :     117688.323802
 Mol. α(0) /au        :        106.782760

 
 Wiberg/Mayer (AO) data. WBOs > 0.1 written file <wbo>
 largest (>0.05) Wiberg bond orders for each atom
           total WBO             WBO to atom ...
     1  S   4.879    O    3 1.534    O    2 1.322    O    4 0.996    O    5 0.991
     2  O   1.734    S    1 1.322    O    3 0.120    O    5 0.089    O    4 0.087    H   12 0.050
     3  O   1.833    S    1 1.534    O    2 0.120    O    4 0.078    O    5 0.076
     4  O   1.970    S    1 0.996    H    7 0.689    O    2 0.087    O    3 0.078    O    5 0.066
     5  O   1.977    S    1 0.991    H    6 0.710    O    2 0.089    O    3 0.076    O    4 0.066
     6  H   0.850    O    5 0.710    O    8 0.121
     7  H   0.850    O    4 0.689    O   13 0.142
     8  O   1.902    H    9 0.904    H   22 0.712    H    6 0.121    O   19 0.061
     9  H   0.913    O    8 0.904
    10  O   1.860    H   11 0.914    H   12 0.844    H   21 0.050
    11  H   0.918    O   10 0.914
    12  H   0.897    O   10 0.844    O    2 0.050
    13  O   1.936    H   14 0.846    H   15 0.815    H    7 0.142
    14  H   0.891    O   13 0.846
    15  H   0.896    O   13 0.815    N   23 0.076
    16  O   1.873    H   18 0.892    H   17 0.862    H   20 0.060
    17  H   0.899    O   16 0.862
    18  H   0.907    O   16 0.892
    19  O   1.949    H   21 0.840    H   20 0.829    H   22 0.158    O    8 0.061
    20  H   0.891    O   19 0.829    O   16 0.060
    21  H   0.893    O   19 0.840    O   10 0.050
    22  H   0.872    O    8 0.712    O   19 0.158
    23  N   3.024    H   26 0.972    H   25 0.972    H   24 0.966    H   15 0.076
    24  H   0.970    N   23 0.966
    25  H   0.974    N   23 0.972
    26  H   0.974    N   23 0.972
 MOs/occ written to file <molden.input>
 
molecular dipole:
                 x           y           z       tot (Debye)
 q only:        0.492      -1.906      -0.793
   full:        1.049      -2.132      -0.541       6.195
molecular quadrupole (traceless):
                xx          xy          yy          xz          yz          zz
 q only:       -2.842     -13.637       8.880      -7.137      -8.450      -6.038
  q+dip:       -3.409     -19.537      11.495      -7.905     -10.078      -8.087
   full:       -3.836     -19.591      11.824      -8.197     -10.156      -7.988

SCC energy    :     -50.7389085
rep           :       0.2903484
ES            :       0.2326754
AES           :      -0.0507171
AXC           :      -0.0065879
disp          :      -0.0182660
XB            :       0.0000000
fix           :       0.0000000
total E       :     -50.4482888
atomizationE  :       4.9785930     3124.11
(atE without considering molecular charge,
 total energy contains solvation terms)
H-L gap (eV)  :          8.6996
optimized geometry written to: xtbopt.xyz


------------------------------------------------------------------------
 * finished run on 2019/09/16 at 12:50:29.568     
------------------------------------------------------------------------
 total:
 * wall-time:     0 d,  0 h,  0 min,  3.630 sec
 *  cpu-time:     0 d,  0 h,  0 min,  3.520 sec
 * ratio c/w:     0.970 speedup
 SCF:
 * wall-time:     0 d,  0 h,  0 min,  0.187 sec
 *  cpu-time:     0 d,  0 h,  0 min,  0.183 sec
 * ratio c/w:     0.978 speedup
 ANC optimizer:
 * wall-time:     0 d,  0 h,  0 min,  3.405 sec
 *  cpu-time:     0 d,  0 h,  0 min,  3.304 sec
 * ratio c/w:     0.971 speedup

