      -----------------------------------------------------------      
     |                   =====================                   |     
     |                           x T B                           |     
     |                   =====================                   |     
     |                         S. Grimme                         |     
     |          Mulliken Center for Theoretical Chemistry        |     
     |                    University of Bonn                     |     
     |                 Version 6.0.1 (SAW181210)                 |     
      -----------------------------------------------------------      

   This program is distributed in the hope that it will be useful,
   but WITHOUT ANY WARRANTY; without even the implied warranty of
   MERCHANTABILITY or FITNESS FOR A PARTICULAR PURPOSE.
   
   FOR NON-COMMERCIAL, ACADEMIA USE ONLY.
   
   Cite this work as:
   S. Grimme, C. Bannwarth, P. Shushkov, J. Comput. Theory Chem., 2017,
   13, 1989-2009.
   C. Bannwarth, S. Ehlert and S. Grimme., ChemRxiv, 2018, preprint.
   http://doi.org/10.26434/chemrxiv.7246238.v1
   
   for sTDA-xTB:
   S. Grimme and C. Bannwarth, J. Chem. Phys., 2016, 145, 054103.
   
   in the mass-spec context:
   V. Asgeirsson, C. Bauer and S. Grimme, Chem. Sci., 2017, 8, 4879.
   
   if GBSA is used:
   P. Shushkov, F. März and S. Grimme, unpublished.
   
   for ANC optimizer:
   S. Grimme, unpublished.
   Rational Function algorithm used in ANCopt:
   F. Eckert, P. Pulay, H.-J. Werner, J. Comput. Chem., 1997, 18, 1473.
   
   with help from (in alphabetical order)
   C. Bannwarth, F. Bohle, G. Brandenburg, E. Caldeweyher, M. Checinski,
   S. Dohm, S. Ehlert, S. Ehrlich, F. März, H. Neugebauer, J. Pisarek,
   P. Pracht, P. Shushkov, and S. Spicher.
   
 * started run on 2019/09/16 at 12:57:51.302     
========================================================================
 # omp threads = 1
========================================================================
number of atoms            : 26
number of electrons        : 80
charge                     : 0
spin                       : .0
first test random number   : .6502

########################################################################
# WARNING! Please study the warnings concerning your input carefully
#  - XTBPATH is not set, using XTBHOME instead
#  - the use of '-opt' is discouraged, please use '--opt' next time
#  - the use of '-chrg' is discouraged, please use '--chrg' next time
#  - the use of '-uhf' is discouraged, please use '--uhf' next time
########################################################################

           ------------------------------------------------- 
          |                 G F N 2 - x T B                 |
          | Geometry, Frequencies, Noncovalent interactions |
          |            JCTC 2018 parametrisation            |
           ------------------------------------------------- 
      method parameters     
 k(s)        :  1.8500
 k(p)        :  2.2300
 k(d)        :  2.2300
 k(f)        :  2.0000
 kEN (H0ij)  : -2.0000
 D4 a1       :  0.5200
 D4 a2       :  5.0000
 D4 s6       :  1.0000
 D4 s8       :  2.7000
 D4 s9       :  5.0000
 alphaj      :  2.0000


            Z     q(EN)     CN     RAES       Cart. coordinates
     1  S   6.0    0.58    4.28    4.20     2.64789    -2.78009    -0.04184
     2  O   6.0   -0.32    1.14    1.80     0.74629    -2.16582    -1.93605
     3  O   6.0   -0.31    1.13    1.80     4.73688    -1.13085     0.55293
     4  O   6.0   -0.24    2.06    1.83     1.13519    -3.55321     2.53875
     5  O   6.0   -0.23    2.04    1.83     3.88733    -5.50120    -0.61374
     6  H   1.0    0.14    1.11    1.45     2.57383    -6.66211    -1.17351
     7  H   1.0    0.18    1.31    1.50    -0.41053    -2.55563     2.58264
     8  O   6.0   -0.39    1.69    1.81    -2.53219    -0.72633     2.51763
     9  H   1.0    0.17    0.95    1.42    -2.95238    -0.50535     4.32272
    10  O   6.0   -0.28    2.05    1.83    -3.76701    -1.02505    -4.14589
    11  H   1.0    0.16    1.02    1.43    -4.79785    -2.10737    -3.10640
    12  H   1.0    0.17    1.01    1.43    -2.06564    -1.64037    -3.94258
    13  O   6.0   -0.30    2.06    1.83     1.06668     4.96398    -1.36274
    14  H   1.0    0.14    0.97    1.43     1.62575     6.17980    -2.59717
    15  H   1.0    0.15    1.05    1.44     2.49044     4.71154    -0.25648
    16  O   6.0   -0.29    2.01    1.83    -5.43861    -3.40810    -0.01585
    17  H   1.0    0.18    1.13    1.45    -4.30142    -2.41756     1.00408
    18  H   1.0    0.14    0.97    1.43    -6.48785    -4.30824     1.16883
    19  O   6.0   -0.23    2.92    2.58    -3.07667     2.40852    -0.69585
    20  H   1.0    0.14    1.04    1.43    -3.53092     1.48489    -2.25482
    21  H   1.0    0.17    1.22    1.47    -2.92427     1.26715     0.77522
    22  H   1.0    0.14    1.06    1.44    -1.54908     3.45975    -0.92587
    23  N   5.0   -0.22    3.02    1.93     5.33183     4.26123     1.59847
    24  H   1.0    0.10    0.99    1.43     7.10263     4.92382     1.22928
    25  H   1.0    0.13    1.02    1.43     5.40676     2.36276     1.28026
    26  H   1.0    0.10    0.99    1.43     5.08294     4.46385     3.49796

  Z AO/shell   Hii/eV     exponent
  1     Wed Apr 25 08:07:45 CEST 2018   EN: 2.200 GM2: 0.406  GM3: 0.0800  RAES: 1.40
     1s    -10.707211    1.230000
  7     Wed Apr 25 08:07:45 CEST 2018   EN: 3.040 GM2: 0.461  GM3:-0.0640  RAES: 1.90
     2s    -16.686243    2.339881
     2p    -12.523956    2.014332
  8     Wed Apr 25 08:07:45 CEST 2018   EN: 3.440 GM2: 0.452  GM3:-0.0517  RAES: 1.80
     2s    -20.229985    2.439742
     2p    -15.503117    2.137023
 16     Tue Apr 24 11:44:34 CEST 2018   EN: 2.580 GM2: 0.340  GM3:-0.0502  RAES: 3.10
     3s    -20.029654    1.981333
     3p    -11.377694    2.025643
     3d     -0.420282    1.702555
 no old-style atom pair restraining (fixing) potential

molecular fragmentation (1/2 indicates fragments):
11111112222222222222222222
# atoms in fragment 1/2:     7    19
 fragment masses (1/2) :       98.07      107.11
CMA distance (Bohr)    :   5.742
constraining FC (au)   :  0.0500
           ------------------------------------------------- 
          |        Self-Consistent Charge Iterations        |
           ------------------------------------------------- 

 Ncao       : 65
 Nao        : 64
 Nshell     : 38
 Nel        : 80
 T(el)      :   300.0
 intcut     :    25.0
 scfconv/Eh :  0.100E-05
   qconv/e  :  0.100E-03
 intneglect :  0.100E-07
 broydamp   :      0.250
 iter      E             dE          RMSdq      gap      omega  full diag
   1    -50.5792742 -0.505793E+02  0.702E+00    7.86       0.0  T
   2    -50.6300451 -0.507709E-01  0.494E+00    7.17       1.0  T
   3    -50.6686042 -0.385591E-01  0.121E+00    4.82       1.0  T
   4    -50.6729447 -0.434053E-02  0.616E-01    4.99       1.0  T
   5    -50.6741347 -0.119002E-02  0.283E-01    5.00       1.0  T
   6    -50.6745330 -0.398272E-03  0.151E-01    5.04       1.0  T
   7    -50.6746725 -0.139526E-03  0.531E-02    5.05       1.0  T
   8    -50.6746899 -0.174162E-04  0.258E-02    5.05       1.0  T
   9    -50.6746935 -0.353682E-05  0.113E-02    5.05       1.7  T
  10    -50.6746941 -0.619447E-06  0.210E-03    5.06       9.3  T
  11    -50.6746941 -0.124856E-07  0.120E-03    5.06      16.3  T
  12    -50.6746941 -0.460104E-08  0.444E-04    5.06      44.2  T
  13    -50.6746941 -0.908855E-09  0.123E-04    5.06     160.0  T
speedup  1.06
cpu  time for SCC    0.02 s
wall time for SCC    0.02 s

   *** convergence criteria satisfied after 13 iterations ***

          eigenvalues
 #    :          28         29         30         31         32         33         34         35
 occ. :        2.000      2.000      2.000      2.000      2.000      2.000      2.000      2.000
 eps  :       -12.969    -12.768    -12.761    -12.575    -12.520    -12.444    -12.403    -12.333
 #    :          36         37         38         39         40         41         42         43
 occ. :        2.000      2.000      2.000      2.000      2.000      0.000      0.000      0.000
 eps  :       -11.711    -11.047    -11.032    -10.256     -9.869     -4.813     -2.118     -0.835
 #    :          44         45         46         47         48         49         50         51
 occ. :        0.000      0.000      0.000      0.000      0.000      0.000      0.000      0.000
 eps  :        -0.211      0.510      1.327      2.457      2.789      3.592      4.165      4.442


   #   Z            q   n(s)   n(p)   n(d)      C6AA      α(0)
   1  16 S      1.649  1.630  1.797  0.923    89.937    15.961
   2   8 O     -0.665  1.767  4.898  0.000    27.757     7.064
   3   8 O     -0.635  1.763  4.872  0.000    26.991     6.966
   4   8 O     -0.622  1.773  4.849  0.000    25.684     6.841
   5   8 O     -0.562  1.753  4.808  0.000    24.258     6.649
   6   1 H      0.353  0.647  0.000  0.000     0.580     1.195
   7   1 H      0.385  0.615  0.000  0.000     0.508     1.117
   8   8 O     -0.859  1.841  5.019  0.000    33.384     7.749
   9   1 H      0.212  0.788  0.000  0.000     1.057     1.615
  10   8 O     -0.612  1.742  4.870  0.000    25.473     6.812
  11   1 H      0.334  0.666  0.000  0.000     0.628     1.245
  12   1 H      0.318  0.682  0.000  0.000     0.669     1.285
  13   8 O     -0.606  1.723  4.883  0.000    25.339     6.794
  14   1 H      0.291  0.709  0.000  0.000     0.749     1.360
  15   1 H      0.327  0.673  0.000  0.000     0.646     1.262
  16   8 O     -0.657  1.752  4.905  0.000    26.582     6.959
  17   1 H      0.333  0.667  0.000  0.000     0.629     1.244
  18   1 H      0.260  0.740  0.000  0.000     0.855     1.453
  19   8 O     -0.465  1.661  4.804  0.000    22.087     6.347
  20   1 H      0.393  0.607  0.000  0.000     0.497     1.108
  21   1 H      0.406  0.594  0.000  0.000     0.467     1.069
  22   1 H      0.392  0.608  0.000  0.000     0.500     1.111
  23   7 N     -0.459  1.392  4.067  0.000    32.087     8.413
  24   1 H      0.148  0.852  0.000  0.000     1.412     1.861
  25   1 H      0.192  0.808  0.000  0.000     1.150     1.680
  26   1 H      0.149  0.851  0.000  0.000     1.406     1.857

 Mol. C6AA /au·bohr⁶  :       5478.629627
 Mol. C8AA /au·bohr⁸  :     118326.447278
 Mol. α(0) /au        :        107.016859

 
 Wiberg/Mayer (AO) data. WBOs > 0.1 written file <wbo>
 largest (>0.05) Wiberg bond orders for each atom
           total WBO             WBO to atom ...
     1  S   4.761    O    3 1.450    O    2 1.398    O    4 0.954    O    5 0.924
     2  O   1.764    S    1 1.398    O    3 0.140    O    4 0.106    O    5 0.089
     3  O   1.810    S    1 1.450    O    2 0.140    O    4 0.102    O    5 0.072
     4  O   1.948    S    1 0.954    H    7 0.670    O    2 0.106    O    3 0.102    O    5 0.056    O    8 0.052
     5  O   2.005    S    1 0.924    H    6 0.857    O    2 0.089    O    3 0.072    O    4 0.056
     6  H   0.875    O    5 0.857
     7  H   0.852    O    4 0.670    O    8 0.165
     8  O   1.599    H    9 0.945    H   21 0.196    H    7 0.165    H   17 0.115    O   19 0.060    O    4 0.052
     9  H   0.955    O    8 0.945
    10  O   1.907    H   12 0.874    H   11 0.855    H   20 0.099
    11  H   0.889    O   10 0.855
    12  H   0.899    O   10 0.874
    13  O   1.871    H   14 0.906    H   15 0.829    H   22 0.079
    14  H   0.915    O   13 0.906
    15  H   0.893    O   13 0.829    N   23 0.059
    16  O   1.792    H   18 0.923    H   17 0.773
    17  H   0.889    O   16 0.773    O    8 0.115
    18  H   0.932    O   16 0.923
    19  O   2.277    H   22 0.760    H   20 0.742    H   21 0.632    O    8 0.060
    20  H   0.845    O   19 0.742    O   10 0.099
    21  H   0.835    O   19 0.632    O    8 0.196
    22  H   0.847    O   19 0.760    O   13 0.079
    23  N   2.990    H   26 0.975    H   24 0.973    H   25 0.938    H   15 0.059
    24  H   0.978    N   23 0.973
    25  H   0.963    N   23 0.938
    26  H   0.978    N   23 0.975
 MOs/occ written to file <molden.input>
 
molecular dipole:
                 x           y           z       tot (Debye)
 q only:        0.062       1.327      -0.546
   full:        0.583       0.828       0.149       2.601
molecular quadrupole (traceless):
                xx          xy          yy          xz          yz          zz
 q only:       -7.774       3.752      12.434      -4.371       0.987      -4.661
  q+dip:       -7.005       8.572      12.152      -7.442       1.366      -5.147
   full:       -7.029       8.814      12.076      -7.867       1.289      -5.046

SCC energy    :     -50.6746941
rep           :       0.2849015
ES            :       0.2601259
AES           :      -0.0498299
AXC           :      -0.0035817
disp          :      -0.0169769
XB            :       0.0000000
fix           :       0.0000000
total E       :     -50.3894609
atomizationE  :       4.9197650     3087.20
(atE without considering molecular charge,
 total energy contains solvation terms)
H-L gap (eV)  :          5.0560
           ------------------------------------------------- 
          |                 ===============                 |
          |                   A N C O P T                   |
          |                 ===============                 |
          |          Approximate Normal Coordinate          |
          |           Rational Function Optimizer           |
           ------------------------------------------------- 
dumping coords to <xtbopt.coord> and <xtbopt.log>
 optlevel               2
 Maxcycle             520
 Maxmicro              25
 Econv         1.000000000000000E-007
 Gconv         2.000000000000000E-004
 Maxdispl       1.00000000000000     
 Hlow          5.000000000000000E-003
 S6             20.0000000000000     
 Nvar               72

generating ANC from model Hessian ...
 Shifting diagonal of input Hessian by   4.965573740458159E-003
 Lowest  eigenvalues of input Hessian
   -0.000000   -0.000000    0.000000    0.000000    0.000000    0.000000
    0.005000    0.005061    0.005208    0.005300    0.005543    0.005733
    0.006043    0.006419    0.006847    0.007555    0.007945    0.008303
 Highest eigenvalues
    1.437485    1.567027    1.592155    1.952133    2.770669    3.592105
 
cpu  time for ANC gen    0.01 s
wall time for ANC gen    0.01 s
................................................................................
.............................. CYCLE    1 ......................................
................................................................................
   1    -50.6746941 -0.506747E+02  0.480E-05    5.06       0.0  T
   2    -50.6746941 -0.425615E-11  0.364E-05    5.06     538.9  T
   3    -50.6746941 -0.331113E-11  0.169E-05    5.06    1161.8  T
speedup  1.07
cpu  time for SCC    0.00 s
wall time for SCC    0.00 s
speedup  1.05
cpu  time for grad    0.01 s
wall time for grad    0.01 s
 E :    -50.38946084  G :  0.160809    pred/act E change:  0.000D+00  0.209D-07
Maxdispl :   0.0777   ||displ|| :   0.2493   Lambda : -0.236D-01
Largest |displ|/coords:  0.0777 (  21)  0.0756 (  30)  0.0755 (  54)
................................................................................
.............................. CYCLE    2 ......................................
................................................................................
   1    -50.6862628 -0.506863E+02  0.290E-01    5.86       0.0  T
   2    -50.6864162 -0.153485E-03  0.212E-01    5.94       1.0  T
   3    -50.6864886 -0.723360E-04  0.626E-02    6.09       1.0  T
   4    -50.6864989 -0.103446E-04  0.249E-02    6.09       1.0  T
   5    -50.6865000 -0.103541E-05  0.584E-03    6.08       3.4  T
   6    -50.6865000 -0.699740E-07  0.322E-03    6.08       6.1  T
speedup  1.09
cpu  time for SCC    0.01 s
wall time for SCC    0.01 s
speedup  1.06
cpu  time for grad    0.01 s
wall time for grad    0.01 s
 E :    -50.40772254  G :  0.093899    pred/act E change:  0.000D+00 -0.183D-01
Maxdispl :   0.1058   ||displ|| :   0.2547   Lambda : -0.106D-01
Largest |displ|/coords:  0.1058 (  14)  0.0731 (  25)  0.0657 (  33)
................................................................................
.............................. CYCLE    3 ......................................
................................................................................
   1    -50.6938236 -0.506938E+02  0.248E-01    6.78       0.0  T
   2    -50.6939691 -0.145577E-03  0.181E-01    6.87       1.0  T
   3    -50.6940343 -0.651672E-04  0.571E-02    7.05       1.0  T
   4    -50.6940427 -0.838177E-05  0.188E-02    7.04       1.0  T
   5    -50.6940433 -0.651045E-06  0.435E-03    7.03       4.5  T
   6    -50.6940434 -0.357999E-07  0.254E-03    7.03       7.7  T
speedup  0.89
cpu  time for SCC    0.00 s
wall time for SCC    0.01 s
speedup  0.97
cpu  time for grad    0.01 s
wall time for grad    0.01 s
 E :    -50.41634280  G :  0.062570    pred/act E change: -0.125D-01 -0.862D-02
Maxdispl :   0.0841   ||displ|| :   0.2430   Lambda : -0.559D-02
Largest |displ|/coords:  0.0841 (  14)  0.0796 (  25)  0.0647 (   8)
................................................................................
.............................. CYCLE    4 ......................................
................................................................................
   1    -50.6975764 -0.506976E+02  0.221E-01    7.55       0.0  T
   2    -50.6976902 -0.113810E-03  0.160E-01    7.64       1.0  T
   3    -50.6977407 -0.505119E-04  0.499E-02    7.75       1.0  T
   4    -50.6977476 -0.688196E-05  0.146E-02    7.75       1.3  T
   5    -50.6977480 -0.418281E-06  0.367E-03    7.75       5.3  T
   6    -50.6977480 -0.245668E-07  0.213E-03    7.75       9.2  T
speedup  0.91
cpu  time for SCC    0.00 s
wall time for SCC    0.01 s
speedup  0.91
cpu  time for grad    0.01 s
wall time for grad    0.01 s
 E :    -50.42091091  G :  0.043165    pred/act E change: -0.564D-02 -0.457D-02
Maxdispl :   0.1432   ||displ|| :   0.3866   Lambda : -0.628D-02
Largest |displ|/coords:  0.1432 (  25)  0.1426 (  14)  0.1089 (  24)
................................................................................
.............................. CYCLE    5 ......................................
................................................................................
   1    -50.7004216 -0.507004E+02  0.361E-01    8.24       0.0  T
   2    -50.7007908 -0.369227E-03  0.259E-01    8.25       1.0  T
   3    -50.7009612 -0.170410E-03  0.854E-02    8.28       1.0  T
   4    -50.7009797 -0.184824E-04  0.232E-02    8.28       1.0  T
   5    -50.7009807 -0.993569E-06  0.669E-03    8.28       2.9  T
   6    -50.7009808 -0.978952E-07  0.386E-03    8.28       5.1  T
   7    -50.7009808 -0.373970E-07  0.157E-03    8.28      12.5  T
speedup  0.94
cpu  time for SCC    0.01 s
wall time for SCC    0.01 s
speedup  0.98
cpu  time for grad    0.01 s
wall time for grad    0.01 s
 E :    -50.42478446  G :  0.023470    pred/act E change: -0.296D-02 -0.387D-02
Maxdispl :   0.1151   ||displ|| :   0.3108   Lambda : -0.166D-02
Largest |displ|/coords:  0.1151 (   6)  0.1131 (  14)  0.1032 (   5)
................................................................................
.............................. CYCLE    6 ......................................
................................................................................
   1    -50.6997403 -0.506997E+02  0.245E-01    8.30       0.0  T
   2    -50.6998049 -0.645845E-04  0.182E-01    8.31       1.0  T
   3    -50.6998348 -0.299692E-04  0.406E-02    8.32       1.0  T
   4    -50.6998432 -0.839607E-05  0.100E-02    8.32       2.0  T
   5    -50.6998434 -0.164023E-06  0.398E-03    8.32       4.9  T
   6    -50.6998434 -0.203910E-07  0.221E-03    8.32       8.9  T
speedup  0.91
cpu  time for SCC    0.00 s
wall time for SCC    0.01 s
speedup  0.97
cpu  time for grad    0.01 s
wall time for grad    0.01 s
 E :    -50.42596910  G :  0.028319    pred/act E change: -0.361D-02 -0.118D-02
Maxdispl :   0.2607   ||displ|| :   0.6111   Lambda : -0.372D-02
Largest |displ|/coords:  0.2607 (  14)  0.2371 (  25)  0.2159 (   5)
................................................................................
.............................. CYCLE    7 ......................................
................................................................................
   1    -50.7049232 -0.507049E+02  0.529E-01    8.28       0.0  T
   2    -50.7054337 -0.510495E-03  0.386E-01    8.28       1.0  T
   3    -50.7056782 -0.244514E-03  0.114E-01    8.28       1.0  T
   4    -50.7057234 -0.451429E-04  0.276E-02    8.29       1.0  T
   5    -50.7057249 -0.150606E-05  0.112E-02    8.29       1.8  T
   6    -50.7057251 -0.230714E-06  0.657E-03    8.29       3.0  T
   7    -50.7057251 -0.513188E-07  0.180E-03    8.29      10.9  T
   8    -50.7057251 -0.596096E-08  0.407E-04    8.29      48.2  T
speedup  0.92
cpu  time for SCC    0.01 s
wall time for SCC    0.01 s
speedup  0.97
cpu  time for grad    0.01 s
wall time for grad    0.02 s
 E :    -50.42506485  G :  0.063213    pred/act E change: -0.908D-03  0.904D-03
Maxdispl :   0.1526   ||displ|| :   0.4668   Lambda : -0.806D-02
Largest |displ|/coords:  0.1526 (   6)  0.1434 (  11)  0.1395 (  25)
................................................................................
.............................. CYCLE    8 ......................................
................................................................................
   1    -50.6920001 -0.506920E+02  0.657E-01    8.13       0.0  T
   2    -50.6924763 -0.476210E-03  0.486E-01    8.14       1.0  T
   3    -50.6927116 -0.235270E-03  0.114E-01    8.17       1.0  T
   4    -50.6927717 -0.601597E-04  0.213E-02    8.15       1.0  T
   5    -50.6927722 -0.427480E-06  0.111E-02    8.16       1.8  T
   6    -50.6927723 -0.106293E-06  0.391E-03    8.16       5.0  T
   7    -50.6927723 -0.220330E-07  0.108E-03    8.16      18.2  T
speedup  1.03
cpu  time for SCC    0.01 s
wall time for SCC    0.01 s
speedup  1.03
cpu  time for grad    0.01 s
wall time for grad    0.01 s
 E :    -50.42547780  G :  0.053701    pred/act E change: -0.255D-02 -0.413D-03
Maxdispl :   0.2026   ||displ|| :   0.5059   Lambda : -0.115D-01
Largest |displ|/coords:  0.2026 (  11)  0.1747 (   4)  0.1469 (   6)
................................................................................
.............................. CYCLE    9 ......................................
................................................................................
   1    -50.7075041 -0.507075E+02  0.745E-01    8.24       0.0  T
   2    -50.7078742 -0.370015E-03  0.562E-01    8.23       1.0  T
   3    -50.7080892 -0.215014E-03  0.107E-01    8.22       1.0  T
   4    -50.7081469 -0.577519E-04  0.182E-02    8.24       1.1  T
   5    -50.7081476 -0.708578E-06  0.982E-03    8.24       2.0  T
   6    -50.7081477 -0.552303E-07  0.481E-03    8.24       4.1  T
   7    -50.7081477 -0.283582E-07  0.113E-03    8.23      17.3  T
speedup  1.06
cpu  time for SCC    0.01 s
wall time for SCC    0.01 s
speedup  1.03
cpu  time for grad    0.01 s
wall time for grad    0.01 s
 E :    -50.42587290  G :  0.040726    pred/act E change: -0.491D-02 -0.395D-03
Maxdispl :   0.0955   ||displ|| :   0.2467   Lambda : -0.256D-02
Largest |displ|/coords:  0.0955 (  10)  0.0920 (  16)  0.0760 (  14)
................................................................................
.............................. CYCLE   10 ......................................
................................................................................
   1    -50.7001747 -0.507002E+02  0.330E-01    8.24       0.0  T
   2    -50.7002204 -0.457062E-04  0.249E-01    8.24       1.0  T
   3    -50.7002507 -0.303375E-04  0.377E-02    8.25       1.0  T
   4    -50.7002570 -0.633256E-05  0.942E-03    8.25       2.1  T
   5    -50.7002572 -0.157965E-06  0.364E-03    8.25       5.4  T
   6    -50.7002572 -0.134187E-07  0.197E-03    8.25       9.9  T
speedup  1.05
cpu  time for SCC    0.01 s
wall time for SCC    0.01 s
speedup  0.96
cpu  time for grad    0.01 s
wall time for grad    0.01 s
 E :    -50.42692724  G :  0.038086    pred/act E change: -0.723D-02 -0.105D-02
Maxdispl :   0.2207   ||displ|| :   0.4351   Lambda : -0.448D-02
Largest |displ|/coords:  0.2207 (  10)  0.1421 (  20)  0.1262 (   3)
................................................................................
.............................. CYCLE   11 ......................................
................................................................................
   1    -50.6959375 -0.506959E+02  0.599E-01    8.15       0.0  T
   2    -50.6960946 -0.157053E-03  0.451E-01    8.16       1.0  T
   3    -50.6961960 -0.101405E-03  0.684E-02    8.20       1.0  T
   4    -50.6962196 -0.236470E-04  0.161E-02    8.19       1.2  T
   5    -50.6962199 -0.238690E-06  0.696E-03    8.19       2.8  T
   6    -50.6962199 -0.457953E-07  0.314E-03    8.19       6.2  T
   7    -50.6962199 -0.147327E-07  0.742E-04    8.19      26.4  T
speedup  1.06
cpu  time for SCC    0.01 s
wall time for SCC    0.01 s
speedup  0.98
cpu  time for grad    0.01 s
wall time for grad    0.01 s
 E :    -50.42628086  G :  0.043874    pred/act E change: -0.136D-02  0.646D-03
Maxdispl :   0.1168   ||displ|| :   0.2572   Lambda : -0.464D-02
Largest |displ|/coords:  0.1168 (  20)  0.0945 (  11)  0.0814 (  18)
................................................................................
.............................. CYCLE   12 ......................................
................................................................................
   1    -50.7057127 -0.507057E+02  0.326E-01    8.25       0.0  T
   2    -50.7057689 -0.561708E-04  0.245E-01    8.25       1.0  T
   3    -50.7058037 -0.348112E-04  0.418E-02    8.23       1.0  T
   4    -50.7058118 -0.811022E-05  0.753E-03    8.24       2.6  T
   5    -50.7058119 -0.760954E-07  0.424E-03    8.24       4.6  T
   6    -50.7058119 -0.696202E-08  0.153E-03    8.24      12.8  T
speedup  1.07
cpu  time for SCC    0.01 s
wall time for SCC    0.01 s
speedup  1.04
cpu  time for grad    0.01 s
wall time for grad    0.01 s
 E :    -50.42818020  G :  0.014663    pred/act E change: -0.266D-02 -0.190D-02
Maxdispl :   0.1129   ||displ|| :   0.2737   Lambda : -0.920D-03
Largest |displ|/coords:  0.1129 (  14)  0.1032 (   2)  0.0832 (  25)
................................................................................
.............................. CYCLE   13 ......................................
................................................................................
   1    -50.7019553 -0.507020E+02  0.221E-01    8.27       0.0  T
   2    -50.7020409 -0.855805E-04  0.162E-01    8.27       1.0  T
   3    -50.7020801 -0.392154E-04  0.468E-02    8.28       1.0  T
   4    -50.7020887 -0.860883E-05  0.881E-03    8.28       2.2  T
   5    -50.7020889 -0.160530E-06  0.431E-03    8.28       4.6  T
   6    -50.7020889 -0.244915E-07  0.238E-03    8.28       8.2  T
   7    -50.7020889 -0.662815E-08  0.648E-04    8.28      30.3  T
speedup  1.11
cpu  time for SCC    0.01 s
wall time for SCC    0.01 s
speedup  0.99
cpu  time for grad    0.01 s
wall time for grad    0.01 s
 E :    -50.42857246  G :  0.024085    pred/act E change: -0.248D-02 -0.392D-03
Maxdispl :   0.1371   ||displ|| :   0.2626   Lambda : -0.108D-02
Largest |displ|/coords:  0.1371 (   8)  0.1211 (   2)  0.0687 (   4)
................................................................................
.............................. CYCLE   14 ......................................
................................................................................
   1    -50.7002186 -0.507002E+02  0.232E-01    8.28       0.0  T
   2    -50.7002419 -0.233476E-04  0.175E-01    8.29       1.0  T
   3    -50.7002590 -0.170642E-04  0.260E-02    8.32       1.0  T
   4    -50.7002620 -0.302618E-05  0.922E-03    8.32       2.1  T
   5    -50.7002622 -0.147051E-06  0.270E-03    8.32       7.3  T
   6    -50.7002622 -0.805090E-08  0.171E-03    8.31      11.5  T
speedup  0.93
cpu  time for SCC    0.00 s
wall time for SCC    0.01 s
speedup  1.04
cpu  time for grad    0.01 s
wall time for grad    0.01 s
 E :    -50.42905652  G :  0.027022    pred/act E change: -0.495D-03 -0.484D-03
Maxdispl :   0.0714   ||displ|| :   0.1575   Lambda : -0.837D-03
Largest |displ|/coords:  0.0714 (   9)  0.0584 (   3)  0.0552 (   8)
................................................................................
.............................. CYCLE   15 ......................................
................................................................................
   1    -50.7019626 -0.507020E+02  0.133E-01    8.31       0.0  T
   2    -50.7019727 -0.101840E-04  0.994E-02    8.33       1.0  T
   3    -50.7019789 -0.615354E-05  0.181E-02    8.36       1.1  T
   4    -50.7019803 -0.143143E-05  0.744E-03    8.35       2.6  T
   5    -50.7019804 -0.779031E-07  0.195E-03    8.35      10.1  T
   6    -50.7019804 -0.516678E-08  0.113E-03    8.35      17.3  T
speedup  0.88
cpu  time for SCC    0.00 s
wall time for SCC    0.01 s
speedup  0.95
cpu  time for grad    0.01 s
wall time for grad    0.01 s
 E :    -50.42966961  G :  0.023164    pred/act E change: -0.580D-03 -0.613D-03
Maxdispl :   0.1783   ||displ|| :   0.3801   Lambda : -0.177D-02
Largest |displ|/coords:  0.1783 (   2)  0.1600 (   9)  0.1047 (   8)
................................................................................
.............................. CYCLE   16 ......................................
................................................................................
   1    -50.7094239 -0.507094E+02  0.231E-01    8.40       0.0  T
   2    -50.7094860 -0.621045E-04  0.173E-01    8.43       1.0  T
   3    -50.7095217 -0.357553E-04  0.439E-02    8.51       1.0  T
   4    -50.7095289 -0.720246E-05  0.178E-02    8.51       1.1  T
   5    -50.7095295 -0.542838E-06  0.463E-03    8.50       4.2  T
   6    -50.7095295 -0.278535E-07  0.270E-03    8.50       7.3  T
speedup  0.89
cpu  time for SCC    0.00 s
wall time for SCC    0.01 s
speedup  0.98
cpu  time for grad    0.01 s
wall time for grad    0.01 s
 E :    -50.43083343  G :  0.024252    pred/act E change: -0.429D-03 -0.116D-02
Maxdispl :   0.2343   ||displ|| :   0.6013   Lambda : -0.244D-02
Largest |displ|/coords:  0.2343 (   9)  0.2289 (   8)  0.1581 (   2)
................................................................................
.............................. CYCLE   17 ......................................
................................................................................
   1    -50.7094953 -0.507095E+02  0.411E-01    8.54       0.0  T
   2    -50.7096457 -0.150414E-03  0.309E-01    8.58       1.0  T
   3    -50.7097426 -0.968909E-04  0.694E-02    8.68       1.0  T
   4    -50.7097620 -0.193907E-04  0.272E-02    8.68       1.0  T
   5    -50.7097634 -0.134884E-05  0.755E-03    8.68       2.6  T
   6    -50.7097634 -0.658062E-07  0.477E-03    8.68       4.1  T
   7    -50.7097635 -0.376779E-07  0.113E-03    8.68      17.4  T
speedup  1.06
cpu  time for SCC    0.01 s
wall time for SCC    0.01 s
speedup  1.01
cpu  time for grad    0.01 s
wall time for grad    0.01 s
 E :    -50.43259376  G :  0.039742    pred/act E change: -0.101D-02 -0.176D-02
Maxdispl :   0.1558   ||displ|| :   0.4694   Lambda : -0.289D-02
Largest |displ|/coords:  0.1558 (   9)  0.1481 (  14)  0.1305 (   8)
................................................................................
.............................. CYCLE   18 ......................................
................................................................................
   1    -50.7148459 -0.507148E+02  0.300E-01    8.77       0.0  T
   2    -50.7149364 -0.905555E-04  0.225E-01    8.80       1.0  T
   3    -50.7149947 -0.582052E-04  0.535E-02    8.86       1.0  T
   4    -50.7150059 -0.112092E-04  0.200E-02    8.86       1.0  T
   5    -50.7150065 -0.607579E-06  0.575E-03    8.86       3.4  T
   6    -50.7150065 -0.450930E-07  0.336E-03    8.86       5.8  T
speedup  0.88
cpu  time for SCC    0.00 s
wall time for SCC    0.01 s
speedup  0.97
cpu  time for grad    0.01 s
wall time for grad    0.01 s
 E :    -50.43456587  G :  0.036302    pred/act E change: -0.166D-02 -0.197D-02
Maxdispl :   0.1493   ||displ|| :   0.3427   Lambda : -0.281D-02
Largest |displ|/coords:  0.1493 (  17)  0.1156 (   4)  0.0889 (   7)
................................................................................
.............................. CYCLE   19 ......................................
................................................................................
   1    -50.7198421 -0.507198E+02  0.178E-01    8.93       0.0  T
   2    -50.7198659 -0.237320E-04  0.133E-01    8.94       1.0  T
   3    -50.7198862 -0.202820E-04  0.302E-02    8.96       1.0  T
   4    -50.7198886 -0.247498E-05  0.111E-02    8.96       1.8  T
   5    -50.7198888 -0.185456E-06  0.346E-03    8.96       5.7  T
   6    -50.7198888 -0.169450E-07  0.180E-03    8.96      10.9  T
speedup  1.07
cpu  time for SCC    0.01 s
wall time for SCC    0.01 s
speedup  0.98
cpu  time for grad    0.01 s
wall time for grad    0.01 s
 E :    -50.43620778  G :  0.022924    pred/act E change: -0.177D-02 -0.164D-02
Maxdispl :   0.1621   ||displ|| :   0.3787   Lambda : -0.172D-02
Largest |displ|/coords:  0.1621 (   5)  0.1340 (   4)  0.1180 (  12)
................................................................................
.............................. CYCLE   20 ......................................
................................................................................
   1    -50.7155585 -0.507156E+02  0.199E-01    8.93       0.0  T
   2    -50.7155865 -0.280320E-04  0.149E-01    8.94       1.0  T
   3    -50.7156074 -0.208606E-04  0.349E-02    8.97       1.0  T
   4    -50.7156108 -0.345755E-05  0.132E-02    8.97       1.5  T
   5    -50.7156111 -0.243371E-06  0.358E-03    8.97       5.5  T
   6    -50.7156111 -0.169868E-07  0.205E-03    8.97       9.6  T
speedup  0.88
cpu  time for SCC    0.01 s
wall time for SCC    0.01 s
speedup  0.96
cpu  time for grad    0.01 s
wall time for grad    0.01 s
 E :    -50.43694783  G :  0.022209    pred/act E change: -0.157D-02 -0.740D-03
Maxdispl :   0.2101   ||displ|| :   0.3890   Lambda : -0.184D-02
Largest |displ|/coords:  0.2101 (   2)  0.1326 (   5)  0.1202 (  23)
................................................................................
.............................. CYCLE   21 ......................................
................................................................................
   1    -50.7127460 -0.507127E+02  0.242E-01    8.95       0.0  T
   2    -50.7127960 -0.500556E-04  0.175E-01    8.94       1.0  T
   3    -50.7128282 -0.321231E-04  0.434E-02    8.90       1.0  T
   4    -50.7128321 -0.397778E-05  0.131E-02    8.91       1.5  T
   5    -50.7128324 -0.292156E-06  0.393E-03    8.91       5.0  T
   6    -50.7128324 -0.201509E-07  0.217E-03    8.91       9.0  T
speedup  0.91
cpu  time for SCC    0.00 s
wall time for SCC    0.01 s
speedup  0.98
cpu  time for grad    0.01 s
wall time for grad    0.01 s
 E :    -50.43694100  G :  0.030033    pred/act E change: -0.983D-03  0.683D-05
Maxdispl :   0.0932   ||displ|| :   0.2139   Lambda : -0.177D-02
Largest |displ|/coords:  0.0932 (   7)  0.0818 (  10)  0.0815 (   8)
................................................................................
.............................. CYCLE   22 ......................................
................................................................................
   1    -50.7170991 -0.507171E+02  0.169E-01    8.81       0.0  T
   2    -50.7171183 -0.192327E-04  0.123E-01    8.82       1.0  T
   3    -50.7171293 -0.110302E-04  0.269E-02    8.84       1.0  T
   4    -50.7171311 -0.177804E-05  0.947E-03    8.83       2.1  T
   5    -50.7171313 -0.125617E-06  0.237E-03    8.83       8.3  T
   6    -50.7171313 -0.557411E-08  0.138E-03    8.83      14.2  T
speedup  1.09
cpu  time for SCC    0.01 s
wall time for SCC    0.01 s
speedup  0.98
cpu  time for grad    0.01 s
wall time for grad    0.01 s
 E :    -50.43772345  G :  0.015890    pred/act E change: -0.106D-02 -0.782D-03
Maxdispl :   0.0687   ||displ|| :   0.2001   Lambda : -0.708D-03
Largest |displ|/coords:  0.0687 (  17)  0.0675 (   5)  0.0626 (   9)
................................................................................
.............................. CYCLE   23 ......................................
................................................................................
   1    -50.7140869 -0.507141E+02  0.156E-01    8.86       0.0  T
   2    -50.7140972 -0.103543E-04  0.116E-01    8.87       1.0  T
   3    -50.7141066 -0.934824E-05  0.220E-02    8.89       1.0  T
   4    -50.7141076 -0.102975E-05  0.612E-03    8.88       3.2  T
   5    -50.7141076 -0.548094E-07  0.231E-03    8.88       8.5  T
   6    -50.7141077 -0.687717E-08  0.120E-03    8.88      16.3  T
speedup  1.09
cpu  time for SCC    0.01 s
wall time for SCC    0.01 s
speedup  1.05
cpu  time for grad    0.01 s
wall time for grad    0.01 s
 E :    -50.43787598  G :  0.012959    pred/act E change: -0.925D-03 -0.153D-03
Maxdispl :   0.0934   ||displ|| :   0.1559   Lambda : -0.505D-03
Largest |displ|/coords:  0.0934 (   2)  0.0561 (   7)  0.0498 (  15)
................................................................................
.............................. CYCLE   24 ......................................
................................................................................
   1    -50.7157058 -0.507157E+02  0.947E-02    8.91       0.0  T
   2    -50.7157095 -0.369124E-05  0.693E-02    8.90       1.0  T
   3    -50.7157118 -0.234396E-05  0.115E-02    8.88       1.7  T
   4    -50.7157123 -0.456492E-06  0.356E-03    8.89       5.5  T
   5    -50.7157123 -0.179067E-07  0.117E-03    8.89      16.7  T
   6    -50.7157123 -0.184180E-08  0.625E-04    8.89      31.4  T
speedup  0.91
cpu  time for SCC    0.00 s
wall time for SCC    0.01 s
speedup  1.04
cpu  time for grad    0.01 s
wall time for grad    0.01 s
 E :    -50.43815383  G :  0.011537    pred/act E change: -0.368D-03 -0.278D-03
Maxdispl :   0.1138   ||displ|| :   0.2102   Lambda : -0.395D-03
Largest |displ|/coords:  0.1138 (   2)  0.0840 (   5)  0.0580 (  13)
................................................................................
.............................. CYCLE   25 ......................................
................................................................................
   1    -50.7140707 -0.507141E+02  0.101E-01    8.90       0.0  T
   2    -50.7140757 -0.498391E-05  0.734E-02    8.90       1.0  T
   3    -50.7140788 -0.312658E-05  0.147E-02    8.90       1.3  T
   4    -50.7140793 -0.488958E-06  0.410E-03    8.90       4.8  T
   5    -50.7140793 -0.250301E-07  0.128E-03    8.90      15.3  T
   6    -50.7140793 -0.249628E-08  0.682E-04    8.90      28.8  T
speedup  1.07
cpu  time for SCC    0.01 s
wall time for SCC    0.01 s
speedup  1.04
cpu  time for grad    0.01 s
wall time for grad    0.01 s
 E :    -50.43832840  G :  0.010535    pred/act E change: -0.258D-03 -0.175D-03
Maxdispl :   0.1247   ||displ|| :   0.2583   Lambda : -0.365D-03
Largest |displ|/coords:  0.1247 (   2)  0.1213 (   5)  0.0716 (   7)

generating ANC from model Hessian ...
 Shifting diagonal of input Hessian by   4.908527924760572E-003
 Lowest  eigenvalues of input Hessian
   -0.000000   -0.000000   -0.000000    0.000000    0.000000    0.000000
    0.005000    0.005092    0.005336    0.005510    0.005685    0.006075
    0.006566    0.007511    0.007945    0.008129    0.008851    0.009772
 Highest eigenvalues
    1.379550    1.413568    1.435823    2.544938    3.401746    3.676386
 
cpu  time for ANC gen    0.02 s
wall time for ANC gen    0.02 s
................................................................................
.............................. CYCLE   26 ......................................
................................................................................
   1    -50.7164087 -0.507164E+02  0.116E-01    8.90       0.0  T
   2    -50.7164149 -0.619036E-05  0.851E-02    8.89       1.0  T
   3    -50.7164192 -0.433065E-05  0.160E-02    8.89       1.2  T
   4    -50.7164199 -0.694729E-06  0.456E-03    8.89       4.3  T
   5    -50.7164199 -0.296621E-07  0.148E-03    8.89      13.2  T
   6    -50.7164199 -0.362395E-08  0.837E-04    8.89      23.4  T
   7    -50.7164199 -0.115910E-08  0.260E-04    8.89      75.4  T
speedup  1.09
cpu  time for SCC    0.01 s
wall time for SCC    0.01 s
speedup  1.01
cpu  time for grad    0.01 s
wall time for grad    0.01 s
 E :    -50.43858556  G :  0.010303    pred/act E change:  0.000D+00 -0.257D-03
Maxdispl :   0.1243   ||displ|| :   0.2129   Lambda : -0.599D-03
Largest |displ|/coords:  0.1243 (   2)  0.0645 (  12)  0.0630 (   4)
................................................................................
.............................. CYCLE   27 ......................................
................................................................................
   1    -50.7155501 -0.507156E+02  0.181E-01    8.91       0.0  T
   2    -50.7155546 -0.453444E-05  0.137E-01    8.92       1.0  T
   3    -50.7155600 -0.541226E-05  0.102E-02    8.92       1.9  T
   4    -50.7155603 -0.263995E-06  0.344E-03    8.92       5.7  T
   5    -50.7155603 -0.934139E-08  0.146E-03    8.92      13.4  T
   6    -50.7155603 -0.314188E-08  0.625E-04    8.92      31.4  T
speedup  0.93
cpu  time for SCC    0.00 s
wall time for SCC    0.01 s
speedup  0.96
cpu  time for grad    0.01 s
wall time for grad    0.01 s
 E :    -50.43906123  G :  0.006526    pred/act E change:  0.000D+00 -0.476D-03
Maxdispl :   0.2838   ||displ|| :   0.5363   Lambda : -0.116D-02
Largest |displ|/coords:  0.2838 (   2)  0.1763 (  10)  0.1742 (   4)
................................................................................
.............................. CYCLE   28 ......................................
................................................................................
   1    -50.7072310 -0.507072E+02  0.440E-01    8.92       0.0  T
   2    -50.7072740 -0.430339E-04  0.332E-01    8.93       1.0  T
   3    -50.7073151 -0.410661E-04  0.365E-02    8.94       1.0  T
   4    -50.7073200 -0.490906E-05  0.962E-03    8.94       2.0  T
   5    -50.7073201 -0.644822E-07  0.524E-03    8.94       3.7  T
   6    -50.7073201 -0.470458E-07  0.161E-03    8.94      12.2  T
   7    -50.7073201 -0.521157E-08  0.503E-04    8.94      39.0  T
speedup  0.95
cpu  time for SCC    0.01 s
wall time for SCC    0.01 s
speedup  0.99
cpu  time for grad    0.01 s
wall time for grad    0.01 s
 E :    -50.43902268  G :  0.037073    pred/act E change: -0.313D-03  0.385D-04
Maxdispl :   0.0898   ||displ|| :   0.1903   Lambda : -0.172D-02
Largest |displ|/coords:  0.0898 (   8)  0.0824 (  10)  0.0813 (   5)
................................................................................
.............................. CYCLE   29 ......................................
................................................................................
   1    -50.7146455 -0.507146E+02  0.187E-01    8.94       0.0  T
   2    -50.7146678 -0.223249E-04  0.141E-01    8.94       1.0  T
   3    -50.7146839 -0.160233E-04  0.268E-02    8.93       1.0  T
   4    -50.7146869 -0.305944E-05  0.594E-03    8.94       3.3  T
   5    -50.7146869 -0.335756E-07  0.328E-03    8.94       6.0  T
speedup  0.87
cpu  time for SCC    0.00 s
wall time for SCC    0.00 s
speedup  0.95
cpu  time for grad    0.01 s
wall time for grad    0.01 s
 E :    -50.43980107  G :  0.010525    pred/act E change: -0.750D-03 -0.778D-03
Maxdispl :   0.1679   ||displ|| :   0.2510   Lambda : -0.467D-03
Largest |displ|/coords:  0.1679 (   2)  0.0899 (   4)  0.0692 (  12)
................................................................................
.............................. CYCLE   30 ......................................
................................................................................
   1    -50.7155849 -0.507156E+02  0.134E-01    8.91       0.0  T
   2    -50.7155889 -0.400399E-05  0.998E-02    8.91       1.0  T
   3    -50.7155928 -0.392550E-05  0.150E-02    8.91       1.3  T
   4    -50.7155932 -0.403020E-06  0.412E-03    8.91       4.8  T
   5    -50.7155932 -0.255172E-07  0.152E-03    8.91      12.9  T
   6    -50.7155932 -0.367853E-08  0.893E-04    8.91      22.0  T
speedup  1.07
cpu  time for SCC    0.01 s
wall time for SCC    0.01 s
speedup  1.04
cpu  time for grad    0.01 s
wall time for grad    0.01 s
 E :    -50.44019034  G :  0.006594    pred/act E change: -0.889D-03 -0.389D-03
Maxdispl :   0.4236   ||displ|| :   0.7112   Lambda : -0.112D-02
Largest |displ|/coords:  0.4236 (   2)  0.2817 (   4)  0.2020 (   9)
................................................................................
.............................. CYCLE   31 ......................................
................................................................................
   1    -50.7122924 -0.507123E+02  0.405E-01    8.71       0.0  T
   2    -50.7123296 -0.371603E-04  0.303E-01    8.71       1.0  T
   3    -50.7123659 -0.363906E-04  0.469E-02    8.72       1.0  T
   4    -50.7123696 -0.369564E-05  0.128E-02    8.72       1.5  T
   5    -50.7123699 -0.243729E-06  0.464E-03    8.72       4.2  T
   6    -50.7123699 -0.323971E-07  0.270E-03    8.72       7.3  T
   7    -50.7123699 -0.147537E-07  0.796E-04    8.72      24.6  T
speedup  0.90
cpu  time for SCC    0.01 s
wall time for SCC    0.01 s
speedup  0.95
cpu  time for grad    0.01 s
wall time for grad    0.01 s
 E :    -50.44102250  G :  0.019111    pred/act E change: -0.248D-03 -0.832D-03
Maxdispl :   0.2556   ||displ|| :   0.4625   Lambda : -0.799D-03
Largest |displ|/coords:  0.2556 (   2)  0.1698 (   4)  0.1509 (  11)
................................................................................
.............................. CYCLE   32 ......................................
................................................................................
   1    -50.7123440 -0.507123E+02  0.245E-01    8.62       0.0  T
   2    -50.7123606 -0.165509E-04  0.182E-01    8.62       1.0  T
   3    -50.7123742 -0.136110E-04  0.305E-02    8.62       1.0  T
   4    -50.7123761 -0.193244E-05  0.838E-03    8.62       2.3  T
   5    -50.7123762 -0.115175E-06  0.307E-03    8.62       6.4  T
   6    -50.7123762 -0.156060E-07  0.183E-03    8.62      10.7  T
   7    -50.7123763 -0.820602E-08  0.572E-04    8.62      34.3  T
speedup  0.94
cpu  time for SCC    0.01 s
wall time for SCC    0.01 s
speedup  0.97
cpu  time for grad    0.01 s
wall time for grad    0.01 s
 E :    -50.44158588  G :  0.022928    pred/act E change: -0.842D-03 -0.563D-03
Maxdispl :   0.1910   ||displ|| :   0.4738   Lambda : -0.163D-02
Largest |displ|/coords:  0.1910 (   2)  0.1631 (  20)  0.1421 (   6)
................................................................................
.............................. CYCLE   33 ......................................
................................................................................
   1    -50.7177251 -0.507177E+02  0.311E-01    8.78       0.0  T
   2    -50.7177628 -0.376883E-04  0.232E-01    8.77       1.0  T
   3    -50.7177869 -0.240247E-04  0.416E-02    8.76       1.0  T
   4    -50.7177920 -0.518524E-05  0.117E-02    8.77       1.7  T
   5    -50.7177923 -0.260256E-06  0.361E-03    8.77       5.4  T
   6    -50.7177923 -0.103778E-07  0.203E-03    8.77       9.7  T
speedup  1.09
cpu  time for SCC    0.01 s
wall time for SCC    0.01 s
speedup  1.04
cpu  time for grad    0.01 s
wall time for grad    0.01 s
 E :    -50.44217717  G :  0.022979    pred/act E change: -0.485D-03 -0.591D-03
Maxdispl :   0.2608   ||displ|| :   0.3883   Lambda : -0.179D-02
Largest |displ|/coords:  0.2608 (   2)  0.1162 (   7)  0.1018 (   4)
................................................................................
.............................. CYCLE   34 ......................................
................................................................................
   1    -50.7249289 -0.507249E+02  0.267E-01    8.94       0.0  T
   2    -50.7249784 -0.494251E-04  0.197E-01    8.95       1.0  T
   3    -50.7250069 -0.285474E-04  0.474E-02    8.97       1.0  T
   4    -50.7250122 -0.527621E-05  0.115E-02    8.96       1.7  T
   5    -50.7250126 -0.453738E-06  0.368E-03    8.96       5.3  T
   6    -50.7250126 -0.575195E-08  0.218E-03    8.96       9.0  T
speedup  1.11
cpu  time for SCC    0.01 s
wall time for SCC    0.01 s
speedup  1.04
cpu  time for grad    0.01 s
wall time for grad    0.01 s
 E :    -50.44263074  G :  0.026866    pred/act E change: -0.995D-03 -0.454D-03
Maxdispl :   0.2835   ||displ|| :   0.4902   Lambda : -0.196D-02
Largest |displ|/coords:  0.2835 (   2)  0.2367 (   4)  0.2012 (  11)
................................................................................
.............................. CYCLE   35 ......................................
................................................................................
   1    -50.7078132 -0.507078E+02  0.313E-01    8.69       0.0  T
   2    -50.7078466 -0.333864E-04  0.233E-01    8.70       1.0  T
   3    -50.7078724 -0.258505E-04  0.401E-02    8.71       1.0  T
   4    -50.7078762 -0.376594E-05  0.123E-02    8.71       1.6  T
   5    -50.7078764 -0.244574E-06  0.411E-03    8.71       4.8  T
   6    -50.7078765 -0.269520E-07  0.242E-03    8.71       8.1  T
speedup  1.07
cpu  time for SCC    0.01 s
wall time for SCC    0.01 s
speedup  0.95
cpu  time for grad    0.01 s
wall time for grad    0.01 s
 E :    -50.44299489  G :  0.036712    pred/act E change: -0.103D-02 -0.364D-03
Maxdispl :   0.1063   ||displ|| :   0.2324   Lambda : -0.210D-02
Largest |displ|/coords:  0.1063 (   3)  0.0876 (   7)  0.0843 (   4)
................................................................................
.............................. CYCLE   36 ......................................
................................................................................
   1    -50.7175733 -0.507176E+02  0.181E-01    8.75       0.0  T
   2    -50.7175961 -0.228501E-04  0.134E-01    8.75       1.0  T
   3    -50.7176107 -0.145193E-04  0.269E-02    8.76       1.0  T
   4    -50.7176134 -0.270515E-05  0.655E-03    8.76       3.0  T
   5    -50.7176134 -0.553044E-07  0.298E-03    8.76       6.6  T
   6    -50.7176134 -0.882552E-08  0.133E-03    8.76      14.8  T
speedup  1.07
cpu  time for SCC    0.01 s
wall time for SCC    0.01 s
speedup  1.03
cpu  time for grad    0.01 s
wall time for grad    0.01 s
 E :    -50.44363745  G :  0.020014    pred/act E change: -0.122D-02 -0.643D-03
Maxdispl :   0.1499   ||displ|| :   0.3343   Lambda : -0.130D-02
Largest |displ|/coords:  0.1499 (   2)  0.1371 (  20)  0.1001 (   4)
................................................................................
.............................. CYCLE   37 ......................................
................................................................................
   1    -50.7224282 -0.507224E+02  0.204E-01    8.92       0.0  T
   2    -50.7224607 -0.324861E-04  0.149E-01    8.92       1.0  T
   3    -50.7224764 -0.157145E-04  0.425E-02    8.93       1.0  T
   4    -50.7224797 -0.331361E-05  0.876E-03    8.93       2.2  T
   5    -50.7224800 -0.269596E-06  0.304E-03    8.93       6.4  T
   6    -50.7224800 -0.615884E-08  0.177E-03    8.93      11.1  T
speedup  0.91
cpu  time for SCC    0.00 s
wall time for SCC    0.01 s
speedup  0.96
cpu  time for grad    0.01 s
wall time for grad    0.01 s
 E :    -50.44435997  G :  0.015660    pred/act E change: -0.111D-02 -0.723D-03
Maxdispl :   0.2192   ||displ|| :   0.4433   Lambda : -0.973D-03
Largest |displ|/coords:  0.2192 (   2)  0.1790 (   1)  0.1626 (  11)
................................................................................
.............................. CYCLE   38 ......................................
................................................................................
   1    -50.7196710 -0.507197E+02  0.257E-01    8.93       0.0  T
   2    -50.7196921 -0.211589E-04  0.190E-01    8.94       1.0  T
   3    -50.7197078 -0.156250E-04  0.340E-02    8.95       1.0  T
   4    -50.7197105 -0.268399E-05  0.104E-02    8.95       1.9  T
   5    -50.7197106 -0.176369E-06  0.324E-03    8.95       6.1  T
   6    -50.7197106 -0.126608E-07  0.192E-03    8.95      10.2  T
   7    -50.7197107 -0.823562E-08  0.509E-04    8.95      38.5  T
speedup  1.09
cpu  time for SCC    0.01 s
wall time for SCC    0.01 s
speedup  0.95
cpu  time for grad    0.01 s
wall time for grad    0.01 s
 E :    -50.44477191  G :  0.025763    pred/act E change: -0.725D-03 -0.412D-03
Maxdispl :   0.2244   ||displ|| :   0.4449   Lambda : -0.125D-02
Largest |displ|/coords:  0.2244 (   2)  0.1672 (   3)  0.1607 (   4)
................................................................................
.............................. CYCLE   39 ......................................
................................................................................
   1    -50.7137516 -0.507138E+02  0.250E-01    8.85       0.0  T
   2    -50.7137710 -0.193434E-04  0.185E-01    8.86       1.0  T
   3    -50.7137881 -0.171801E-04  0.339E-02    8.89       1.0  T
   4    -50.7137902 -0.203643E-05  0.909E-03    8.88       2.2  T
   5    -50.7137903 -0.127557E-06  0.334E-03    8.88       5.9  T
   6    -50.7137903 -0.165313E-07  0.191E-03    8.88      10.3  T
speedup  0.93
cpu  time for SCC    0.01 s
wall time for SCC    0.01 s
speedup  1.03
cpu  time for grad    0.01 s
wall time for grad    0.01 s
 E :    -50.44535664  G :  0.026330    pred/act E change: -0.582D-03 -0.585D-03
Maxdispl :   0.1852   ||displ|| :   0.3522   Lambda : -0.159D-02
Largest |displ|/coords:  0.1852 (   3)  0.1702 (   6)  0.1140 (  15)
................................................................................
.............................. CYCLE   40 ......................................
................................................................................
   1    -50.7233940 -0.507234E+02  0.198E-01    9.06       0.0  T
   2    -50.7234243 -0.303244E-04  0.144E-01    9.06       1.0  T
   3    -50.7234456 -0.213046E-04  0.371E-02    9.07       1.0  T
   4    -50.7234485 -0.290671E-05  0.993E-03    9.06       2.0  T
   5    -50.7234487 -0.213436E-06  0.389E-03    9.07       5.0  T
   6    -50.7234487 -0.202280E-07  0.189E-03    9.07      10.4  T
speedup  1.07
cpu  time for SCC    0.01 s
wall time for SCC    0.01 s
speedup  1.01
cpu  time for grad    0.01 s
wall time for grad    0.01 s
 E :    -50.44520851  G :  0.031277    pred/act E change: -0.751D-03  0.148D-03
Maxdispl :   0.1745   ||displ|| :   0.3601   Lambda : -0.226D-02
Largest |displ|/coords:  0.1745 (   2)  0.1372 (   1)  0.1253 (   3)
................................................................................
.............................. CYCLE   41 ......................................
................................................................................
   1    -50.7210876 -0.507211E+02  0.249E-01    8.83       0.0  T
   2    -50.7211119 -0.243957E-04  0.186E-01    8.84       1.0  T
   3    -50.7211348 -0.228937E-04  0.309E-02    8.86       1.0  T
   4    -50.7211374 -0.256387E-05  0.108E-02    8.86       1.8  T
   5    -50.7211376 -0.193924E-06  0.401E-03    8.86       4.9  T
   6    -50.7211376 -0.255913E-07  0.221E-03    8.86       8.9  T
speedup  0.91
cpu  time for SCC    0.00 s
wall time for SCC    0.01 s
speedup  1.02
cpu  time for grad    0.01 s
wall time for grad    0.01 s
 E :    -50.44608928  G :  0.022542    pred/act E change: -0.892D-03 -0.881D-03
Maxdispl :   0.1274   ||displ|| :   0.3036   Lambda : -0.154D-02
Largest |displ|/coords:  0.1274 (  11)  0.1166 (   1)  0.1067 (  10)
................................................................................
.............................. CYCLE   42 ......................................
................................................................................
   1    -50.7241629 -0.507242E+02  0.211E-01    9.05       0.0  T
   2    -50.7241910 -0.281320E-04  0.154E-01    9.03       1.0  T
   3    -50.7242060 -0.149475E-04  0.318E-02    9.01       1.0  T
   4    -50.7242099 -0.395042E-05  0.812E-03    9.03       2.4  T
   5    -50.7242100 -0.964805E-07  0.327E-03    9.03       6.0  T
   6    -50.7242101 -0.139331E-07  0.143E-03    9.03      13.7  T
speedup  1.09
cpu  time for SCC    0.01 s
wall time for SCC    0.01 s
speedup  1.02
cpu  time for grad    0.01 s
wall time for grad    0.01 s
 E :    -50.44584227  G :  0.035110    pred/act E change: -0.128D-02  0.247D-03
Maxdispl :   0.1538   ||displ|| :   0.3116   Lambda : -0.205D-02
Largest |displ|/coords:  0.1538 (   4)  0.1470 (   3)  0.1154 (   2)
................................................................................
.............................. CYCLE   43 ......................................
................................................................................
   1    -50.7155329 -0.507155E+02  0.180E-01    8.85       0.0  T
   2    -50.7155528 -0.199467E-04  0.132E-01    8.87       1.0  T
   3    -50.7155618 -0.895244E-05  0.263E-02    8.89       1.0  T
   4    -50.7155648 -0.302024E-05  0.756E-03    8.87       2.6  T
   5    -50.7155649 -0.922227E-07  0.298E-03    8.87       6.6  T
   6    -50.7155649 -0.203256E-07  0.150E-03    8.87      13.1  T
speedup  1.09
cpu  time for SCC    0.01 s
wall time for SCC    0.01 s
speedup  1.02
cpu  time for grad    0.01 s
wall time for grad    0.01 s
 E :    -50.44655561  G :  0.019198    pred/act E change: -0.840D-03 -0.713D-03
Maxdispl :   0.0971   ||displ|| :   0.2872   Lambda : -0.167D-02
Largest |displ|/coords:  0.0971 (   6)  0.0938 (  10)  0.0921 (   2)
................................................................................
.............................. CYCLE   44 ......................................
................................................................................
   1    -50.7219084 -0.507219E+02  0.193E-01    8.97       0.0  T
   2    -50.7219295 -0.211880E-04  0.145E-01    8.97       1.0  T
   3    -50.7219456 -0.160650E-04  0.267E-02    8.96       1.0  T
   4    -50.7219482 -0.262472E-05  0.760E-03    8.97       2.6  T
   5    -50.7219483 -0.919062E-07  0.330E-03    8.97       6.0  T
   6    -50.7219483 -0.117450E-07  0.134E-03    8.97      14.6  T
   7    -50.7219483 -0.610085E-08  0.434E-04    8.97      45.2  T
speedup  0.91
cpu  time for SCC    0.01 s
wall time for SCC    0.01 s
speedup  1.01
cpu  time for grad    0.01 s
wall time for grad    0.01 s
 E :    -50.44641357  G :  0.025242    pred/act E change: -0.113D-02  0.142D-03
Maxdispl :   0.1160   ||displ|| :   0.2294   Lambda : -0.159D-02
Largest |displ|/coords:  0.1160 (   1)  0.0864 (  11)  0.0730 (   3)
................................................................................
.............................. CYCLE   45 ......................................
................................................................................
   1    -50.7243178 -0.507243E+02  0.154E-01    8.86       0.0  T
   2    -50.7243341 -0.163302E-04  0.114E-01    8.85       1.0  T
   3    -50.7243445 -0.103542E-04  0.248E-02    8.84       1.0  T
   4    -50.7243464 -0.198106E-05  0.630E-03    8.85       3.1  T
   5    -50.7243465 -0.789670E-07  0.255E-03    8.85       7.7  T
   6    -50.7243465 -0.858633E-08  0.130E-03    8.85      15.0  T
speedup  1.07
cpu  time for SCC    0.01 s
wall time for SCC    0.01 s
speedup  1.01
cpu  time for grad    0.01 s
wall time for grad    0.01 s
 E :    -50.44709246  G :  0.015299    pred/act E change: -0.906D-03 -0.679D-03
Maxdispl :   0.1523   ||displ|| :   0.3184   Lambda : -0.147D-02
Largest |displ|/coords:  0.1523 (  10)  0.1166 (   4)  0.1083 (   3)
................................................................................
.............................. CYCLE   46 ......................................
................................................................................
   1    -50.7178534 -0.507179E+02  0.233E-01    9.09       0.0  T
   2    -50.7178814 -0.280631E-04  0.171E-01    9.10       1.0  T
   3    -50.7178994 -0.180065E-04  0.356E-02    9.11       1.0  T
   4    -50.7179028 -0.332757E-05  0.111E-02    9.10       1.8  T
   5    -50.7179030 -0.191475E-06  0.354E-03    9.10       5.5  T
   6    -50.7179030 -0.182617E-07  0.205E-03    9.10       9.6  T
   7    -50.7179030 -0.863230E-08  0.653E-04    9.10      30.0  T
speedup  1.11
cpu  time for SCC    0.01 s
wall time for SCC    0.01 s
speedup  1.01
cpu  time for grad    0.01 s
wall time for grad    0.01 s
 E :    -50.44636635  G :  0.035353    pred/act E change: -0.835D-03  0.726D-03
Maxdispl :   0.0911   ||displ|| :   0.2289   Lambda : -0.234D-02
Largest |displ|/coords:  0.0911 (   1)  0.0855 (  10)  0.0837 (  20)
................................................................................
.............................. CYCLE   47 ......................................
................................................................................
   1    -50.7205593 -0.507206E+02  0.143E-01    8.96       0.0  T
   2    -50.7205721 -0.128377E-04  0.105E-01    8.95       1.0  T
   3    -50.7205806 -0.845503E-05  0.248E-02    8.95       1.0  T
   4    -50.7205820 -0.143499E-05  0.859E-03    8.95       2.3  T
   5    -50.7205821 -0.122984E-06  0.239E-03    8.95       8.2  T
   6    -50.7205821 -0.942528E-08  0.144E-03    8.95      13.6  T
speedup  0.91
cpu  time for SCC    0.01 s
wall time for SCC    0.01 s
speedup  1.02
cpu  time for grad    0.01 s
wall time for grad    0.01 s
 E :    -50.44760917  G :  0.010081    pred/act E change: -0.808D-03 -0.124D-02
Maxdispl :   0.1541   ||displ|| :   0.2801   Lambda : -0.581D-03
Largest |displ|/coords:  0.1541 (   1)  0.1382 (   2)  0.0830 (   5)
................................................................................
.............................. CYCLE   48 ......................................
................................................................................
   1    -50.7221215 -0.507221E+02  0.131E-01    8.87       0.0  T
   2    -50.7221304 -0.895303E-05  0.959E-02    8.87       1.0  T
   3    -50.7221358 -0.537992E-05  0.230E-02    8.86       1.0  T
   4    -50.7221368 -0.102385E-05  0.564E-03    8.86       3.5  T
   5    -50.7221369 -0.666430E-07  0.204E-03    8.87       9.6  T
   6    -50.7221369 -0.668393E-08  0.115E-03    8.87      17.1  T
speedup  1.09
cpu  time for SCC    0.01 s
wall time for SCC    0.01 s
speedup  1.02
cpu  time for grad    0.01 s
wall time for grad    0.01 s
 E :    -50.44768362  G :  0.014951    pred/act E change: -0.123D-02 -0.744D-04
Maxdispl :   0.1802   ||displ|| :   0.2466   Lambda : -0.734D-03
Largest |displ|/coords:  0.1802 (   1)  0.0856 (   3)  0.0828 (   8)
................................................................................
.............................. CYCLE   49 ......................................
................................................................................
   1    -50.7242480 -0.507242E+02  0.126E-01    8.93       0.0  T
   2    -50.7242517 -0.371706E-05  0.931E-02    8.93       1.0  T
   3    -50.7242556 -0.384945E-05  0.147E-02    8.93       1.3  T
   4    -50.7242559 -0.323201E-06  0.484E-03    8.93       4.1  T
   5    -50.7242559 -0.329744E-07  0.165E-03    8.93      11.9  T
   6    -50.7242559 -0.242563E-08  0.906E-04    8.93      21.6  T
speedup  0.93
cpu  time for SCC    0.00 s
wall time for SCC    0.01 s
speedup  0.96
cpu  time for grad    0.01 s
wall time for grad    0.01 s
 E :    -50.44820721  G :  0.010784    pred/act E change: -0.313D-03 -0.524D-03
Maxdispl :   0.3416   ||displ|| :   0.4426   Lambda : -0.836D-03
Largest |displ|/coords:  0.3416 (   1)  0.1343 (   2)  0.1058 (   3)
................................................................................
.............................. CYCLE   50 ......................................
................................................................................
   1    -50.7191886 -0.507192E+02  0.235E-01    8.94       0.0  T
   2    -50.7192018 -0.131772E-04  0.176E-01    8.94       1.0  T
   3    -50.7192153 -0.134891E-04  0.232E-02    8.94       1.0  T
   4    -50.7192166 -0.136848E-05  0.786E-03    8.94       2.5  T
   5    -50.7192167 -0.853607E-07  0.340E-03    8.94       5.8  T
   6    -50.7192167 -0.146343E-07  0.171E-03    8.94      11.5  T
   7    -50.7192167 -0.470742E-08  0.415E-04    8.94      47.3  T
speedup  1.13
cpu  time for SCC    0.01 s
wall time for SCC    0.01 s
speedup  1.03
cpu  time for grad    0.01 s
wall time for grad    0.01 s
 E :    -50.44861400  G :  0.015532    pred/act E change: -0.389D-03 -0.407D-03
Maxdispl :   0.1614   ||displ|| :   0.3298   Lambda : -0.959D-03
Largest |displ|/coords:  0.1614 (  11)  0.1484 (   1)  0.1044 (  13)
................................................................................
.............................. CYCLE   51 ......................................
................................................................................
   1    -50.7266608 -0.507267E+02  0.280E-01    9.22       0.0  T
   2    -50.7266895 -0.286885E-04  0.207E-01    9.21       1.0  T
   3    -50.7267050 -0.154999E-04  0.450E-02    9.20       1.0  T
   4    -50.7267088 -0.380016E-05  0.131E-02    9.20       1.5  T
   5    -50.7267089 -0.184488E-06  0.315E-03    9.20       6.2  T
   6    -50.7267090 -0.962609E-08  0.188E-03    9.20      10.5  T
   7    -50.7267090 -0.646551E-08  0.662E-04    9.20      29.6  T
speedup  0.94
cpu  time for SCC    0.01 s
wall time for SCC    0.01 s
speedup  0.96
cpu  time for grad    0.01 s
wall time for grad    0.01 s
 E :    -50.44864804  G :  0.025337    pred/act E change: -0.500D-03 -0.340D-04
Maxdispl :   0.1181   ||displ|| :   0.2461   Lambda : -0.111D-02
Largest |displ|/coords:  0.1181 (   2)  0.0987 (   1)  0.0901 (   3)
................................................................................
.............................. CYCLE   52 ......................................
................................................................................
   1    -50.7237623 -0.507238E+02  0.140E-01    8.98       0.0  T
   2    -50.7237796 -0.172836E-04  0.998E-02    8.99       1.0  T
   3    -50.7237854 -0.582053E-05  0.332E-02    8.99       1.0  T
   4    -50.7237868 -0.135647E-05  0.785E-03    8.99       2.5  T
   5    -50.7237869 -0.664956E-07  0.160E-03    8.99      12.3  T
   6    -50.7237869 -0.400691E-08  0.915E-04    8.99      21.4  T
speedup  1.09
cpu  time for SCC    0.01 s
wall time for SCC    0.01 s
speedup  1.01
cpu  time for grad    0.01 s
wall time for grad    0.01 s
 E :    -50.44921435  G :  0.010814    pred/act E change: -0.532D-03 -0.566D-03
Maxdispl :   0.1525   ||displ|| :   0.2539   Lambda : -0.826D-03
Largest |displ|/coords:  0.1525 (   5)  0.0913 (   4)  0.0659 (   7)

generating ANC from model Hessian ...
 Shifting diagonal of input Hessian by   4.585201189151587E-003
 Lowest  eigenvalues of input Hessian
   -0.000000   -0.000000   -0.000000   -0.000000    0.000000    0.000000
    0.005000    0.005081    0.005934    0.006815    0.007102    0.007788
    0.008126    0.008582    0.008875    0.009917    0.011140    0.012680
 Highest eigenvalues
    1.379855    1.396174    1.401990    2.588059    3.337780    3.678908
 
cpu  time for ANC gen    0.02 s
wall time for ANC gen    0.02 s
................................................................................
.............................. CYCLE   53 ......................................
................................................................................
   1    -50.7236784 -0.507237E+02  0.175E-01    8.93       0.0  T
   2    -50.7236887 -0.103226E-04  0.131E-01    8.92       1.0  T
   3    -50.7236972 -0.841909E-05  0.182E-02    8.91       1.1  T
   4    -50.7236985 -0.134300E-05  0.691E-03    8.91       2.8  T
   5    -50.7236985 -0.481649E-07  0.237E-03    8.91       8.3  T
   6    -50.7236985 -0.608482E-08  0.131E-03    8.91      15.0  T
   7    -50.7236985 -0.212770E-08  0.245E-04    8.91      79.9  T
   8    -50.7236985 -0.165258E-09  0.842E-05    8.91     233.0  T
speedup  0.97
cpu  time for SCC    0.01 s
wall time for SCC    0.01 s
speedup  1.00
cpu  time for grad    0.02 s
wall time for grad    0.02 s
 E :    -50.44902159  G :  0.025326    pred/act E change:  0.000D+00  0.193D-03
Maxdispl :   0.0919   ||displ|| :   0.2063   Lambda : -0.123D-02
Largest |displ|/coords:  0.0919 (  10)  0.0737 (   1)  0.0649 (   3)
................................................................................
.............................. CYCLE   54 ......................................
................................................................................
   1    -50.7220223 -0.507220E+02  0.241E-01    8.91       0.0  T
   2    -50.7220316 -0.936887E-05  0.184E-01    8.91       1.0  T
   3    -50.7220433 -0.116927E-04  0.148E-02    8.90       1.3  T
   4    -50.7220439 -0.540721E-06  0.570E-03    8.90       3.4  T
   5    -50.7220439 -0.340433E-07  0.215E-03    8.90       9.1  T
speedup  1.06
cpu  time for SCC    0.00 s
wall time for SCC    0.00 s
speedup  1.00
cpu  time for grad    0.01 s
wall time for grad    0.01 s
 E :    -50.44974065  G :  0.012569    pred/act E change:  0.000D+00 -0.719D-03
Maxdispl :   0.1964   ||displ|| :   0.2692   Lambda : -0.922D-03
Largest |displ|/coords:  0.1964 (   8)  0.0857 (   4)  0.0776 (  15)
................................................................................
.............................. CYCLE   55 ......................................
................................................................................
   1    -50.7207164 -0.507207E+02  0.243E-01    8.90       0.0  T
   2    -50.7207202 -0.382103E-05  0.182E-01    8.90       1.0  T
   3    -50.7207243 -0.408346E-05  0.110E-02    8.89       1.8  T
   4    -50.7207246 -0.299717E-06  0.468E-03    8.89       4.2  T
   5    -50.7207247 -0.224347E-07  0.189E-03    8.89      10.4  T
   6    -50.7207247 -0.465691E-08  0.779E-04    8.89      25.2  T
speedup  0.91
cpu  time for SCC    0.00 s
wall time for SCC    0.01 s
speedup  1.01
cpu  time for grad    0.01 s
wall time for grad    0.01 s
 E :    -50.45003157  G :  0.015528    pred/act E change: -0.639D-03 -0.291D-03
Maxdispl :   0.0494   ||displ|| :   0.1052   Lambda : -0.309D-03
Largest |displ|/coords:  0.0494 (   3)  0.0354 (   9)  0.0344 (   5)
................................................................................
.............................. CYCLE   56 ......................................
................................................................................
   1    -50.7219140 -0.507219E+02  0.717E-02    8.90       0.0  T
   2    -50.7219151 -0.108043E-05  0.544E-02    8.90       1.0  T
   3    -50.7219163 -0.114470E-05  0.633E-03    8.90       3.1  T
   4    -50.7219164 -0.946162E-07  0.212E-03    8.90       9.3  T
   5    -50.7219164 -0.559977E-08  0.659E-04    8.90      29.8  T
speedup  0.87
cpu  time for SCC    0.00 s
wall time for SCC    0.00 s
speedup  1.02
cpu  time for grad    0.01 s
wall time for grad    0.01 s
 E :    -50.45028170  G :  0.010232    pred/act E change: -0.494D-03 -0.250D-03
Maxdispl :   0.1429   ||displ|| :   0.3295   Lambda : -0.601D-03
Largest |displ|/coords:  0.1429 (   8)  0.1374 (   3)  0.1284 (   9)
................................................................................
.............................. CYCLE   57 ......................................
................................................................................
   1    -50.7220121 -0.507220E+02  0.242E-01    8.89       0.0  T
   2    -50.7220246 -0.124556E-04  0.184E-01    8.89       1.0  T
   3    -50.7220371 -0.125576E-04  0.200E-02    8.88       1.0  T
   4    -50.7220385 -0.133017E-05  0.677E-03    8.89       2.9  T
   5    -50.7220385 -0.611855E-07  0.264E-03    8.89       7.4  T
   6    -50.7220385 -0.637228E-08  0.147E-03    8.89      13.3  T
speedup  0.91
cpu  time for SCC    0.01 s
wall time for SCC    0.01 s
speedup  0.94
cpu  time for grad    0.01 s
wall time for grad    0.01 s
 E :    -50.45066384  G :  0.012085    pred/act E change: -0.156D-03 -0.382D-03
Maxdispl :   0.1704   ||displ|| :   0.4023   Lambda : -0.720D-03
Largest |displ|/coords:  0.1704 (   9)  0.1618 (   5)  0.1563 (   8)
................................................................................
.............................. CYCLE   58 ......................................
................................................................................
   1    -50.7235112 -0.507235E+02  0.247E-01    8.85       0.0  T
   2    -50.7235264 -0.152167E-04  0.186E-01    8.84       1.0  T
   3    -50.7235436 -0.171641E-04  0.237E-02    8.83       1.0  T
   4    -50.7235448 -0.122324E-05  0.890E-03    8.83       2.2  T
   5    -50.7235449 -0.102011E-06  0.308E-03    8.83       6.4  T
   6    -50.7235449 -0.106008E-07  0.170E-03    8.83      11.5  T
   7    -50.7235449 -0.473362E-08  0.360E-04    8.83      54.5  T
speedup  0.97
cpu  time for SCC    0.01 s
wall time for SCC    0.01 s
speedup  1.03
cpu  time for grad    0.01 s
wall time for grad    0.01 s
 E :    -50.45080378  G :  0.021544    pred/act E change: -0.333D-03 -0.140D-03
Maxdispl :   0.2388   ||displ|| :   0.3438   Lambda : -0.891D-03
Largest |displ|/coords:  0.2388 (   8)  0.1266 (   3)  0.0987 (   5)
................................................................................
.............................. CYCLE   59 ......................................
................................................................................
   1    -50.7174915 -0.507175E+02  0.277E-01    8.78       0.0  T
   2    -50.7175085 -0.170355E-04  0.208E-01    8.78       1.0  T
   3    -50.7175241 -0.155703E-04  0.232E-02    8.76       1.0  T
   4    -50.7175261 -0.203049E-05  0.719E-03    8.76       2.7  T
   5    -50.7175262 -0.637809E-07  0.352E-03    8.76       5.6  T
   6    -50.7175262 -0.195458E-07  0.168E-03    8.76      11.7  T
speedup  0.93
cpu  time for SCC    0.00 s
wall time for SCC    0.01 s
speedup  1.01
cpu  time for grad    0.01 s
wall time for grad    0.01 s
 E :    -50.45103546  G :  0.023009    pred/act E change: -0.418D-03 -0.232D-03
Maxdispl :   0.1282   ||displ|| :   0.2539   Lambda : -0.114D-02
Largest |displ|/coords:  0.1282 (   5)  0.1223 (   1)  0.1024 (   4)
................................................................................
.............................. CYCLE   60 ......................................
................................................................................
   1    -50.7249248 -0.507249E+02  0.147E-01    8.81       0.0  T
   2    -50.7249327 -0.788990E-05  0.110E-01    8.81       1.0  T
   3    -50.7249391 -0.639961E-05  0.164E-02    8.81       1.2  T
   4    -50.7249400 -0.961078E-06  0.492E-03    8.81       4.0  T
   5    -50.7249401 -0.331000E-07  0.233E-03    8.81       8.4  T
speedup  1.02
cpu  time for SCC    0.00 s
wall time for SCC    0.00 s
speedup  0.98
cpu  time for grad    0.01 s
wall time for grad    0.01 s
 E :    -50.45121036  G :  0.014933    pred/act E change: -0.498D-03 -0.175D-03
Maxdispl :   0.1100   ||displ|| :   0.2201   Lambda : -0.780D-03
Largest |displ|/coords:  0.1100 (   5)  0.0994 (   9)  0.0912 (  15)
................................................................................
.............................. CYCLE   61 ......................................
................................................................................
   1    -50.7233267 -0.507233E+02  0.148E-01    8.77       0.0  T
   2    -50.7233341 -0.731420E-05  0.112E-01    8.77       1.0  T
   3    -50.7233424 -0.838176E-05  0.150E-02    8.75       1.3  T
   4    -50.7233431 -0.630048E-06  0.695E-03    8.75       2.8  T
   5    -50.7233431 -0.558687E-07  0.174E-03    8.75      11.2  T
   6    -50.7233431 -0.466309E-08  0.984E-04    8.75      19.9  T
speedup  1.03
cpu  time for SCC    0.01 s
wall time for SCC    0.01 s
speedup  1.06
cpu  time for grad    0.01 s
wall time for grad    0.01 s
 E :    -50.45163807  G :  0.008203    pred/act E change: -0.607D-03 -0.428D-03
Maxdispl :   0.1716   ||displ|| :   0.3238   Lambda : -0.454D-03
Largest |displ|/coords:  0.1716 (   5)  0.1656 (   8)  0.1172 (   9)
................................................................................
.............................. CYCLE   62 ......................................
................................................................................
   1    -50.7209127 -0.507209E+02  0.196E-01    8.70       0.0  T
   2    -50.7209193 -0.651517E-05  0.148E-01    8.69       1.0  T
   3    -50.7209265 -0.720573E-05  0.146E-02    8.68       1.3  T
   4    -50.7209270 -0.579926E-06  0.610E-03    8.68       3.2  T
   5    -50.7209271 -0.464018E-07  0.201E-03    8.68       9.8  T
   6    -50.7209271 -0.456524E-08  0.117E-03    8.68      16.8  T
speedup  1.07
cpu  time for SCC    0.01 s
wall time for SCC    0.01 s
speedup  1.00
cpu  time for grad    0.01 s
wall time for grad    0.01 s
 E :    -50.45192212  G :  0.010653    pred/act E change: -0.409D-03 -0.284D-03
Maxdispl :   0.1239   ||displ|| :   0.2811   Lambda : -0.345D-03
Largest |displ|/coords:  0.1239 (   9)  0.1119 (   8)  0.1094 (   3)
................................................................................
.............................. CYCLE   63 ......................................
................................................................................
   1    -50.7210855 -0.507211E+02  0.144E-01    8.66       0.0  T
   2    -50.7210902 -0.461906E-05  0.108E-01    8.65       1.0  T
   3    -50.7210952 -0.506774E-05  0.123E-02    8.64       1.6  T
   4    -50.7210956 -0.409388E-06  0.515E-03    8.64       3.8  T
   5    -50.7210957 -0.311716E-07  0.157E-03    8.64      12.5  T
   6    -50.7210957 -0.248642E-08  0.943E-04    8.64      20.8  T
speedup  0.89
cpu  time for SCC    0.00 s
wall time for SCC    0.01 s
speedup  1.00
cpu  time for grad    0.01 s
wall time for grad    0.01 s
 E :    -50.45218480  G :  0.011509    pred/act E change: -0.251D-03 -0.263D-03
Maxdispl :   0.1204   ||displ|| :   0.3350   Lambda : -0.633D-03
Largest |displ|/coords:  0.1204 (   9)  0.1136 (   5)  0.1061 (  16)
................................................................................
.............................. CYCLE   64 ......................................
................................................................................
   1    -50.7279793 -0.507280E+02  0.166E-01    8.71       0.0  T
   2    -50.7279938 -0.144936E-04  0.122E-01    8.72       1.0  T
   3    -50.7280028 -0.897661E-05  0.259E-02    8.74       1.0  T
   4    -50.7280043 -0.151858E-05  0.675E-03    8.74       2.9  T
   5    -50.7280044 -0.889335E-07  0.252E-03    8.73       7.8  T
   6    -50.7280044 -0.987791E-08  0.142E-03    8.73      13.9  T
speedup  0.89
cpu  time for SCC    0.00 s
wall time for SCC    0.01 s
speedup  1.00
cpu  time for grad    0.01 s
wall time for grad    0.01 s
 E :    -50.45226709  G :  0.016444    pred/act E change: -0.186D-03 -0.823D-04
Maxdispl :   0.1387   ||displ|| :   0.2777   Lambda : -0.615D-03
Largest |displ|/coords:  0.1387 (   9)  0.1146 (   3)  0.0975 (   6)
[...]
 
cpu  time for ANC gen    0.02 s
wall time for ANC gen    0.02 s
................................................................................
.............................. CYCLE  113 ......................................
................................................................................
   1    -50.7439642 -0.507440E+02  0.209E-02    9.12       0.0  T
   2    -50.7439643 -0.107133E-06  0.157E-02    9.12       1.2  T
   3    -50.7439644 -0.840849E-07  0.219E-03    9.12       9.0  T
   4    -50.7439644 -0.148643E-07  0.634E-04    9.12      30.9  T
   5    -50.7439644 -0.751989E-09  0.205E-04    9.12      95.8  T
speedup  1.06
cpu  time for SCC    0.00 s
wall time for SCC    0.00 s
speedup  1.02
cpu  time for grad    0.01 s
wall time for grad    0.01 s
 E :    -50.46105995  G :  0.001023    pred/act E change:  0.000D+00 -0.470D-05
Maxdispl :   0.0050   ||displ|| :   0.0122   Lambda : -0.290D-05
Largest |displ|/coords:  0.0050 (  10)  0.0047 (   2)  0.0045 (   7)
................................................................................
.............................. CYCLE  114 ......................................
................................................................................
   1    -50.7439435 -0.507439E+02  0.816E-03    9.12       0.0  T
   2    -50.7439435 -0.170859E-07  0.613E-03    9.12       3.2  T
   3    -50.7439436 -0.133870E-07  0.796E-04    9.12      24.6  T
   4    -50.7439436 -0.237121E-08  0.272E-04    9.12      72.1  T
speedup  1.00
cpu  time for SCC    0.00 s
wall time for SCC    0.00 s
speedup  1.01
cpu  time for grad    0.01 s
wall time for grad    0.01 s
 E :    -50.46106202  G :  0.000557    pred/act E change:  0.000D+00 -0.207D-05
Maxdispl :   0.0120   ||displ|| :   0.0274   Lambda : -0.371D-05
Largest |displ|/coords:  0.0120 (   3)  0.0116 (   7)  0.0112 (  10)
................................................................................
.............................. CYCLE  115 ......................................
................................................................................
   1    -50.7439417 -0.507439E+02  0.142E-02    9.12       0.0  T
   2    -50.7439418 -0.501801E-07  0.105E-02    9.12       1.9  T
   3    -50.7439418 -0.343080E-07  0.170E-03    9.12      11.6  T
   4    -50.7439418 -0.665997E-08  0.524E-04    9.12      37.5  T
   5    -50.7439418 -0.352628E-09  0.135E-04    9.12     145.4  T
speedup  1.02
cpu  time for SCC    0.00 s
wall time for SCC    0.00 s
speedup  1.01
cpu  time for grad    0.01 s
wall time for grad    0.01 s
 E :    -50.46106393  G :  0.000624    pred/act E change: -0.145D-05 -0.191D-05
Maxdispl :   0.0077   ||displ|| :   0.0159   Lambda : -0.137D-05
Largest |displ|/coords:  0.0077 (   7)  0.0057 (   1)  0.0055 (   2)
................................................................................
.............................. CYCLE  116 ......................................
................................................................................
   1    -50.7439661 -0.507440E+02  0.804E-03    9.12       0.0  T
   2    -50.7439661 -0.138329E-07  0.599E-03    9.12       3.3  T
   3    -50.7439662 -0.121959E-07  0.822E-04    9.12      23.9  T
   4    -50.7439662 -0.141606E-08  0.298E-04    9.12      65.8  T
speedup  1.03
cpu  time for SCC    0.00 s
wall time for SCC    0.00 s
speedup  1.01
cpu  time for grad    0.01 s
wall time for grad    0.01 s
 E :    -50.46106491  G :  0.000534    pred/act E change: -0.186D-05 -0.978D-06
Maxdispl :   0.0114   ||displ|| :   0.0229   Lambda : -0.142D-05
Largest |displ|/coords:  0.0114 (   7)  0.0102 (   3)  0.0087 (   1)
................................................................................
.............................. CYCLE  117 ......................................
................................................................................
   1    -50.7439964 -0.507440E+02  0.103E-02    9.12       0.0  T
   2    -50.7439965 -0.288003E-07  0.761E-03    9.12       2.6  T
   3    -50.7439965 -0.202967E-07  0.119E-03    9.12      16.5  T
   4    -50.7439965 -0.338942E-08  0.397E-04    9.12      49.4  T
   5    -50.7439965 -0.227445E-09  0.103E-04    9.12     190.8  T
speedup  1.06
cpu  time for SCC    0.00 s
wall time for SCC    0.00 s
speedup  1.02
cpu  time for grad    0.01 s
wall time for grad    0.01 s
 E :    -50.46106591  G :  0.000352    pred/act E change: -0.683D-06 -0.995D-06
Maxdispl :   0.0121   ||displ|| :   0.0221   Lambda : -0.928D-06
Largest |displ|/coords:  0.0121 (   7)  0.0115 (   3)  0.0080 (   2)
................................................................................
.............................. CYCLE  118 ......................................
................................................................................
   1    -50.7439968 -0.507440E+02  0.964E-03    9.12       0.0  T
   2    -50.7439968 -0.244960E-07  0.714E-03    9.12       2.7  T
   3    -50.7439968 -0.152254E-07  0.113E-03    9.12      17.3  T
   4    -50.7439968 -0.327436E-08  0.347E-04    9.12      56.5  T
   5    -50.7439968 -0.169564E-09  0.895E-05    9.12     219.2  T
speedup  0.85
cpu  time for SCC    0.00 s
wall time for SCC    0.00 s
speedup  0.94
cpu  time for grad    0.01 s
wall time for grad    0.01 s
 E :    -50.46106653  G :  0.000367    pred/act E change: -0.709D-06 -0.623D-06
Maxdispl :   0.0087   ||displ|| :   0.0155   Lambda : -0.527D-06
Largest |displ|/coords:  0.0087 (   3)  0.0076 (   7)  0.0070 (   2)
................................................................................
.............................. CYCLE  119 ......................................
................................................................................
   1    -50.7439882 -0.507440E+02  0.629E-03    9.12       0.0  T
   2    -50.7439882 -0.996141E-08  0.467E-03    9.12       4.2  T
   3    -50.7439882 -0.620719E-08  0.732E-04    9.12      26.8  T
   4    -50.7439882 -0.143354E-08  0.212E-04    9.12      92.7  T
speedup  1.05
cpu  time for SCC    0.00 s
wall time for SCC    0.00 s
speedup  1.02
cpu  time for grad    0.01 s
wall time for grad    0.01 s
 E :    -50.46106689  G :  0.000322    pred/act E change: -0.464D-06 -0.365D-06
Maxdispl :   0.0061   ||displ|| :   0.0104   Lambda : -0.359D-06
Largest |displ|/coords:  0.0061 (   3)  0.0052 (   7)  0.0047 (   2)
................................................................................
.............................. CYCLE  120 ......................................
................................................................................
   1    -50.7439774 -0.507440E+02  0.430E-03    9.12       0.0  T
   2    -50.7439774 -0.437706E-08  0.319E-03    9.12       6.1  T
   3    -50.7439774 -0.279621E-08  0.494E-04    9.12      39.7  T
   4    -50.7439774 -0.650346E-09  0.146E-04    9.12     134.7  T
speedup  1.05
cpu  time for SCC    0.00 s
wall time for SCC    0.00 s
speedup  1.02
cpu  time for grad    0.01 s
wall time for grad    0.01 s
 E :    -50.46106714  G :  0.000212    pred/act E change: -0.263D-06 -0.243D-06
Maxdispl :   0.0039   ||displ|| :   0.0069   Lambda : -0.207D-06
Largest |displ|/coords:  0.0039 (   2)  0.0037 (   3)  0.0015 (  14)
................................................................................
.............................. CYCLE  121 ......................................
................................................................................
   1    -50.7439751 -0.507440E+02  0.291E-03    9.12       0.0  T
   2    -50.7439751 -0.200529E-08  0.218E-03    9.12       9.0  T
   3    -50.7439751 -0.156854E-08  0.287E-04    9.12      68.4  T
   4    -50.7439751 -0.256257E-09  0.101E-04    9.12     194.1  T
speedup  1.05
cpu  time for SCC    0.00 s
wall time for SCC    0.00 s
speedup  1.01
cpu  time for grad    0.01 s
wall time for grad    0.01 s
 E :    -50.46106728  G :  0.000143    pred/act E change: -0.179D-06 -0.140D-06
Maxdispl :   0.0027   ||displ|| :   0.0061   Lambda : -0.145D-06
Largest |displ|/coords:  0.0027 (   2)  0.0020 (   3)  0.0019 (   1)
................................................................................
.............................. CYCLE  122 ......................................
................................................................................
   1    -50.7439742 -0.507440E+02  0.285E-03    9.12       0.0  T
   2    -50.7439742 -0.178880E-08  0.214E-03    9.12       9.2  T
   3    -50.7439742 -0.142430E-08  0.262E-04    9.12      74.9  T
   4    -50.7439742 -0.245777E-09  0.855E-05    9.12     229.5  T
speedup  1.00
cpu  time for SCC    0.00 s
wall time for SCC    0.00 s
speedup  0.99
cpu  time for grad    0.01 s
wall time for grad    0.01 s
 E :    -50.46106737  G :  0.000143    pred/act E change: -0.104D-06 -0.957D-07
Maxdispl :   0.0025   ||displ|| :   0.0054   Lambda : -0.112D-06
Largest |displ|/coords:  0.0025 (   2)  0.0020 (  11)  0.0015 (   3)

   *** GEOMETRY OPTIMIZATION CONVERGED AFTER 122 ITERATIONS ***

------------------------------------------------------------------------
 total energy gain (kcal):     -0.0047
------------------------------------------------------------------------
================
 final structure:
================
$coord
        2.48971613737083       -1.70618182154722       -0.36168741202939      S 
        1.52590816923515       -0.83157482847027       -2.78189527735212      O 
        5.21327180097067       -1.44178555389163       -0.13000707540113      O 
        1.25314198874030       -0.41282342006704        1.75411078697534      O 
        1.83964208303261       -4.57864692996953       -0.11837355834896      O 
       -0.00275420643001       -4.71764044669438       -0.33301563260990      H 
       -1.54683571422383       -0.66625919181646        2.60611616592405      H 
       -3.35107467241650       -0.92855720615886        3.10015531499034      O 
       -3.35562052425376       -1.14620888348574        4.89762131725122      H 
       -3.46694703152954       -0.50991024615830       -3.72619785469446      O 
       -4.03474220866602       -2.08159504045151       -3.01105201303268      H 
       -1.62785869879801       -0.62305036892764       -3.70171396285264      H 
        1.36700819171740        4.05114771654556       -1.79452530889170      O 
        1.46614972655846        2.37041299172892       -2.57285918252190      H 
        3.29552208275071        3.75950879917735        0.10569249609685      H 
       -3.20578182037127       -4.72111000433730       -0.21322116916723      O 
       -3.53866000560835       -3.36326660219347        1.01843105852389      H 
       -3.85393887638988       -6.25796935617205        0.49530287306653      H 
       -3.37318871840127        3.34449417097203       -0.34211166929440      O 
       -3.70042024689643        2.21094621598321       -1.76995611360528      H 
       -3.56473676866087        2.28033394842490        1.12495596254900      H 
       -0.38324903884836        4.10193408111544       -1.11662330112500      H 
        4.83251624457050        3.17707753523500        1.44001128542415      N 
        6.35291896890863        4.34523180294762        1.38372026373475      H 
        5.28196488261202        1.29214380205900        0.84171433263732      H 
        4.08804827391856        3.05334883615141        3.20540773043896      H 
$end
 
 Bond Distances (Angstroems)
 ---------------------------
S1-O2=1.4542         S1-O3=1.4532         S1-O4=1.4664         S1-O5=1.5638         O2-S1=1.4542         O3-S1=1.4532         
O4-S1=1.4664         O5-S1=1.5638         O5-H6=0.9843         H6-O5=0.9843         H7-O8=0.9996         O8-H7=0.9996         
O8-H9=0.9581         H9-O8=0.9581         O10-H11=0.9619       O10-H12=0.9751       H11-O10=0.9619       H12-O10=0.9751       
O13-H14=0.9815       O13-H22=0.9936       H14-O13=0.9815       H15-N23=1.1203       O16-H17=0.9860       O16-H18=0.9590       
H17-O16=0.9860       H18-O16=0.9590       O19-H20=0.9802       O19-H21=0.9644       H20-O19=0.9802       H21-O19=0.9644       
H22-O13=0.9936       N23-H15=1.1203       N23-H24=1.0151       N23-H25=1.0732       N23-H26=1.0160       H24-N23=1.0151       
H25-N23=1.0732       H26-N23=1.0160       
 N  H  Rav=1.0561 sigma=0.0439  Rmin=1.0151  Rmax=1.1203     4
 O  H  Rav=0.9767 sigma=0.0136  Rmin=0.9581  Rmax=0.9996    11
 S  O  Rav=1.4844 sigma=0.0461  Rmin=1.4532  Rmax=1.5638     4
 
 selected bond angles (degree)
 --------------------
O3-S1-O2=113.05                O4-S1-O2=111.56                O4-S1-O3=109.46                O5-S1-O2=107.74                
O5-S1-O3=107.75                O5-S1-O4=107.02                H6-O5-S1=106.32                H9-O8-H7=106.18                
H12-O10-H11=104.68             
 
 selected dihedral angles (degree)
 ---------------------------------
H6-O5-S1-O2=303.98            H6-O5-S1-O3=181.71            H6-O5-S1-O4= 64.07            
 
 CMA Distance (Angstroems)
 ---------------------------
R(CMA):  2.3174

========================================================================
 FINAL SINGLEPOINT CALCULATION ON OPTIMIZED GEOMETRY
========================================================================

 Ncao       : 65
 Nao        : 64
 Nshell     : 38
 Nel        : 80
 T(el)      :   300.0
 intcut     :    25.0
 scfconv/Eh :  0.100E-05
   qconv/e  :  0.100E-03
 intneglect :  0.100E-07
 broydamp   :      0.250
 iter      E             dE          RMSdq      gap      omega  full diag
   1    -50.7439742 -0.507440E+02  0.327E-05    9.12       0.0  T
   2    -50.7439742 -0.112266E-11  0.211E-05    9.12     927.6  T
   3    -50.7439742 -0.667910E-12  0.474E-06    9.12    4138.4  T
speedup  1.00
cpu  time for SCC    0.00 s
wall time for SCC    0.00 s

   *** convergence criteria satisfied after 3 iterations ***

          eigenvalues
 #    :          28         29         30         31         32         33         34         35
 occ. :        2.000      2.000      2.000      2.000      2.000      2.000      2.000      2.000
 eps  :       -13.245    -12.979    -12.720    -12.376    -12.278    -12.248    -12.178    -12.038
 #    :          36         37         38         39         40         41         42         43
 occ. :        2.000      2.000      2.000      2.000      2.000      0.000      0.000      0.000
 eps  :       -11.823    -11.784    -11.597    -11.471    -11.326     -2.204     -0.893     -0.013
 #    :          44         45         46         47         48         49         50         51
 occ. :        0.000      0.000      0.000      0.000      0.000      0.000      0.000      0.000
 eps  :         0.310      1.029      1.352      2.028      2.805      3.726      4.288      5.088


   #   Z            q   n(s)   n(p)   n(d)      C6AA      α(0)
   1  16 S      1.679  1.588  1.784  0.949    89.238    15.899
   2   8 O     -0.753  1.776  4.976  0.000    30.181     7.366
   3   8 O     -0.717  1.766  4.950  0.000    29.155     7.240
   4   8 O     -0.776  1.768  5.007  0.000    30.857     7.448
   5   8 O     -0.610  1.756  4.854  0.000    25.396     6.803
   6   1 H      0.375  0.625  0.000  0.000     0.529     1.140
   7   1 H      0.342  0.658  0.000  0.000     0.606     1.223
   8   8 O     -0.634  1.754  4.881  0.000    26.028     6.886
   9   1 H      0.284  0.716  0.000  0.000     0.772     1.380
  10   8 O     -0.617  1.749  4.868  0.000    25.603     6.829
  11   1 H      0.297  0.703  0.000  0.000     0.729     1.341
  12   1 H      0.317  0.683  0.000  0.000     0.672     1.287
  13   8 O     -0.612  1.753  4.858  0.000    25.436     6.809
  14   1 H      0.326  0.674  0.000  0.000     0.649     1.265
  15   1 H      0.313  0.687  0.000  0.000     0.672     1.283
  16   8 O     -0.618  1.753  4.866  0.000    25.628     6.832
  17   1 H      0.340  0.660  0.000  0.000     0.612     1.229
  18   1 H      0.293  0.707  0.000  0.000     0.743     1.354
  19   8 O     -0.624  1.757  4.867  0.000    25.770     6.851
  20   1 H      0.327  0.673  0.000  0.000     0.645     1.262
  21   1 H      0.304  0.696  0.000  0.000     0.709     1.323
  22   1 H      0.348  0.652  0.000  0.000     0.594     1.211
  23   7 N     -0.348  1.279  4.069  0.000    28.945     7.991
  24   1 H      0.232  0.768  0.000  0.000     0.959     1.534
  25   1 H      0.291  0.709  0.000  0.000     0.741     1.348
  26   1 H      0.241  0.759  0.000  0.000     0.920     1.502

 Mol. C6AA /au·bohr⁶  :       5455.336894
 Mol. C8AA /au·bohr⁸  :     118080.769728
 Mol. α(0) /au        :        106.635403

 
 Wiberg/Mayer (AO) data. WBOs > 0.1 written file <wbo>
 largest (>0.05) Wiberg bond orders for each atom
           total WBO             WBO to atom ...
     1  S   4.845    O    3 1.310    O    2 1.282    O    4 1.260    O    5 0.949
     2  O   1.719    S    1 1.282    O    4 0.108    O    3 0.104    O    5 0.081    H   14 0.057
     3  O   1.775    S    1 1.310    H   25 0.125    O    2 0.104    O    4 0.100    O    5 0.063    N   23 0.054
     4  O   1.684    S    1 1.260    O    2 0.108    O    3 0.100    H    7 0.093    O    5 0.080
     5  O   1.971    S    1 0.949    H    6 0.763    O    2 0.081    O    4 0.080    O    3 0.063
     6  H   0.860    O    5 0.763    O   16 0.079
     7  H   0.883    O    8 0.782    O    4 0.093
     8  O   1.866    H    9 0.913    H    7 0.782    H   17 0.066
     9  H   0.920    O    8 0.913
    10  O   1.859    H   11 0.896    H   12 0.851    H   20 0.051
    11  H   0.912    O   10 0.896
    12  H   0.899    O   10 0.851
    13  O   1.998    H   14 0.832    H   22 0.796    H   15 0.215    N   23 0.087
    14  H   0.894    O   13 0.832    O    2 0.057
    15  H   0.902    N   23 0.682    O   13 0.215
    16  O   1.887    H   18 0.909    H   17 0.814    H    6 0.079
    17  H   0.884    O   16 0.814    O    8 0.066
    18  H   0.914    O   16 0.909
    19  O   1.878    H   21 0.884    H   20 0.840    H   22 0.078
    20  H   0.893    O   19 0.840    O   10 0.051
    21  H   0.908    O   19 0.884
    22  H   0.879    O   13 0.796    O   19 0.078
    23  N   3.498    H   24 0.942    H   26 0.937    H   25 0.781    H   15 0.682    O   13 0.087    O    3 0.054
    24  H   0.946    N   23 0.942
    25  H   0.915    N   23 0.781    O    3 0.125
    26  H   0.942    N   23 0.937
 MOs/occ written to file <molden.input>
 
molecular dipole:
                 x           y           z       tot (Debye)
 q only:        0.580       0.854       2.051
   full:        0.547      -0.092       2.565       6.671
molecular quadrupole (traceless):
                xx          xy          yy          xz          yz          zz
 q only:        0.299      25.066       3.323       1.917       3.034      -3.622
  q+dip:       -0.780      26.758       2.397      -0.019       3.713      -1.617
   full:       -0.747      27.271       2.697      -0.242       3.708      -1.951

SCC energy    :     -50.7439742
rep           :       0.2825833
ES            :       0.2665254
AES           :      -0.0711555
AXC           :      -0.0088513
disp          :      -0.0202699
XB            :       0.0000000
fix           :       0.0000000
total E       :     -50.4610674
atomizationE  :       4.9913715     3132.13
(atE without considering molecular charge,
 total energy contains solvation terms)
H-L gap (eV)  :          9.1217
optimized geometry written to: xtbopt.xyz


------------------------------------------------------------------------
 * finished run on 2019/09/16 at 12:57:54.297     
------------------------------------------------------------------------
 total:
 * wall-time:     0 d,  0 h,  0 min,  2.992 sec
 *  cpu-time:     0 d,  0 h,  0 min,  2.906 sec
 * ratio c/w:     0.971 speedup
 SCF:
 * wall-time:     0 d,  0 h,  0 min,  0.178 sec
 *  cpu-time:     0 d,  0 h,  0 min,  0.168 sec
 * ratio c/w:     0.946 speedup
 ANC optimizer:
 * wall-time:     0 d,  0 h,  0 min,  2.783 sec
 *  cpu-time:     0 d,  0 h,  0 min,  2.707 sec
 * ratio c/w:     0.973 speedup

