      -----------------------------------------------------------      
     |                   =====================                   |     
     |                           x T B                           |     
     |                   =====================                   |     
     |                         S. Grimme                         |     
     |          Mulliken Center for Theoretical Chemistry        |     
     |                    University of Bonn                     |     
     |                 Version 6.0.1 (SAW181210)                 |     
      -----------------------------------------------------------      

   This program is distributed in the hope that it will be useful,
   but WITHOUT ANY WARRANTY; without even the implied warranty of
   MERCHANTABILITY or FITNESS FOR A PARTICULAR PURPOSE.
   
   FOR NON-COMMERCIAL, ACADEMIA USE ONLY.
   
   Cite this work as:
   S. Grimme, C. Bannwarth, P. Shushkov, J. Comput. Theory Chem., 2017,
   13, 1989-2009.
   C. Bannwarth, S. Ehlert and S. Grimme., ChemRxiv, 2018, preprint.
   http://doi.org/10.26434/chemrxiv.7246238.v1
   
   for sTDA-xTB:
   S. Grimme and C. Bannwarth, J. Chem. Phys., 2016, 145, 054103.
   
   in the mass-spec context:
   V. Asgeirsson, C. Bauer and S. Grimme, Chem. Sci., 2017, 8, 4879.
   
   if GBSA is used:
   P. Shushkov, F. März and S. Grimme, unpublished.
   
   for ANC optimizer:
   S. Grimme, unpublished.
   Rational Function algorithm used in ANCopt:
   F. Eckert, P. Pulay, H.-J. Werner, J. Comput. Chem., 1997, 18, 1473.
   
   with help from (in alphabetical order)
   C. Bannwarth, F. Bohle, G. Brandenburg, E. Caldeweyher, M. Checinski,
   S. Dohm, S. Ehlert, S. Ehrlich, F. März, H. Neugebauer, J. Pisarek,
   P. Pracht, P. Shushkov, and S. Spicher.
   
 * started run on 2019/09/16 at 11:52:47.207     
========================================================================
 # omp threads = 1
========================================================================
number of atoms            : 26
number of electrons        : 80
charge                     : 0
spin                       : .0
first test random number   : .3346

########################################################################
# WARNING! Please study the warnings concerning your input carefully
#  - XTBPATH is not set, using XTBHOME instead
#  - the use of '-opt' is discouraged, please use '--opt' next time
#  - the use of '-chrg' is discouraged, please use '--chrg' next time
#  - the use of '-uhf' is discouraged, please use '--uhf' next time
########################################################################

           ------------------------------------------------- 
          |                 G F N 2 - x T B                 |
          | Geometry, Frequencies, Noncovalent interactions |
          |            JCTC 2018 parametrisation            |
           ------------------------------------------------- 
      method parameters     
 k(s)        :  1.8500
 k(p)        :  2.2300
 k(d)        :  2.2300
 k(f)        :  2.0000
 kEN (H0ij)  : -2.0000
 D4 a1       :  0.5200
 D4 a2       :  5.0000
 D4 s6       :  1.0000
 D4 s8       :  2.7000
 D4 s9       :  5.0000
 alphaj      :  2.0000


            Z     q(EN)     CN     RAES       Cart. coordinates
     1  S   6.0    0.58    4.28    4.19     0.36381    -0.87594     5.25576
     2  O   6.0   -0.32    1.13    1.80    -1.49359    -2.48897     4.01897
     3  O   6.0   -0.30    1.14    1.80     2.78705    -0.28683     4.15191
     4  O   6.0   -0.23    2.04    1.83    -1.09536     1.72362     6.06725
     5  O   6.0   -0.22    2.04    1.83     0.96531    -1.89374     8.06111
     6  H   1.0    0.14    1.11    1.45    -0.59704    -2.46289     8.84944
     7  H   1.0    0.16    1.20    1.46    -2.39192     2.03786     4.79976
     8  O   6.0   -0.42    1.72    1.81    -1.09026     1.89849    -1.28926
     9  H   1.0    0.17    0.95    1.42    -0.95691     3.75575    -1.41795
    10  O   6.0   -0.30    2.06    1.83     3.49907     0.92704    -0.86788
    11  H   1.0    0.18    1.01    1.43     3.80952     0.62045     0.89967
    12  H   1.0    0.18    1.13    1.45     1.74574     1.40605    -0.97274
    13  O   6.0   -0.29    2.07    1.83    -4.15219     2.37643     2.19674
    14  H   1.0    0.18    1.15    1.45    -2.95749     2.26844     0.82719
    15  H   1.0    0.15    0.97    1.43    -5.78865     2.17286     1.42527
    16  O   6.0   -0.29    2.03    1.83     4.91865    -0.70137    -5.35221
    17  H   1.0    0.16    1.05    1.44     4.68329    -0.06171    -3.66400
    18  H   1.0    0.15    0.97    1.43     6.72188    -0.77475    -5.59221
    19  O   6.0   -0.28    1.99    1.82    -2.87019    -2.47418    -1.03724
    20  H   1.0    0.17    1.01    1.43    -2.76274    -2.97792     0.70898
    21  H   1.0    0.18    1.13    1.45    -2.28760    -0.74977    -1.07759
    22  N   5.0   -0.15    3.96    2.76    -0.21008    -0.68778    -5.19820
    23  H   1.0    0.10    1.06    1.44     1.70542    -0.85863    -5.49167
    24  H   1.0    0.09    1.00    1.43    -0.94934    -2.42131    -4.71567
    25  H   1.0    0.12    1.16    1.46    -0.53502     0.57929    -3.75827
    26  H   1.0    0.08    0.99    1.43    -1.06137    -0.05047    -6.82718

  Z AO/shell   Hii/eV     exponent
  1     Wed Apr 25 08:07:45 CEST 2018   EN: 2.200 GM2: 0.406  GM3: 0.0800  RAES: 1.40
     1s    -10.707211    1.230000
  7     Wed Apr 25 08:07:45 CEST 2018   EN: 3.040 GM2: 0.461  GM3:-0.0640  RAES: 1.90
     2s    -16.686243    2.339881
     2p    -12.523956    2.014332
  8     Wed Apr 25 08:07:45 CEST 2018   EN: 3.440 GM2: 0.452  GM3:-0.0517  RAES: 1.80
     2s    -20.229985    2.439742
     2p    -15.503117    2.137023
 16     Tue Apr 24 11:44:34 CEST 2018   EN: 2.580 GM2: 0.340  GM3:-0.0502  RAES: 3.10
     3s    -20.029654    1.981333
     3p    -11.377694    2.025643
     3d     -0.420282    1.702555
 no old-style atom pair restraining (fixing) potential

molecular fragmentation (1/2 indicates fragments):
11111112222222222222222222
# atoms in fragment 1/2:     7    19
 fragment masses (1/2) :       98.07      107.11
CMA distance (Bohr)    :   7.476
constraining FC (au)   :  0.0500
           ------------------------------------------------- 
          |        Self-Consistent Charge Iterations        |
           ------------------------------------------------- 

 Ncao       : 65
 Nao        : 64
 Nshell     : 38
 Nel        : 80
 T(el)      :   300.0
 intcut     :    25.0
 scfconv/Eh :  0.100E-05
   qconv/e  :  0.100E-03
 intneglect :  0.100E-07
 broydamp   :      0.250
 iter      E             dE          RMSdq      gap      omega  full diag
   1    -50.5746731 -0.505747E+02  0.710E+00    8.06       0.0  T
   2    -50.6261555 -0.514824E-01  0.501E+00    7.18       1.0  T
   3    -50.6688035 -0.426480E-01  0.120E+00    4.90       1.0  T
   4    -50.6721386 -0.333513E-02  0.714E-01    5.02       1.0  T
   5    -50.6738556 -0.171700E-02  0.254E-01    5.06       1.0  T
   6    -50.6741453 -0.289648E-03  0.152E-01    5.08       1.0  T
   7    -50.6742939 -0.148686E-03  0.466E-02    5.09       1.0  T
   8    -50.6743059 -0.119324E-04  0.239E-02    5.09       1.0  T
   9    -50.6743091 -0.319973E-05  0.689E-03    5.10       2.8  T
  10    -50.6743093 -0.182048E-06  0.198E-03    5.10       9.9  T
  11    -50.6743093 -0.134264E-07  0.102E-03    5.10      19.2  T
  12    -50.6743093 -0.476543E-08  0.355E-04    5.10      55.2  T
  13    -50.6743093 -0.400107E-09  0.149E-04    5.10     131.3  T
speedup  0.95
cpu  time for SCC    0.01 s
wall time for SCC    0.01 s

   *** convergence criteria satisfied after 13 iterations ***

          eigenvalues
 #    :          28         29         30         31         32         33         34         35
 occ. :        2.000      2.000      2.000      2.000      2.000      2.000      2.000      2.000
 eps  :       -13.072    -12.779    -12.591    -12.508    -12.399    -12.225    -12.009    -11.831
 #    :          36         37         38         39         40         41         42         43
 occ. :        2.000      2.000      2.000      2.000      2.000      0.000      0.000      0.000
 eps  :       -11.289    -10.785    -10.566    -10.260     -9.920     -4.823     -2.140     -1.216
 #    :          44         45         46         47         48         49         50         51
 occ. :        0.000      0.000      0.000      0.000      0.000      0.000      0.000      0.000
 eps  :        -0.958      0.446      1.660      1.997      2.640      3.409      3.567      4.484


   #   Z            q   n(s)   n(p)   n(d)      C6AA      α(0)
   1  16 S      1.662  1.626  1.790  0.922    89.638    15.935
   2   8 O     -0.652  1.774  4.878  0.000    27.431     7.022
   3   8 O     -0.617  1.763  4.854  0.000    26.539     6.907
   4   8 O     -0.597  1.764  4.833  0.000    25.096     6.763
   5   8 O     -0.559  1.754  4.806  0.000    24.199     6.641
   6   1 H      0.352  0.648  0.000  0.000     0.581     1.197
   7   1 H      0.394  0.606  0.000  0.000     0.494     1.103
   8   8 O     -0.867  1.847  5.019  0.000    33.681     7.781
   9   1 H      0.215  0.785  0.000  0.000     1.045     1.606
  10   8 O     -0.681  1.749  4.932  0.000    27.212     7.041
  11   1 H      0.298  0.702  0.000  0.000     0.727     1.340
  12   1 H      0.324  0.676  0.000  0.000     0.651     1.267
  13   8 O     -0.666  1.755  4.911  0.000    26.825     6.990
  14   1 H      0.337  0.663  0.000  0.000     0.616     1.232
  15   1 H      0.283  0.717  0.000  0.000     0.773     1.381
  16   8 O     -0.627  1.733  4.895  0.000    25.851     6.862
  17   1 H      0.341  0.659  0.000  0.000     0.608     1.225
  18   1 H      0.281  0.719  0.000  0.000     0.780     1.387
  19   8 O     -0.673  1.752  4.921  0.000    26.993     7.012
  20   1 H      0.293  0.707  0.000  0.000     0.744     1.355
  21   1 H      0.331  0.669  0.000  0.000     0.633     1.249
  22   7 N     -0.300  1.258  4.042  0.000    27.704     7.817
  23   1 H      0.301  0.699  0.000  0.000     0.711     1.321
  24   1 H      0.274  0.726  0.000  0.000     0.795     1.397
  25   1 H      0.325  0.675  0.000  0.000     0.643     1.255
  26   1 H      0.228  0.772  0.000  0.000     0.974     1.546

 Mol. C6AA /au·bohr⁶  :       5452.865009
 Mol. C8AA /au·bohr⁸  :     117970.031024
 Mol. α(0) /au        :        106.631137

 
 Wiberg/Mayer (AO) data. WBOs > 0.1 written file <wbo>
 largest (>0.05) Wiberg bond orders for each atom
           total WBO             WBO to atom ...
     1  S   4.760    O    3 1.464    O    2 1.412    O    4 0.928    O    5 0.926
     2  O   1.781    S    1 1.412    O    3 0.146    O    4 0.103    O    5 0.090
     3  O   1.828    S    1 1.464    O    2 0.146    O    4 0.099    O    5 0.074
     4  O   1.973    S    1 0.928    H    7 0.759    O    2 0.103    O    3 0.099    O    5 0.053
     5  O   2.009    S    1 0.926    H    6 0.857    O    2 0.090    O    3 0.074    O    4 0.053
     6  H   0.876    O    5 0.857
     7  H   0.845    O    4 0.759    O   13 0.066
     8  O   1.578    H    9 0.929    H   25 0.157    H   14 0.118    H   12 0.113    N   22 0.068    H   21 0.066    O   10 0.051
     9  H   0.954    O    8 0.929
    10  O   1.805    H   11 0.877    H   12 0.777    H   17 0.058    O    8 0.051
    11  H   0.911    O   10 0.877
    12  H   0.895    O   10 0.777    O    8 0.113
    13  O   1.813    H   15 0.907    H   14 0.759    H    7 0.066
    14  H   0.886    O   13 0.759    O    8 0.118
    15  H   0.920    O   13 0.907
    16  O   1.831    H   18 0.906    H   17 0.822    H   23 0.052
    17  H   0.883    O   16 0.822    O   10 0.058
    18  H   0.921    O   16 0.906
    19  O   1.783    H   20 0.890    H   21 0.815
    20  H   0.914    O   19 0.890
    21  H   0.890    O   19 0.815    O    8 0.066
    22  N   3.545    H   26 0.943    H   24 0.909    H   23 0.849    H   25 0.726    O    8 0.068
    23  H   0.910    N   22 0.849    O   16 0.052
    24  H   0.925    N   22 0.909
    25  H   0.895    N   22 0.726    O    8 0.157
    26  H   0.948    N   22 0.943
 MOs/occ written to file <molden.input>
 
molecular dipole:
                 x           y           z       tot (Debye)
 q only:       -0.325      -0.517      -2.081
   full:       -0.486      -0.231      -1.685       4.496
molecular quadrupole (traceless):
                xx          xy          yy          xz          yz          zz
 q only:       -9.914      -2.696     -10.254      -5.354      -4.394      20.168
  q+dip:       -8.426      -3.707     -10.469      -6.305      -7.686      18.896
   full:       -8.402      -3.921     -10.890      -6.332      -7.935      19.292

SCC energy    :     -50.6743093
rep           :       0.2911367
ES            :       0.2981842
AES           :      -0.0587731
AXC           :      -0.0044872
disp          :      -0.0174966
XB            :       0.0000000
fix           :       0.0000000
total E       :     -50.3829614
atomizationE  :       4.9132656     3083.12
(atE without considering molecular charge,
 total energy contains solvation terms)
H-L gap (eV)  :          5.0971
           ------------------------------------------------- 
          |                 ===============                 |
          |                   A N C O P T                   |
          |                 ===============                 |
          |          Approximate Normal Coordinate          |
          |           Rational Function Optimizer           |
           ------------------------------------------------- 
dumping coords to <xtbopt.coord> and <xtbopt.log>
 optlevel               2
 Maxcycle             520
 Maxmicro              25
 Econv         1.000000000000000E-007
 Gconv         2.000000000000000E-004
 Maxdispl       1.00000000000000     
 Hlow          5.000000000000000E-003
 S6             20.0000000000000     
 Nvar               72

generating ANC from model Hessian ...
 Shifting diagonal of input Hessian by   6.152284113749481E-003
 Lowest  eigenvalues of input Hessian
    0.005000    0.006037   -0.000000   -0.000000   -0.000000   -0.000000
   -0.000000    0.000000    0.006319    0.006574    0.006620    0.006830
    0.007070    0.007379    0.007849    0.008109    0.008473    0.008867
 Highest eigenvalues
    1.440181    1.442953    1.444996    1.954085    2.771432    3.591694
 
cpu  time for ANC gen    0.02 s
wall time for ANC gen    0.02 s
................................................................................
.............................. CYCLE    1 ......................................
................................................................................
   1    -50.6743093 -0.506743E+02  0.571E-05    5.10       0.0  T
   2    -50.6743093 -0.589040E-11  0.433E-05    5.10     453.0  T
   3    -50.6743093 -0.583356E-11  0.195E-05    5.10    1006.0  T
speedup  1.11
cpu  time for SCC    0.00 s
wall time for SCC    0.00 s
speedup  1.01
cpu  time for grad    0.01 s
wall time for grad    0.01 s
 E :    -50.38296139  G :  0.140650    pred/act E change:  0.000D+00  0.261D-07
Maxdispl :   0.1667   ||displ|| :   0.3695   Lambda : -0.236D-01
Largest |displ|/coords:  0.1667 (  34)  0.1162 (  22)  0.1066 (  21)
................................................................................
.............................. CYCLE    2 ......................................
................................................................................
   1    -50.6850701 -0.506851E+02  0.359E-01    5.72       0.0  T
   2    -50.6852541 -0.184071E-03  0.263E-01    5.72       1.0  T
   3    -50.6853339 -0.798113E-04  0.746E-02    5.72       1.0  T
   4    -50.6853507 -0.167042E-04  0.267E-02    5.73       1.0  T
   5    -50.6853518 -0.112735E-05  0.596E-03    5.73       3.3  T
   6    -50.6853518 -0.672547E-07  0.327E-03    5.73       6.0  T
speedup  0.93
cpu  time for SCC    0.01 s
wall time for SCC    0.01 s
speedup  0.94
cpu  time for grad    0.01 s
wall time for grad    0.01 s
 E :    -50.40010680  G :  0.073130    pred/act E change:  0.000D+00 -0.171D-01
Maxdispl :   0.1218   ||displ|| :   0.3390   Lambda : -0.840D-02
Largest |displ|/coords:  0.1218 (  22)  0.1100 (   5)  0.1049 (  25)
................................................................................
.............................. CYCLE    3 ......................................
................................................................................
   1    -50.6914050 -0.506914E+02  0.310E-01    6.26       0.0  T
   2    -50.6915169 -0.111904E-03  0.230E-01    6.30       1.0  T
   3    -50.6915562 -0.392193E-04  0.578E-02    6.37       1.0  T
   4    -50.6915706 -0.144445E-04  0.189E-02    6.37       1.0  T
   5    -50.6915712 -0.544666E-06  0.417E-03    6.36       4.7  T
   6    -50.6915712 -0.271074E-07  0.241E-03    6.36       8.1  T
speedup  0.94
cpu  time for SCC    0.00 s
wall time for SCC    0.01 s
speedup  1.02
cpu  time for grad    0.01 s
wall time for grad    0.01 s
 E :    -50.40689318  G :  0.051047    pred/act E change: -0.134D-01 -0.679D-02
Maxdispl :   0.1274   ||displ|| :   0.3196   Lambda : -0.487D-02
Largest |displ|/coords:  0.1274 (   8)  0.1119 (  25)  0.1110 (   9)
................................................................................
.............................. CYCLE    4 ......................................
................................................................................
   1    -50.6967515 -0.506968E+02  0.228E-01    6.76       0.0  T
   2    -50.6968409 -0.894645E-04  0.167E-01    6.80       1.0  T
   3    -50.6968692 -0.282370E-04  0.496E-02    6.89       1.0  T
   4    -50.6968785 -0.935852E-05  0.131E-02    6.89       1.5  T
   5    -50.6968788 -0.261613E-06  0.289E-03    6.88       6.8  T
   6    -50.6968788 -0.109776E-07  0.173E-03    6.88      11.3  T
speedup  0.93
cpu  time for SCC    0.00 s
wall time for SCC    0.01 s
speedup  1.01
cpu  time for grad    0.01 s
wall time for grad    0.01 s
 E :    -50.41085661  G :  0.038085    pred/act E change: -0.469D-02 -0.396D-02
Maxdispl :   0.2714   ||displ|| :   0.6262   Lambda : -0.831D-02
Largest |displ|/coords:  0.2714 (   5)  0.2231 (  25)  0.1858 (  26)
................................................................................
.............................. CYCLE    5 ......................................
................................................................................
   1    -50.6998546 -0.506999E+02  0.615E-01    7.73       0.0  T
   2    -50.7004767 -0.622105E-03  0.454E-01    7.85       1.0  T
   3    -50.7006719 -0.195170E-03  0.133E-01    8.08       1.0  T
   4    -50.7007466 -0.747323E-04  0.340E-02    8.06       1.0  T
   5    -50.7007486 -0.196859E-05  0.804E-03    8.05       2.4  T
   6    -50.7007487 -0.801216E-07  0.485E-03    8.04       4.0  T
   7    -50.7007487 -0.451114E-07  0.179E-03    8.04      10.9  T
speedup  0.97
cpu  time for SCC    0.01 s
wall time for SCC    0.01 s
speedup  0.96
cpu  time for grad    0.01 s
wall time for grad    0.01 s
 E :    -50.41463340  G :  0.048890    pred/act E change: -0.268D-02 -0.378D-02
Maxdispl :   0.1585   ||displ|| :   0.4316   Lambda : -0.632D-02
Largest |displ|/coords:  0.1585 (   6)  0.1529 (   8)  0.1443 (  17)
................................................................................
.............................. CYCLE    6 ......................................
................................................................................
   1    -50.7127145 -0.507127E+02  0.429E-01    8.24       0.0  T
   2    -50.7129502 -0.235658E-03  0.319E-01    8.32       1.0  T
   3    -50.7130375 -0.873367E-04  0.826E-02    8.46       1.0  T
   4    -50.7130702 -0.326758E-04  0.214E-02    8.46       1.0  T
   5    -50.7130710 -0.807048E-06  0.555E-03    8.45       3.5  T
   6    -50.7130710 -0.253448E-07  0.312E-03    8.45       6.3  T
speedup  0.93
cpu  time for SCC    0.00 s
wall time for SCC    0.01 s
speedup  0.94
cpu  time for grad    0.01 s
wall time for grad    0.01 s
 E :    -50.41664971  G :  0.048386    pred/act E change: -0.578D-02 -0.202D-02
Maxdispl :   0.2735   ||displ|| :   0.4583   Lambda : -0.515D-02
Largest |displ|/coords:  0.2735 (   8)  0.2223 (  14)  0.1346 (   5)
................................................................................
.............................. CYCLE    7 ......................................
................................................................................
   1    -50.6981839 -0.506982E+02  0.540E-01    8.13       0.0  T
   2    -50.6983495 -0.165574E-03  0.406E-01    8.16       1.0  T
   3    -50.6984488 -0.993617E-04  0.718E-02    8.20       1.0  T
   4    -50.6984733 -0.245076E-04  0.179E-02    8.20       1.1  T
   5    -50.6984739 -0.593678E-06  0.757E-03    8.20       2.6  T
   6    -50.6984740 -0.106440E-06  0.408E-03    8.20       4.8  T
   7    -50.6984741 -0.324825E-07  0.992E-04    8.20      19.8  T
speedup  0.98
cpu  time for SCC    0.01 s
wall time for SCC    0.01 s
speedup  0.96
cpu  time for grad    0.01 s
wall time for grad    0.01 s
 E :    -50.41627272  G :  0.064457    pred/act E change: -0.375D-02  0.377D-03
Maxdispl :   0.2792   ||displ|| :   0.4976   Lambda : -0.131D-01
Largest |displ|/coords:  0.2792 (   5)  0.1749 (   8)  0.1641 (  14)
................................................................................
.............................. CYCLE    8 ......................................
................................................................................
   1    -50.7162620 -0.507163E+02  0.711E-01    8.18       0.0  T
   2    -50.7165219 -0.259918E-03  0.538E-01    8.17       1.0  T
   3    -50.7166982 -0.176247E-03  0.916E-02    8.13       1.0  T
   4    -50.7167340 -0.358072E-04  0.307E-02    8.14       1.0  T
   5    -50.7167363 -0.236568E-05  0.100E-02    8.15       2.0  T
   6    -50.7167364 -0.456747E-07  0.502E-03    8.15       3.9  T
   7    -50.7167364 -0.602555E-07  0.124E-03    8.15      15.8  T
speedup  1.13
cpu  time for SCC    0.01 s
wall time for SCC    0.01 s
speedup  1.03
cpu  time for grad    0.01 s
wall time for grad    0.01 s
 E :    -50.41664923  G :  0.074215    pred/act E change: -0.312D-02 -0.377D-03
Maxdispl :   0.1880   ||displ|| :   0.4244   Lambda : -0.116D-01
Largest |displ|/coords:  0.1880 (  17)  0.1663 (  18)  0.1245 (  20)
................................................................................
.............................. CYCLE    9 ......................................
................................................................................
   1    -50.6957677 -0.506958E+02  0.602E-01    7.78       0.0  T
   2    -50.6959967 -0.229034E-03  0.451E-01    7.84       1.0  T
   3    -50.6961387 -0.141925E-03  0.869E-02    7.95       1.0  T
   4    -50.6961696 -0.309245E-04  0.231E-02    7.91       1.0  T
   5    -50.6961707 -0.109624E-05  0.835E-03    7.90       2.3  T
   6    -50.6961708 -0.120465E-06  0.487E-03    7.90       4.0  T
   7    -50.6961708 -0.503789E-07  0.106E-03    7.90      18.5  T
speedup  0.97
cpu  time for SCC    0.01 s
wall time for SCC    0.01 s
speedup  1.01
cpu  time for grad    0.01 s
wall time for grad    0.01 s
 E :    -50.41672276  G :  0.072675    pred/act E change: -0.815D-02 -0.735D-04
Maxdispl :   0.2516   ||displ|| :   0.5054   Lambda : -0.173D-01
Largest |displ|/coords:  0.2516 (  17)  0.1765 (  18)  0.1630 (  16)
................................................................................
.............................. CYCLE   10 ......................................
................................................................................
   1    -50.7181961 -0.507182E+02  0.671E-01    8.15       0.0  T
   2    -50.7184541 -0.257925E-03  0.505E-01    8.14       1.0  T
   3    -50.7186432 -0.189183E-03  0.888E-02    8.09       1.0  T
   4    -50.7186771 -0.338511E-04  0.235E-02    8.14       1.0  T
   5    -50.7186780 -0.955730E-06  0.111E-02    8.14       1.8  T
   6    -50.7186781 -0.735217E-07  0.482E-03    8.14       4.1  T
   7    -50.7186782 -0.589774E-07  0.115E-03    8.14      17.1  T
speedup  1.15
cpu  time for SCC    0.01 s
wall time for SCC    0.01 s
speedup  1.03
cpu  time for grad    0.01 s
wall time for grad    0.01 s
 E :    -50.41765730  G :  0.069486    pred/act E change: -0.686D-02 -0.935D-03
Maxdispl :   0.1599   ||displ|| :   0.3673   Lambda : -0.775D-02
Largest |displ|/coords:  0.1599 (  10)  0.1524 (   9)  0.1395 (   1)
................................................................................
.............................. CYCLE   11 ......................................
................................................................................
   1    -50.7092894 -0.507093E+02  0.469E-01    7.96       0.0  T
   2    -50.7093778 -0.883387E-04  0.355E-01    7.98       1.0  T
   3    -50.7094474 -0.696457E-04  0.493E-02    8.02       1.0  T
   4    -50.7094593 -0.119158E-04  0.126E-02    8.00       1.6  T
   5    -50.7094596 -0.266332E-06  0.598E-03    8.00       3.3  T
   6    -50.7094596 -0.447425E-07  0.249E-03    8.00       7.9  T
speedup  1.13
cpu  time for SCC    0.01 s
wall time for SCC    0.01 s
speedup  1.01
cpu  time for grad    0.01 s
wall time for grad    0.01 s
 E :    -50.42038195  G :  0.040888    pred/act E change: -0.109D-01 -0.272D-02
Maxdispl :   0.2014   ||displ|| :   0.3535   Lambda : -0.349D-02
Largest |displ|/coords:  0.2014 (   5)  0.1608 (   1)  0.1368 (  15)
................................................................................
.............................. CYCLE   12 ......................................
................................................................................
   1    -50.7016352 -0.507016E+02  0.478E-01    7.90       0.0  T
   2    -50.7017082 -0.730014E-04  0.363E-01    7.93       1.0  T
   3    -50.7017632 -0.550657E-04  0.444E-02    7.99       1.0  T
   4    -50.7017738 -0.106157E-04  0.123E-02    7.97       1.6  T
   5    -50.7017741 -0.290629E-06  0.485E-03    7.97       4.0  T
   6    -50.7017742 -0.200771E-07  0.236E-03    7.97       8.3  T
speedup  1.13
cpu  time for SCC    0.01 s
wall time for SCC    0.01 s
speedup  1.02
cpu  time for grad    0.01 s
wall time for grad    0.01 s
 E :    -50.42079549  G :  0.049843    pred/act E change: -0.440D-02 -0.414D-03
Maxdispl :   0.1311   ||displ|| :   0.2566   Lambda : -0.408D-02
Largest |displ|/coords:  0.1311 (   6)  0.1128 (   5)  0.0755 (   7)
................................................................................
.............................. CYCLE   13 ......................................
................................................................................
   1    -50.7157422 -0.507157E+02  0.359E-01    8.04       0.0  T
   2    -50.7158331 -0.909527E-04  0.271E-01    8.02       1.0  T
   3    -50.7158835 -0.503990E-04  0.528E-02    7.99       1.0  T
   4    -50.7158983 -0.147463E-04  0.111E-02    8.01       1.8  T
   5    -50.7158986 -0.362889E-06  0.466E-03    8.01       4.2  T
   6    -50.7158986 -0.100537E-07  0.228E-03    8.01       8.6  T
speedup  0.94
cpu  time for SCC    0.01 s
wall time for SCC    0.01 s
speedup  0.90
cpu  time for grad    0.01 s
wall time for grad    0.01 s
 E :    -50.42238628  G :  0.031301    pred/act E change: -0.197D-02 -0.159D-02
Maxdispl :   0.0969   ||displ|| :   0.2356   Lambda : -0.195D-02
Largest |displ|/coords:  0.0969 (   9)  0.0714 (  10)  0.0701 (   1)
................................................................................
.............................. CYCLE   14 ......................................
................................................................................
   1    -50.7185311 -0.507185E+02  0.235E-01    8.06       0.0  T
   2    -50.7185816 -0.504872E-04  0.175E-01    8.05       1.0  T
   3    -50.7186052 -0.235611E-04  0.390E-02    8.04       1.0  T
   4    -50.7186129 -0.766486E-05  0.852E-03    8.05       2.3  T
   5    -50.7186130 -0.182098E-06  0.334E-03    8.05       5.9  T
   6    -50.7186131 -0.101455E-07  0.178E-03    8.05      11.0  T
speedup  1.13
cpu  time for SCC    0.01 s
wall time for SCC    0.01 s
speedup  1.03
cpu  time for grad    0.01 s
wall time for grad    0.01 s
 E :    -50.42313869  G :  0.026409    pred/act E change: -0.217D-02 -0.752D-03
Maxdispl :   0.1071   ||displ|| :   0.2347   Lambda : -0.168D-02
Largest |displ|/coords:  0.1071 (   8)  0.0711 (   9)  0.0589 (  10)
................................................................................
.............................. CYCLE   15 ......................................
................................................................................
   1    -50.7193672 -0.507194E+02  0.191E-01    8.03       0.0  T
   2    -50.7194226 -0.554318E-04  0.142E-01    8.01       1.0  T
   3    -50.7194464 -0.237950E-04  0.395E-02    7.96       1.0  T
   4    -50.7194533 -0.695570E-05  0.926E-03    7.97       2.1  T
   5    -50.7194535 -0.179701E-06  0.308E-03    7.97       6.4  T
   6    -50.7194535 -0.738748E-08  0.165E-03    7.97      11.9  T
speedup  0.82
cpu  time for SCC    0.00 s
wall time for SCC    0.01 s
speedup  0.96
cpu  time for grad    0.01 s
wall time for grad    0.01 s
 E :    -50.42443167  G :  0.023371    pred/act E change: -0.103D-02 -0.129D-02
Maxdispl :   0.2048   ||displ|| :   0.5192   Lambda : -0.334D-02
Largest |displ|/coords:  0.2048 (   8)  0.1648 (   5)  0.1363 (  15)
................................................................................
.............................. CYCLE   16 ......................................
................................................................................
   1    -50.7177195 -0.507177E+02  0.424E-01    7.81       0.0  T
   2    -50.7178883 -0.168729E-03  0.318E-01    7.76       1.0  T
   3    -50.7179808 -0.925025E-04  0.703E-02    7.63       1.0  T
   4    -50.7180058 -0.250047E-04  0.180E-02    7.66       1.1  T
   5    -50.7180065 -0.675424E-06  0.666E-03    7.65       2.9  T
   6    -50.7180065 -0.317396E-07  0.342E-03    7.65       5.7  T
   7    -50.7180065 -0.274836E-07  0.858E-04    7.66      22.9  T
speedup  0.98
cpu  time for SCC    0.01 s
wall time for SCC    0.01 s
speedup  0.96
cpu  time for grad    0.01 s
wall time for grad    0.01 s
 E :    -50.42603065  G :  0.029695    pred/act E change: -0.887D-03 -0.160D-02
Maxdispl :   0.0798   ||displ|| :   0.2573   Lambda : -0.187D-02
Largest |displ|/coords:  0.0798 (  25)  0.0776 (  10)  0.0772 (   1)
................................................................................
.............................. CYCLE   17 ......................................
................................................................................
   1    -50.7258800 -0.507259E+02  0.169E-01    7.60       0.0  T
   2    -50.7259000 -0.200715E-04  0.126E-01    7.59       1.0  T
   3    -50.7259145 -0.144912E-04  0.247E-02    7.56       1.0  T
   4    -50.7259169 -0.239229E-05  0.979E-03    7.56       2.0  T
   5    -50.7259171 -0.179446E-06  0.294E-03    7.56       6.7  T
   6    -50.7259171 -0.972223E-08  0.163E-03    7.56      12.0  T
speedup  1.13
cpu  time for SCC    0.01 s
wall time for SCC    0.01 s
speedup  1.03
cpu  time for grad    0.01 s
wall time for grad    0.01 s
 E :    -50.42653469  G :  0.029268    pred/act E change: -0.212D-02 -0.504D-03
Maxdispl :   0.0868   ||displ|| :   0.2122   Lambda : -0.148D-02
Largest |displ|/coords:  0.0868 (   1)  0.0707 (   8)  0.0686 (  25)
................................................................................
.............................. CYCLE   18 ......................................
................................................................................
   1    -50.7288765 -0.507289E+02  0.167E-01    7.60       0.0  T
   2    -50.7289094 -0.329564E-04  0.123E-01    7.59       1.0  T
   3    -50.7289274 -0.179919E-04  0.313E-02    7.55       1.0  T
   4    -50.7289312 -0.380116E-05  0.682E-03    7.56       2.9  T
   5    -50.7289313 -0.946375E-07  0.290E-03    7.56       6.8  T
   6    -50.7289313 -0.755558E-08  0.147E-03    7.56      13.3  T
speedup  0.94
cpu  time for SCC    0.01 s
wall time for SCC    0.01 s
speedup  1.03
cpu  time for grad    0.01 s
wall time for grad    0.01 s
 E :    -50.42721505  G :  0.015458    pred/act E change: -0.998D-03 -0.680D-03
Maxdispl :   0.0871   ||displ|| :   0.1545   Lambda : -0.581D-03
Largest |displ|/coords:  0.0871 (  15)  0.0515 (  11)  0.0487 (   8)
................................................................................
.............................. CYCLE   19 ......................................
................................................................................
   1    -50.7292337 -0.507292E+02  0.123E-01    7.59       0.0  T
   2    -50.7292414 -0.771823E-05  0.921E-02    7.58       1.0  T
   3    -50.7292464 -0.496200E-05  0.160E-02    7.56       1.2  T
   4    -50.7292475 -0.113127E-05  0.440E-03    7.56       4.5  T
   5    -50.7292476 -0.371659E-07  0.174E-03    7.56      11.3  T
   6    -50.7292476 -0.327935E-08  0.933E-04    7.56      21.0  T
speedup  0.94
cpu  time for SCC    0.00 s
wall time for SCC    0.01 s
speedup  0.95
cpu  time for grad    0.01 s
wall time for grad    0.01 s
 E :    -50.42754367  G :  0.010743    pred/act E change: -0.771D-03 -0.329D-03
Maxdispl :   0.1064   ||displ|| :   0.2370   Lambda : -0.482D-03
Largest |displ|/coords:  0.1064 (   8)  0.0827 (  11)  0.0816 (   6)
................................................................................
.............................. CYCLE   20 ......................................
................................................................................
   1    -50.7301060 -0.507301E+02  0.180E-01    7.59       0.0  T
   2    -50.7301157 -0.975351E-05  0.137E-01    7.57       1.0  T
   3    -50.7301230 -0.727632E-05  0.178E-02    7.53       1.1  T
   4    -50.7301245 -0.153993E-05  0.582E-03    7.54       3.4  T
   5    -50.7301246 -0.362529E-07  0.214E-03    7.54       9.2  T
   6    -50.7301246 -0.561640E-08  0.104E-03    7.54      18.9  T
speedup  1.09
cpu  time for SCC    0.01 s
wall time for SCC    0.01 s
speedup  1.02
cpu  time for grad    0.01 s
wall time for grad    0.01 s
 E :    -50.42779915  G :  0.015368    pred/act E change: -0.297D-03 -0.255D-03
Maxdispl :   0.1029   ||displ|| :   0.2632   Lambda : -0.586D-03
Largest |displ|/coords:  0.1029 (   8)  0.0906 (  11)  0.0864 (  10)
................................................................................
.............................. CYCLE   21 ......................................
................................................................................
   1    -50.7286388 -0.507286E+02  0.194E-01    7.56       0.0  T
   2    -50.7286446 -0.575426E-05  0.146E-01    7.56       1.0  T
   3    -50.7286512 -0.661325E-05  0.164E-02    7.54       1.2  T
   4    -50.7286516 -0.424050E-06  0.623E-03    7.54       3.1  T
   5    -50.7286517 -0.431914E-07  0.179E-03    7.54      11.0  T
   6    -50.7286517 -0.431437E-08  0.113E-03    7.54      17.3  T
speedup  1.11
cpu  time for SCC    0.01 s
wall time for SCC    0.01 s
speedup  1.03
cpu  time for grad    0.01 s
wall time for grad    0.01 s
 E :    -50.42812155  G :  0.019513    pred/act E change: -0.254D-03 -0.322D-03
Maxdispl :   0.1167   ||displ|| :   0.2738   Lambda : -0.811D-03
Largest |displ|/coords:  0.1167 (   1)  0.1023 (  12)  0.0741 (   8)
................................................................................
.............................. CYCLE   22 ......................................
................................................................................
   1    -50.7341167 -0.507341E+02  0.173E-01    7.58       0.0  T
   2    -50.7341267 -0.100062E-04  0.129E-01    7.57       1.0  T
   3    -50.7341336 -0.691316E-05  0.193E-02    7.56       1.0  T
   4    -50.7341349 -0.132715E-05  0.695E-03    7.57       2.8  T
   5    -50.7341350 -0.636310E-07  0.222E-03    7.57       8.8  T
   6    -50.7341350 -0.509378E-08  0.126E-03    7.56      15.5  T
speedup  1.13
cpu  time for SCC    0.01 s
wall time for SCC    0.01 s
speedup  1.03
cpu  time for grad    0.01 s
wall time for grad    0.01 s
 E :    -50.42846596  G :  0.019109    pred/act E change: -0.313D-03 -0.344D-03
Maxdispl :   0.0920   ||displ|| :   0.2266   Lambda : -0.714D-03
Largest |displ|/coords:  0.0920 (   8)  0.0803 (   2)  0.0664 (   7)
................................................................................
.............................. CYCLE   23 ......................................
................................................................................
   1    -50.7318186 -0.507318E+02  0.170E-01    7.57       0.0  T
   2    -50.7318250 -0.636135E-05  0.129E-01    7.57       1.0  T
   3    -50.7318304 -0.547353E-05  0.132E-02    7.58       1.5  T
   4    -50.7318313 -0.820771E-06  0.477E-03    7.58       4.1  T
   5    -50.7318313 -0.219855E-07  0.181E-03    7.58      10.8  T
   6    -50.7318313 -0.324965E-08  0.879E-04    7.58      22.3  T
speedup  0.93
cpu  time for SCC    0.00 s
wall time for SCC    0.01 s
speedup  1.00
cpu  time for grad    0.01 s
wall time for grad    0.01 s
 E :    -50.42892529  G :  0.013276    pred/act E change: -0.436D-03 -0.459D-03
Maxdispl :   0.1738   ||displ|| :   0.4165   Lambda : -0.859D-03
Largest |displ|/coords:  0.1738 (   8)  0.1671 (  10)  0.1523 (  11)
................................................................................
.............................. CYCLE   24 ......................................
................................................................................
   1    -50.7260775 -0.507261E+02  0.323E-01    7.46       0.0  T
   2    -50.7260958 -0.183098E-04  0.245E-01    7.46       1.0  T
   3    -50.7261153 -0.194623E-04  0.231E-02    7.45       1.0  T
   4    -50.7261171 -0.182111E-05  0.945E-03    7.45       2.1  T
   5    -50.7261172 -0.111301E-06  0.369E-03    7.45       5.3  T
   6    -50.7261173 -0.170157E-07  0.183E-03    7.45      10.7  T
   7    -50.7261173 -0.857719E-08  0.423E-04    7.45      46.3  T
speedup  0.98
cpu  time for SCC    0.01 s
wall time for SCC    0.01 s
speedup  1.04
cpu  time for grad    0.01 s
wall time for grad    0.01 s
 E :    -50.42926009  G :  0.028565    pred/act E change: -0.376D-03 -0.335D-03
Maxdispl :   0.0874   ||displ|| :   0.2143   Lambda : -0.106D-02
Largest |displ|/coords:  0.0874 (   1)  0.0824 (   6)  0.0762 (   2)
................................................................................
.............................. CYCLE   25 ......................................
................................................................................
   1    -50.7309272 -0.507309E+02  0.126E-01    7.43       0.0  T
   2    -50.7309515 -0.243113E-04  0.915E-02    7.45       1.0  T
   3    -50.7309684 -0.168834E-04  0.275E-02    7.49       1.0  T
   4    -50.7309704 -0.200359E-05  0.833E-03    7.49       2.4  T
   5    -50.7309706 -0.145212E-06  0.311E-03    7.49       6.3  T
   6    -50.7309706 -0.134363E-07  0.153E-03    7.49      12.8  T
speedup  0.93
cpu  time for SCC    0.00 s
wall time for SCC    0.01 s
speedup  1.02
cpu  time for grad    0.01 s
wall time for grad    0.01 s
 E :    -50.42940262  G :  0.032292    pred/act E change: -0.504D-03 -0.143D-03
Maxdispl :   0.0974   ||displ|| :   0.2094   Lambda : -0.154D-02
Largest |displ|/coords:  0.0974 (  30)  0.0716 (  12)  0.0591 (   2)

generating ANC from model Hessian ...
 Shifting diagonal of input Hessian by   5.500909333924285E-003
 Lowest  eigenvalues of input Hessian
    0.005000    0.005277    0.005399   -0.000000   -0.000000   -0.000000
    0.000000    0.000000    0.000000    0.005789    0.006001    0.006174
    0.006221    0.006399    0.006688    0.007421    0.008536    0.009018
 Highest eigenvalues
    1.402346    1.404224    1.451133    2.523213    3.274444    3.831201
 
cpu  time for ANC gen    0.01 s
wall time for ANC gen    0.01 s
................................................................................
.............................. CYCLE   26 ......................................
................................................................................
   1    -50.7295545 -0.507296E+02  0.232E-01    7.59       0.0  T
   2    -50.7295750 -0.204563E-04  0.175E-01    7.60       1.0  T
   3    -50.7295885 -0.134896E-04  0.263E-02    7.63       1.0  T
   4    -50.7295915 -0.307409E-05  0.621E-03    7.62       3.2  T
   5    -50.7295916 -0.564331E-07  0.282E-03    7.62       6.9  T
   6    -50.7295916 -0.568302E-08  0.133E-03    7.62      14.7  T
   7    -50.7295916 -0.391242E-08  0.280E-04    7.62      70.0  T
   8    -50.7295916 -0.167830E-09  0.936E-05    7.62     209.6  T
speedup  1.00
cpu  time for SCC    0.01 s
wall time for SCC    0.01 s
speedup  1.01
cpu  time for grad    0.01 s
wall time for grad    0.01 s
 E :    -50.43000217  G :  0.021099    pred/act E change:  0.000D+00 -0.600D-03
Maxdispl :   0.1871   ||displ|| :   0.3257   Lambda : -0.186D-02
Largest |displ|/coords:  0.1871 (  14)  0.1241 (   1)  0.1104 (  16)
................................................................................
.............................. CYCLE   27 ......................................
................................................................................
   1    -50.7277417 -0.507277E+02  0.431E-01    7.72       0.0  T
   2    -50.7277634 -0.216893E-04  0.328E-01    7.72       1.0  T
   3    -50.7277888 -0.254196E-04  0.212E-02    7.74       1.0  T
   4    -50.7277900 -0.120064E-05  0.759E-03    7.74       2.6  T
   5    -50.7277900 -0.303121E-07  0.351E-03    7.74       5.6  T
   6    -50.7277900 -0.105002E-07  0.110E-03    7.74      17.8  T
speedup  0.94
cpu  time for SCC    0.00 s
wall time for SCC    0.01 s
speedup  1.02
cpu  time for grad    0.01 s
wall time for grad    0.01 s
 E :    -50.43111299  G :  0.023881    pred/act E change:  0.000D+00 -0.111D-02
Maxdispl :   0.2303   ||displ|| :   0.3980   Lambda : -0.196D-02
Largest |displ|/coords:  0.2303 (   1)  0.1846 (  14)  0.1101 (  16)
................................................................................
.............................. CYCLE   28 ......................................
................................................................................
   1    -50.7263992 -0.507264E+02  0.353E-01    7.74       0.0  T
   2    -50.7264314 -0.321637E-04  0.266E-01    7.73       1.0  T
   3    -50.7264620 -0.306106E-04  0.346E-02    7.73       1.0  T
   4    -50.7264656 -0.363417E-05  0.115E-02    7.73       1.7  T
   5    -50.7264658 -0.171747E-06  0.456E-03    7.73       4.3  T
   6    -50.7264658 -0.218482E-07  0.216E-03    7.73       9.1  T
speedup  0.94
cpu  time for SCC    0.01 s
wall time for SCC    0.01 s
speedup  1.02
cpu  time for grad    0.01 s
wall time for grad    0.01 s
 E :    -50.43115551  G :  0.032106    pred/act E change: -0.103D-02 -0.425D-04
Maxdispl :   0.0805   ||displ|| :   0.1993   Lambda : -0.212D-02
Largest |displ|/coords:  0.0805 (  11)  0.0799 (   1)  0.0678 (  17)
................................................................................
.............................. CYCLE   29 ......................................
................................................................................
   1    -50.7304761 -0.507305E+02  0.208E-01    7.77       0.0  T
   2    -50.7304929 -0.168186E-04  0.157E-01    7.77       1.0  T
   3    -50.7305054 -0.124683E-04  0.231E-02    7.78       1.0  T
   4    -50.7305078 -0.239168E-05  0.633E-03    7.78       3.1  T
   5    -50.7305078 -0.638638E-07  0.266E-03    7.78       7.4  T
   6    -50.7305078 -0.432334E-08  0.128E-03    7.78      15.3  T
speedup  0.94
cpu  time for SCC    0.00 s
wall time for SCC    0.01 s
speedup  0.94
cpu  time for grad    0.01 s
wall time for grad    0.01 s
 E :    -50.43236488  G :  0.014200    pred/act E change: -0.113D-02 -0.121D-02
Maxdispl :   0.2614   ||displ|| :   0.3668   Lambda : -0.101D-02
Largest |displ|/coords:  0.2614 (   1)  0.1679 (  14)  0.0672 (  20)
................................................................................
.............................. CYCLE   30 ......................................
................................................................................
   1    -50.7273651 -0.507274E+02  0.283E-01    7.81       0.0  T
   2    -50.7273922 -0.270424E-04  0.212E-01    7.81       1.0  T
   3    -50.7274088 -0.165933E-04  0.310E-02    7.83       1.0  T
   4    -50.7274128 -0.405381E-05  0.699E-03    7.83       2.8  T
   5    -50.7274129 -0.684264E-07  0.303E-03    7.83       6.5  T
   6    -50.7274129 -0.707874E-08  0.150E-03    7.83      13.1  T
   7    -50.7274129 -0.390745E-08  0.394E-04    7.83      49.8  T
speedup  0.98
cpu  time for SCC    0.01 s
wall time for SCC    0.01 s
speedup  0.96
cpu  time for grad    0.01 s
wall time for grad    0.01 s
 E :    -50.43289404  G :  0.027983    pred/act E change: -0.110D-02 -0.529D-03
Maxdispl :   0.2904   ||displ|| :   0.4008   Lambda : -0.145D-02
Largest |displ|/coords:  0.2904 (   1)  0.1637 (  13)  0.0886 (  18)
................................................................................
.............................. CYCLE   31 ......................................
................................................................................
   1    -50.7303454 -0.507303E+02  0.198E-01    7.79       0.0  T
   2    -50.7303584 -0.129726E-04  0.146E-01    7.79       1.0  T
   3    -50.7303719 -0.134544E-04  0.248E-02    7.80       1.0  T
   4    -50.7303730 -0.117062E-05  0.688E-03    7.80       2.8  T
   5    -50.7303731 -0.872428E-07  0.303E-03    7.80       6.5  T
   6    -50.7303731 -0.129799E-07  0.165E-03    7.80      11.9  T
speedup  1.13
cpu  time for SCC    0.01 s
wall time for SCC    0.01 s
speedup  1.02
cpu  time for grad    0.01 s
wall time for grad    0.01 s
 E :    -50.43369503  G :  0.012548    pred/act E change: -0.572D-03 -0.801D-03
Maxdispl :   0.3770   ||displ|| :   0.5056   Lambda : -0.156D-02
Largest |displ|/coords:  0.3770 (   1)  0.1729 (  14)  0.0972 (   3)
................................................................................
.............................. CYCLE   32 ......................................
................................................................................
   1    -50.7287433 -0.507287E+02  0.315E-01    7.73       0.0  T
   2    -50.7287609 -0.176275E-04  0.234E-01    7.73       1.0  T
   3    -50.7287747 -0.137926E-04  0.308E-02    7.72       1.0  T
   4    -50.7287769 -0.219537E-05  0.783E-03    7.73       2.5  T
   5    -50.7287770 -0.998874E-07  0.355E-03    7.73       5.5  T
   6    -50.7287770 -0.213649E-07  0.197E-03    7.73       9.9  T
   7    -50.7287770 -0.729620E-08  0.536E-04    7.73      36.6  T
speedup  0.97
cpu  time for SCC    0.01 s
wall time for SCC    0.01 s
speedup  1.03
cpu  time for grad    0.01 s
wall time for grad    0.01 s
 E :    -50.43467915  G :  0.014035    pred/act E change: -0.842D-03 -0.984D-03
Maxdispl :   0.3498   ||displ|| :   0.5075   Lambda : -0.118D-02
Largest |displ|/coords:  0.3498 (   1)  0.2338 (  14)  0.1209 (   7)
................................................................................
.............................. CYCLE   33 ......................................
................................................................................
   1    -50.7244865 -0.507245E+02  0.295E-01    7.70       0.0  T
   2    -50.7245149 -0.284080E-04  0.221E-01    7.70       1.0  T
   3    -50.7245349 -0.200101E-04  0.370E-02    7.71       1.0  T
   4    -50.7245387 -0.382502E-05  0.119E-02    7.71       1.7  T
   5    -50.7245390 -0.219103E-06  0.386E-03    7.71       5.1  T
   6    -50.7245390 -0.194546E-07  0.228E-03    7.71       8.6  T
   7    -50.7245390 -0.988008E-08  0.742E-04    7.71      26.4  T
speedup  0.98
cpu  time for SCC    0.01 s
wall time for SCC    0.01 s
speedup  0.89
cpu  time for grad    0.01 s
wall time for grad    0.01 s
 E :    -50.43530753  G :  0.024509    pred/act E change: -0.979D-03 -0.628D-03
Maxdispl :   0.1705   ||displ|| :   0.3049   Lambda : -0.111D-02
Largest |displ|/coords:  0.1705 (   1)  0.1324 (   7)  0.0853 (   2)
................................................................................
.............................. CYCLE   34 ......................................
................................................................................
   1    -50.7319350 -0.507319E+02  0.134E-01    7.77       0.0  T
   2    -50.7319481 -0.130718E-04  0.986E-02    7.77       1.0  T
   3    -50.7319548 -0.670490E-05  0.232E-02    7.77       1.0  T
   4    -50.7319563 -0.149376E-05  0.646E-03    7.77       3.0  T
   5    -50.7319564 -0.905423E-07  0.224E-03    7.77       8.7  T
   6    -50.7319564 -0.558236E-08  0.115E-03    7.77      17.0  T
speedup  0.96
cpu  time for SCC    0.00 s
wall time for SCC    0.01 s
speedup  0.94
cpu  time for grad    0.01 s
wall time for grad    0.01 s
 E :    -50.43596801  G :  0.016210    pred/act E change: -0.745D-03 -0.660D-03
Maxdispl :   0.3716   ||displ|| :   0.5507   Lambda : -0.127D-02
Largest |displ|/coords:  0.3716 (   1)  0.1708 (   4)  0.1665 (  13)
................................................................................
.............................. CYCLE   35 ......................................
................................................................................
   1    -50.7290837 -0.507291E+02  0.228E-01    7.76       0.0  T
   2    -50.7291056 -0.219387E-04  0.168E-01    7.78       1.0  T
   3    -50.7291183 -0.127264E-04  0.302E-02    7.82       1.0  T
   4    -50.7291213 -0.298230E-05  0.909E-03    7.81       2.2  T
   5    -50.7291215 -0.143499E-06  0.326E-03    7.81       6.0  T
   6    -50.7291215 -0.166619E-07  0.188E-03    7.81      10.4  T
   7    -50.7291215 -0.716560E-08  0.713E-04    7.81      27.5  T
speedup  0.97
cpu  time for SCC    0.01 s
wall time for SCC    0.01 s
speedup  0.95
cpu  time for grad    0.01 s
wall time for grad    0.01 s
 E :    -50.43670868  G :  0.013251    pred/act E change: -0.605D-03 -0.741D-03
Maxdispl :   0.3727   ||displ|| :   0.5408   Lambda : -0.115D-02
Largest |displ|/coords:  0.3727 (   1)  0.1796 (   4)  0.1231 (   9)
................................................................................
.............................. CYCLE   36 ......................................
................................................................................
   1    -50.7308549 -0.507309E+02  0.218E-01    7.87       0.0  T
   2    -50.7308747 -0.198341E-04  0.161E-01    7.87       1.0  T
   3    -50.7308869 -0.122050E-04  0.293E-02    7.87       1.0  T
   4    -50.7308896 -0.268702E-05  0.949E-03    7.88       2.1  T
   5    -50.7308898 -0.147146E-06  0.325E-03    7.88       6.0  T
   6    -50.7308898 -0.180675E-07  0.185E-03    7.88      10.6  T
   7    -50.7308898 -0.736784E-08  0.763E-04    7.88      25.7  T
speedup  0.92
cpu  time for SCC    0.01 s
wall time for SCC    0.01 s
speedup  1.00
cpu  time for grad    0.01 s
wall time for grad    0.01 s
 E :    -50.43736071  G :  0.015022    pred/act E change: -0.828D-03 -0.652D-03
Maxdispl :   0.4076   ||displ|| :   0.5725   Lambda : -0.940D-03
Largest |displ|/coords:  0.4076 (   1)  0.1901 (   7)  0.1346 (   5)
................................................................................
.............................. CYCLE   37 ......................................
................................................................................
   1    -50.7237363 -0.507237E+02  0.252E-01    7.81       0.0  T
   2    -50.7237567 -0.204038E-04  0.187E-01    7.83       1.0  T
   3    -50.7237730 -0.163458E-04  0.305E-02    7.87       1.0  T
   4    -50.7237757 -0.262655E-05  0.103E-02    7.86       1.9  T
   5    -50.7237758 -0.165092E-06  0.367E-03    7.86       5.3  T
   6    -50.7237758 -0.211050E-07  0.211E-03    7.86       9.3  T
   7    -50.7237759 -0.913685E-08  0.710E-04    7.86      27.6  T
speedup  0.97
cpu  time for SCC    0.01 s
wall time for SCC    0.01 s
speedup  1.01
cpu  time for grad    0.01 s
wall time for grad    0.01 s
 E :    -50.43787377  G :  0.021006    pred/act E change: -0.745D-03 -0.513D-03
Maxdispl :   0.1919   ||displ|| :   0.3905   Lambda : -0.140D-02
Largest |displ|/coords:  0.1919 (   1)  0.1646 (   2)  0.1125 (  28)
................................................................................
.............................. CYCLE   38 ......................................
................................................................................
   1    -50.7310638 -0.507311E+02  0.203E-01    8.03       0.0  T
   2    -50.7310835 -0.197092E-04  0.149E-01    8.05       1.0  T
   3    -50.7310971 -0.135144E-04  0.288E-02    8.10       1.0  T
   4    -50.7310991 -0.207961E-05  0.811E-03    8.09       2.4  T
   5    -50.7310992 -0.872908E-07  0.301E-03    8.09       6.5  T
   6    -50.7310992 -0.895137E-08  0.131E-03    8.09      15.0  T
speedup  1.09
cpu  time for SCC    0.01 s
wall time for SCC    0.01 s
speedup  1.00
cpu  time for grad    0.01 s
wall time for grad    0.01 s
 E :    -50.43818426  G :  0.024974    pred/act E change: -0.624D-03 -0.310D-03
Maxdispl :   0.2765   ||displ|| :   0.3669   Lambda : -0.167D-02
Largest |displ|/coords:  0.2765 (   1)  0.1011 (   4)  0.0820 (   9)
................................................................................
.............................. CYCLE   39 ......................................
................................................................................
   1    -50.7351286 -0.507351E+02  0.190E-01    8.07       0.0  T
   2    -50.7351393 -0.107150E-04  0.142E-01    8.06       1.0  T
   3    -50.7351519 -0.125868E-04  0.195E-02    8.06       1.0  T
   4    -50.7351526 -0.723592E-06  0.690E-03    8.07       2.8  T
   5    -50.7351527 -0.616982E-07  0.251E-03    8.07       7.8  T
   6    -50.7351527 -0.963708E-08  0.980E-04    8.07      20.0  T
speedup  1.13
cpu  time for SCC    0.01 s
wall time for SCC    0.01 s
speedup  1.02
cpu  time for grad    0.01 s
wall time for grad    0.01 s
 E :    -50.43876696  G :  0.021131    pred/act E change: -0.805D-03 -0.583D-03
Maxdispl :   0.3291   ||displ|| :   0.3920   Lambda : -0.138D-02
Largest |displ|/coords:  0.3291 (   1)  0.0937 (   7)  0.0624 (  10)
................................................................................
.............................. CYCLE   40 ......................................
................................................................................
   1    -50.7274385 -0.507274E+02  0.160E-01    7.92       0.0  T
   2    -50.7274465 -0.804716E-05  0.120E-01    7.92       1.0  T
   3    -50.7274537 -0.719048E-05  0.165E-02    7.92       1.2  T
   4    -50.7274546 -0.884291E-06  0.599E-03    7.92       3.3  T
   5    -50.7274546 -0.388943E-07  0.211E-03    7.92       9.3  T
speedup  0.89
cpu  time for SCC    0.00 s
wall time for SCC    0.00 s
speedup  0.99
cpu  time for grad    0.01 s
wall time for grad    0.01 s
 E :    -50.43933898  G :  0.018564    pred/act E change: -0.949D-03 -0.572D-03
Maxdispl :   0.1845   ||displ|| :   0.2823   Lambda : -0.908D-03
Largest |displ|/coords:  0.1845 (   1)  0.0936 (   9)  0.0837 (   3)
................................................................................
.............................. CYCLE   41 ......................................
................................................................................
   1    -50.7289315 -0.507289E+02  0.156E-01    8.04       0.0  T
   2    -50.7289373 -0.578339E-05  0.116E-01    8.05       1.0  T
   3    -50.7289429 -0.554675E-05  0.151E-02    8.06       1.3  T
   4    -50.7289433 -0.457452E-06  0.555E-03    8.05       3.5  T
   5    -50.7289434 -0.320871E-07  0.181E-03    8.05      10.9  T
   6    -50.7289434 -0.447930E-08  0.874E-04    8.05      22.4  T
speedup  0.94
cpu  time for SCC    0.00 s
wall time for SCC    0.01 s
speedup  1.01
cpu  time for grad    0.01 s
wall time for grad    0.01 s
 E :    -50.43980208  G :  0.012259    pred/act E change: -0.794D-03 -0.463D-03
Maxdispl :   0.2475   ||displ|| :   0.3795   Lambda : -0.883D-03
Largest |displ|/coords:  0.2475 (   1)  0.1196 (  12)  0.0987 (   9)
................................................................................
.............................. CYCLE   42 ......................................
................................................................................
   1    -50.7286105 -0.507286E+02  0.223E-01    8.06       0.0  T
   2    -50.7286285 -0.179740E-04  0.165E-01    8.07       1.0  T
   3    -50.7286410 -0.125003E-04  0.247E-02    8.08       1.0  T
   4    -50.7286431 -0.214986E-05  0.698E-03    8.07       2.8  T
   5    -50.7286432 -0.577141E-07  0.308E-03    8.07       6.4  T
   6    -50.7286432 -0.126791E-07  0.118E-03    8.07      16.7  T
   7    -50.7286432 -0.305459E-08  0.388E-04    8.07      50.6  T
speedup  0.98
cpu  time for SCC    0.01 s
wall time for SCC    0.01 s
speedup  1.02
cpu  time for grad    0.01 s
wall time for grad    0.01 s
 E :    -50.44021620  G :  0.014593    pred/act E change: -0.490D-03 -0.414D-03
Maxdispl :   0.1697   ||displ|| :   0.3290   Lambda : -0.890D-03
Largest |displ|/coords:  0.1697 (   9)  0.1448 (   1)  0.0916 (  20)
................................................................................
.............................. CYCLE   43 ......................................
................................................................................
   1    -50.7304111 -0.507304E+02  0.214E-01    8.07       0.0  T
   2    -50.7304307 -0.196252E-04  0.160E-01    8.06       1.0  T
   3    -50.7304439 -0.132067E-04  0.252E-02    8.05       1.0  T
   4    -50.7304467 -0.273194E-05  0.712E-03    8.05       2.8  T
   5    -50.7304467 -0.523736E-07  0.294E-03    8.05       6.7  T
   6    -50.7304467 -0.922938E-08  0.146E-03    8.05      13.4  T
speedup  0.93
cpu  time for SCC    0.01 s
wall time for SCC    0.01 s
speedup  0.99
cpu  time for grad    0.01 s
wall time for grad    0.01 s
 E :    -50.44036820  G :  0.023795    pred/act E change: -0.505D-03 -0.152D-03
Maxdispl :   0.2145   ||displ|| :   0.3007   Lambda : -0.948D-03
Largest |displ|/coords:  0.2145 (   1)  0.0850 (   3)  0.0824 (   4)
................................................................................
.............................. CYCLE   44 ......................................
................................................................................
   1    -50.7308323 -0.507308E+02  0.123E-01    8.00       0.0  T
   2    -50.7308405 -0.814718E-05  0.926E-02    7.99       1.0  T
   3    -50.7308465 -0.599463E-05  0.169E-02    7.99       1.2  T
   4    -50.7308475 -0.105558E-05  0.616E-03    7.99       3.2  T
   5    -50.7308476 -0.768144E-07  0.213E-03    7.99       9.2  T
   6    -50.7308476 -0.461605E-08  0.109E-03    7.99      18.0  T
speedup  0.94
cpu  time for SCC    0.00 s
wall time for SCC    0.01 s
speedup  1.01
cpu  time for grad    0.01 s
wall time for grad    0.01 s
 E :    -50.44079602  G :  0.012477    pred/act E change: -0.493D-03 -0.428D-03
Maxdispl :   0.1600   ||displ|| :   0.2654   Lambda : -0.453D-03
Largest |displ|/coords:  0.1600 (   1)  0.0958 (   6)  0.0836 (   7)
................................................................................
.............................. CYCLE   45 ......................................
................................................................................
   1    -50.7263890 -0.507264E+02  0.134E-01    8.04       0.0  T
   2    -50.7263933 -0.436027E-05  0.998E-02    8.04       1.0  T
   3    -50.7263972 -0.386932E-05  0.117E-02    8.03       1.7  T
   4    -50.7263976 -0.381347E-06  0.428E-03    8.03       4.6  T
   5    -50.7263976 -0.240949E-07  0.154E-03    8.03      12.8  T
   6    -50.7263976 -0.328436E-08  0.769E-04    8.03      25.5  T
speedup  1.13
cpu  time for SCC    0.01 s
wall time for SCC    0.01 s
speedup  0.92
cpu  time for grad    0.01 s
wall time for grad    0.01 s
 E :    -50.44087065  G :  0.014953    pred/act E change: -0.517D-03 -0.746D-04
Maxdispl :   0.0774   ||displ|| :   0.1415   Lambda : -0.423D-03
Largest |displ|/coords:  0.0774 (   9)  0.0498 (   3)  0.0442 (   5)
................................................................................
.............................. CYCLE   46 ......................................
................................................................................
   1    -50.7319714 -0.507320E+02  0.916E-02    8.05       0.0  T
   2    -50.7319764 -0.506540E-05  0.680E-02    8.04       1.0  T
   3    -50.7319790 -0.261705E-05  0.129E-02    8.01       1.5  T
   4    -50.7319798 -0.748615E-06  0.335E-03    8.02       5.8  T
   5    -50.7319798 -0.164428E-07  0.129E-03    8.02      15.2  T
   6    -50.7319798 -0.150279E-08  0.615E-04    8.02      31.9  T
speedup  0.93
cpu  time for SCC    0.00 s
wall time for SCC    0.01 s
speedup  0.99
cpu  time for grad    0.01 s
wall time for grad    0.01 s
 E :    -50.44107349  G :  0.010169    pred/act E change: -0.243D-03 -0.203D-03
Maxdispl :   0.1643   ||displ|| :   0.3290   Lambda : -0.403D-03
Largest |displ|/coords:  0.1643 (   1)  0.1497 (   9)  0.0933 (   5)
................................................................................
.............................. CYCLE   47 ......................................
................................................................................
   1    -50.7298390 -0.507298E+02  0.150E-01    7.98       0.0  T
   2    -50.7298473 -0.825805E-05  0.112E-01    7.98       1.0  T
   3    -50.7298531 -0.586243E-05  0.169E-02    7.98       1.2  T
   4    -50.7298542 -0.102959E-05  0.597E-03    7.98       3.3  T
   5    -50.7298542 -0.546511E-07  0.205E-03    7.98       9.6  T
   6    -50.7298542 -0.464955E-08  0.107E-03    7.98      18.3  T
speedup  0.94
cpu  time for SCC    0.01 s
wall time for SCC    0.01 s
speedup  1.00
cpu  time for grad    0.01 s
wall time for grad    0.01 s
 E :    -50.44100680  G :  0.017525    pred/act E change: -0.216D-03  0.667D-04
Maxdispl :   0.0563   ||displ|| :   0.1189   Lambda : -0.552D-03
Largest |displ|/coords:  0.0563 (   6)  0.0473 (   5)  0.0352 (  19)
................................................................................
.............................. CYCLE   48 ......................................
................................................................................
   1    -50.7334185 -0.507334E+02  0.758E-02    8.02       0.0  T
   2    -50.7334217 -0.314100E-05  0.564E-02    8.00       1.0  T
   3    -50.7334235 -0.185078E-05  0.104E-02    7.98       1.9  T
   4    -50.7334240 -0.422786E-06  0.284E-03    7.99       6.9  T
   5    -50.7334240 -0.119326E-07  0.948E-04    7.99      20.7  T
speedup  1.09
cpu  time for SCC    0.00 s
wall time for SCC    0.00 s
speedup  1.07
cpu  time for grad    0.01 s
wall time for grad    0.01 s
 E :    -50.44126414  G :  0.007312    pred/act E change: -0.223D-03 -0.257D-03
Maxdispl :   0.0589   ||displ|| :   0.1260   Lambda : -0.245D-03
Largest |displ|/coords:  0.0589 (   9)  0.0580 (   7)  0.0418 (   3)
................................................................................
.............................. CYCLE   49 ......................................
................................................................................
   1    -50.7334860 -0.507335E+02  0.869E-02    8.03       0.0  T
   2    -50.7334882 -0.216406E-05  0.655E-02    8.02       1.0  T
   3    -50.7334901 -0.193383E-05  0.898E-03    8.00       2.2  T
   4    -50.7334903 -0.215999E-06  0.270E-03    8.00       7.3  T
   5    -50.7334904 -0.116109E-07  0.830E-04    8.00      23.6  T
speedup  1.11
cpu  time for SCC    0.00 s
wall time for SCC    0.00 s
speedup  0.98
cpu  time for grad    0.01 s
wall time for grad    0.01 s
 E :    -50.44129592  G :  0.010329    pred/act E change: -0.280D-03 -0.318D-04
Maxdispl :   0.1008   ||displ|| :   0.1767   Lambda : -0.202D-03
Largest |displ|/coords:  0.1008 (   1)  0.0778 (   9)  0.0489 (  13)
................................................................................
.............................. CYCLE   50 ......................................
................................................................................
   1    -50.7319824 -0.507320E+02  0.796E-02    7.91       0.0  T
   2    -50.7319842 -0.180899E-05  0.594E-02    7.91       1.0  T
   3    -50.7319859 -0.168862E-05  0.798E-03    7.91       2.5  T
   4    -50.7319861 -0.171635E-06  0.246E-03    7.91       8.0  T
   5    -50.7319861 -0.716308E-08  0.937E-04    7.91      20.9  T
speedup  0.87
cpu  time for SCC    0.00 s
wall time for SCC    0.00 s
speedup  0.98
cpu  time for grad    0.01 s
wall time for grad    0.01 s
 E :    -50.44138511  G :  0.007748    pred/act E change: -0.124D-03 -0.892D-04
Maxdispl :   0.0968   ||displ|| :   0.1789   Lambda : -0.260D-03
Largest |displ|/coords:  0.0968 (   9)  0.0565 (  13)  0.0556 (   1)
................................................................................
.............................. CYCLE   51 ......................................
................................................................................
   1    -50.7351620 -0.507352E+02  0.131E-01    8.04       0.0  T
   2    -50.7351700 -0.803891E-05  0.955E-02    8.04       1.0  T
   3    -50.7351749 -0.491353E-05  0.188E-02    8.02       1.0  T
   4    -50.7351758 -0.862241E-06  0.580E-03    8.02       3.4  T
   5    -50.7351758 -0.490081E-07  0.182E-03    8.02      10.8  T
   6    -50.7351758 -0.409265E-08  0.104E-03    8.02      18.9  T
speedup  0.88
cpu  time for SCC    0.00 s
wall time for SCC    0.01 s
speedup  0.97
cpu  time for grad    0.01 s
wall time for grad    0.01 s
 E :    -50.44132658  G :  0.014569    pred/act E change: -0.104D-03  0.585D-04
Maxdispl :   0.0543   ||displ|| :   0.1004   Lambda : -0.336D-03
Largest |displ|/coords:  0.0543 (  13)  0.0350 (   7)  0.0291 (  14)
................................................................................
.............................. CYCLE   52 ......................................
................................................................................
   1    -50.7344810 -0.507345E+02  0.769E-02    7.94       0.0  T
   2    -50.7344831 -0.208438E-05  0.566E-02    7.94       1.0  T
   3    -50.7344845 -0.145873E-05  0.101E-02    7.94       1.9  T
   4    -50.7344847 -0.197496E-06  0.311E-03    7.94       6.3  T
   5    -50.7344847 -0.114648E-07  0.842E-04    7.94      23.3  T
   6    -50.7344847 -0.103342E-08  0.458E-04    7.94      42.8  T
speedup  1.11
cpu  time for SCC    0.01 s
wall time for SCC    0.01 s
speedup  1.05
cpu  time for grad    0.01 s
wall time for grad    0.01 s
 E :    -50.44149035  G :  0.005764    pred/act E change: -0.134D-03 -0.164D-03
Maxdispl :   0.0689   ||displ|| :   0.1235   Lambda : -0.162D-03
Largest |displ|/coords:  0.0689 (   9)  0.0463 (   1)  0.0394 (   8)

generating ANC from model Hessian ...
 Shifting diagonal of input Hessian by   4.949344965220890E-003
 Lowest  eigenvalues of input Hessian
   -0.000000    0.000000    0.000000    0.000000    0.000000    0.000000
    0.005000    0.005099    0.005455    0.005514    0.005752    0.005850
    0.006224    0.006696    0.007188    0.008148    0.008904    0.009598
 Highest eigenvalues
    1.403127    1.403560    1.434112    2.577749    3.339619    3.810785
 
cpu  time for ANC gen    0.02 s
wall time for ANC gen    0.02 s
................................................................................
.............................. CYCLE   53 ......................................
................................................................................
   1    -50.7335166 -0.507335E+02  0.896E-02    7.90       0.0  T
   2    -50.7335191 -0.250428E-05  0.673E-02    7.90       1.0  T
   3    -50.7335209 -0.175226E-05  0.962E-03    7.89       2.0  T
   4    -50.7335212 -0.314916E-06  0.322E-03    7.89       6.1  T
   5    -50.7335212 -0.156637E-07  0.883E-04    7.89      22.2  T
   6    -50.7335212 -0.581977E-09  0.448E-04    7.89      43.7  T
speedup  0.91
cpu  time for SCC    0.00 s
wall time for SCC    0.01 s
speedup  0.94
cpu  time for grad    0.01 s
wall time for grad    0.01 s
 E :    -50.44149552  G :  0.009625    pred/act E change:  0.000D+00 -0.517D-05
Maxdispl :   0.0830   ||displ|| :   0.1318   Lambda : -0.258D-03
Largest |displ|/coords:  0.0830 (   4)  0.0504 (   8)  0.0491 (   5)
................................................................................
.............................. CYCLE   54 ......................................
................................................................................
   1    -50.7339496 -0.507339E+02  0.115E-01    7.91       0.0  T
   2    -50.7339513 -0.174277E-05  0.875E-02    7.91       1.0  T
   3    -50.7339538 -0.240450E-05  0.599E-03    7.91       3.3  T
   4    -50.7339538 -0.669581E-07  0.241E-03    7.91       8.2  T
   5    -50.7339538 -0.612813E-08  0.919E-04    7.91      21.3  T
speedup  0.89
cpu  time for SCC    0.00 s
wall time for SCC    0.00 s
speedup  0.98
cpu  time for grad    0.01 s
wall time for grad    0.01 s
 E :    -50.44163808  G :  0.003605    pred/act E change:  0.000D+00 -0.143D-03
Maxdispl :   0.1342   ||displ|| :   0.2247   Lambda : -0.256D-03
Largest |displ|/coords:  0.1342 (   1)  0.1024 (   5)  0.0770 (   3)
................................................................................
.............................. CYCLE   55 ......................................
................................................................................
   1    -50.7343632 -0.507344E+02  0.129E-01    7.88       0.0  T
   2    -50.7343670 -0.374819E-05  0.979E-02    7.88       1.0  T
   3    -50.7343707 -0.378207E-05  0.953E-03    7.88       2.1  T
   4    -50.7343711 -0.382834E-06  0.409E-03    7.88       4.8  T
   5    -50.7343712 -0.261079E-07  0.132E-03    7.88      14.9  T
   6    -50.7343712 -0.174156E-08  0.700E-04    7.88      28.0  T
   7    -50.7343712 -0.130481E-08  0.148E-04    7.88     132.6  T
speedup  0.98
cpu  time for SCC    0.01 s
wall time for SCC    0.01 s
speedup  1.03
cpu  time for grad    0.01 s
wall time for grad    0.01 s
 E :    -50.44173358  G :  0.006999    pred/act E change: -0.131D-03 -0.955D-04
Maxdispl :   0.0971   ||displ|| :   0.1700   Lambda : -0.159D-03
Largest |displ|/coords:  0.0971 (   1)  0.0933 (   4)  0.0688 (   5)
................................................................................
.............................. CYCLE   56 ......................................
................................................................................
   1    -50.7338792 -0.507339E+02  0.955E-02    7.87       0.0  T
   2    -50.7338802 -0.100279E-05  0.718E-02    7.87       1.0  T
   3    -50.7338812 -0.989284E-06  0.571E-03    7.87       3.4  T
   4    -50.7338813 -0.107760E-06  0.200E-03    7.87       9.8  T
   5    -50.7338813 -0.570817E-08  0.784E-04    7.87      25.0  T
speedup  0.85
cpu  time for SCC    0.00 s
wall time for SCC    0.00 s
speedup  0.96
cpu  time for grad    0.01 s
wall time for grad    0.01 s
 E :    -50.44187475  G :  0.005257    pred/act E change: -0.134D-03 -0.141D-03
Maxdispl :   0.4319   ||displ|| :   0.6923   Lambda : -0.520D-03
Largest |displ|/coords:  0.4319 (   1)  0.3666 (   4)  0.2590 (   5)
................................................................................
.............................. CYCLE   57 ......................................
................................................................................
   1    -50.7286365 -0.507286E+02  0.358E-01    7.77       0.0  T
   2    -50.7286505 -0.139299E-04  0.269E-01    7.78       1.0  T
   3    -50.7286658 -0.153625E-04  0.204E-02    7.80       1.0  T
   4    -50.7286670 -0.118369E-05  0.723E-03    7.79       2.7  T
   5    -50.7286671 -0.678478E-07  0.328E-03    7.79       6.0  T
   6    -50.7286671 -0.126565E-07  0.127E-03    7.79      15.5  T
   7    -50.7286671 -0.541606E-08  0.396E-04    7.79      49.5  T
speedup  0.95
cpu  time for SCC    0.01 s
wall time for SCC    0.01 s
speedup  0.99
cpu  time for grad    0.01 s
wall time for grad    0.01 s
 E :    -50.44215729  G :  0.016543    pred/act E change: -0.817D-04 -0.283D-03
Maxdispl :   0.1908   ||displ|| :   0.2841   Lambda : -0.435D-03
Largest |displ|/coords:  0.1908 (   1)  0.0926 (   3)  0.0844 (   5)
................................................................................
.............................. CYCLE   58 ......................................
................................................................................
   1    -50.7297268 -0.507297E+02  0.130E-01    7.80       0.0  T
   2    -50.7297304 -0.352137E-05  0.984E-02    7.80       1.0  T
   3    -50.7297339 -0.356110E-05  0.959E-03    7.80       2.0  T
   4    -50.7297343 -0.342161E-06  0.269E-03    7.80       7.3  T
   5    -50.7297343 -0.105099E-07  0.127E-03    7.80      15.5  T
speedup  1.14
cpu  time for SCC    0.00 s
wall time for SCC    0.00 s
speedup  0.99
cpu  time for grad    0.01 s
wall time for grad    0.01 s
 E :    -50.44247714  G :  0.013629    pred/act E change: -0.385D-03 -0.320D-03
Maxdispl :   0.3466   ||displ|| :   0.5211   Lambda : -0.762D-03
Largest |displ|/coords:  0.3466 (   1)  0.1633 (  10)  0.1595 (   4)
................................................................................
.............................. CYCLE   59 ......................................
................................................................................
   1    -50.7326714 -0.507327E+02  0.173E-01    7.89       0.0  T
   2    -50.7326773 -0.585230E-05  0.130E-01    7.89       1.0  T
   3    -50.7326819 -0.463478E-05  0.157E-02    7.90       1.2  T
   4    -50.7326827 -0.793626E-06  0.419E-03    7.90       4.7  T
   5    -50.7326828 -0.400370E-07  0.181E-03    7.90      10.8  T
   6    -50.7326828 -0.253008E-08  0.950E-04    7.90      20.6  T
speedup  0.94
cpu  time for SCC    0.00 s
wall time for SCC    0.01 s
speedup  0.99
cpu  time for grad    0.01 s
wall time for grad    0.01 s
 E :    -50.44311550  G :  0.010687    pred/act E change: -0.235D-03 -0.638D-03
Maxdispl :   0.5215   ||displ|| :   0.7755   Lambda : -0.101D-02
Largest |displ|/coords:  0.5215 (   1)  0.3307 (   4)  0.2067 (  10)
................................................................................
.............................. CYCLE   60 ......................................
................................................................................
   1    -50.7320081 -0.507320E+02  0.273E-01    7.94       0.0  T
   2    -50.7320269 -0.187733E-04  0.205E-01    7.95       1.0  T
   3    -50.7320404 -0.134788E-04  0.253E-02    7.97       1.0  T
   4    -50.7320431 -0.271806E-05  0.634E-03    7.97       3.1  T
   5    -50.7320432 -0.108610E-06  0.315E-03    7.97       6.2  T
   6    -50.7320432 -0.826175E-08  0.168E-03    7.97      11.7  T
   7    -50.7320432 -0.671280E-08  0.315E-04    7.97      62.2  T
speedup  0.95
cpu  time for SCC    0.01 s
wall time for SCC    0.01 s
speedup  0.99
cpu  time for grad    0.01 s
wall time for grad    0.01 s
 E :    -50.44372700  G :  0.013331    pred/act E change: -0.485D-03 -0.611D-03
Maxdispl :   0.2615   ||displ|| :   0.4377   Lambda : -0.128D-02
Largest |displ|/coords:  0.2615 (   6)  0.2108 (   5)  0.1214 (   8)
................................................................................
.............................. CYCLE   61 ......................................
................................................................................
   1    -50.7440547 -0.507441E+02  0.231E-01    8.30       0.0  T
   2    -50.7440720 -0.172946E-04  0.172E-01    8.29       1.0  T
   3    -50.7440837 -0.116524E-04  0.292E-02    8.25       1.0  T
   4    -50.7440858 -0.216001E-05  0.814E-03    8.26       2.4  T
   5    -50.7440859 -0.103543E-06  0.266E-03    8.26       7.4  T
   6    -50.7440859 -0.778518E-08  0.140E-03    8.26      14.0  T
speedup  0.93
cpu  time for SCC    0.00 s
wall time for SCC    0.01 s
speedup  0.98
cpu  time for grad    0.01 s
wall time for grad    0.01 s
 E :    -50.44352630  G :  0.026383    pred/act E change: -0.811D-03  0.201D-03
Maxdispl :   0.1561   ||displ|| :   0.3156   Lambda : -0.171D-02
Largest |displ|/coords:  0.1561 (   1)  0.1246 (  14)  0.0980 (   8)
................................................................................
.............................. CYCLE   62 ......................................
................................................................................
   1    -50.7328109 -0.507328E+02  0.243E-01    7.93       0.0  T
   2    -50.7328261 -0.152167E-04  0.182E-01    7.94       1.0  T
   3    -50.7328363 -0.101894E-04  0.233E-02    7.96       1.0  T
   4    -50.7328385 -0.218954E-05  0.721E-03    7.95       2.7  T
   5    -50.7328386 -0.107109E-06  0.267E-03    7.95       7.3  T
   6    -50.7328386 -0.616695E-08  0.145E-03    7.95      13.5  T
speedup  1.07
cpu  time for SCC    0.01 s
wall time for SCC    0.01 s
speedup  1.05
cpu  time for grad    0.01 s
wall time for grad    0.01 s
 E :    -50.44435204  G :  0.021103    pred/act E change: -0.765D-03 -0.826D-03
Maxdispl :   0.0776   ||displ|| :   0.1854   Lambda : -0.824D-03
Largest |displ|/coords:  0.0776 (   7)  0.0570 (  14)  0.0566 (   4)
................................................................................
.............................. CYCLE   63 ......................................
................................................................................
   1    -50.7307557 -0.507308E+02  0.170E-01    7.98       0.0  T
   2    -50.7307671 -0.114276E-04  0.130E-01    7.98       1.0  T
   3    -50.7307783 -0.111860E-04  0.171E-02    7.99       1.1  T
   4    -50.7307795 -0.117530E-05  0.548E-03    7.99       3.6  T
   5    -50.7307795 -0.454533E-07  0.225E-03    7.99       8.7  T
speedup  0.89
cpu  time for SCC    0.00 s
wall time for SCC    0.00 s
speedup  0.98
cpu  time for grad    0.01 s
wall time for grad    0.01 s
 E :    -50.44430927  G :  0.017144    pred/act E change: -0.940D-03  0.428D-04
Maxdispl :   0.1226   ||displ|| :   0.1833   Lambda : -0.722D-03
Largest |displ|/coords:  0.1226 (   1)  0.0556 (   6)  0.0459 (   4)
................................................................................
.............................. CYCLE   64 ......................................
................................................................................
   1    -50.7346207 -0.507346E+02  0.128E-01    7.99       0.0  T
   2    -50.7346263 -0.555974E-05  0.973E-02    7.99       1.0  T
   3    -50.7346317 -0.545285E-05  0.126E-02    7.98       1.6  T
   4    -50.7346323 -0.594052E-06  0.373E-03    7.99       5.3  T
   5    -50.7346323 -0.217474E-07  0.155E-03    7.99      12.6  T
   6    -50.7346323 -0.253101E-08  0.721E-04    7.99      27.2  T
speedup  0.91
cpu  time for SCC    0.01 s
wall time for SCC    0.01 s
speedup  0.98
cpu  time for grad    0.01 s
wall time for grad    0.01 s
 E :    -50.44469783  G :  0.008016    pred/act E change: -0.426D-03 -0.389D-03
Maxdispl :   0.0864   ||displ|| :   0.2249   Lambda : -0.465D-03
Largest |displ|/coords:  0.0864 (   6)  0.0745 (   5)  0.0710 (  10)
................................................................................
.............................. CYCLE   65 ......................................
................................................................................
[...]
   3    -50.7356318 -0.142215E-07  0.106E-03    8.21      18.4  T
   4    -50.7356318 -0.482306E-08  0.420E-04    8.21      46.7  T
   5    -50.7356318 -0.241322E-09  0.916E-05    8.21     214.2  T
speedup  0.87
cpu  time for SCC    0.00 s
wall time for SCC    0.00 s
speedup  0.98
cpu  time for grad    0.01 s
wall time for grad    0.01 s
 E :    -50.44635805  G :  0.000383    pred/act E change: -0.581D-06 -0.535D-06
Maxdispl :   0.0110   ||displ|| :   0.0199   Lambda : -0.568D-06
Largest |displ|/coords:  0.0110 (   1)  0.0091 (   4)  0.0079 (   5)
................................................................................
.............................. CYCLE  108 ......................................
................................................................................
   1    -50.7355645 -0.507356E+02  0.129E-02    8.21       0.0  T
   2    -50.7355646 -0.275357E-07  0.966E-03    8.21       2.0  T
   3    -50.7355646 -0.277160E-07  0.112E-03    8.21      17.5  T
   4    -50.7355646 -0.244052E-08  0.382E-04    8.21      51.3  T
   5    -50.7355646 -0.184933E-09  0.897E-05    8.21     218.7  T
speedup  0.89
cpu  time for SCC    0.00 s
wall time for SCC    0.00 s
speedup  1.01
cpu  time for grad    0.01 s
wall time for grad    0.01 s
 E :    -50.44635841  G :  0.000387    pred/act E change: -0.407D-06 -0.351D-06
Maxdispl :   0.0030   ||displ|| :   0.0076   Lambda : -0.316D-06
Largest |displ|/coords:  0.0030 (  14)  0.0029 (   2)  0.0028 (   6)
................................................................................
.............................. CYCLE  109 ......................................
................................................................................
   1    -50.7356142 -0.507356E+02  0.475E-03    8.21       0.0  T
   2    -50.7356142 -0.501034E-08  0.353E-03    8.21       5.6  T
   3    -50.7356142 -0.446769E-08  0.502E-04    8.21      39.1  T
   4    -50.7356142 -0.508777E-09  0.189E-04    8.21     103.7  T
speedup  1.05
cpu  time for SCC    0.00 s
wall time for SCC    0.00 s
speedup  0.98
cpu  time for grad    0.01 s
wall time for grad    0.01 s
 E :    -50.44635859  G :  0.000274    pred/act E change: -0.284D-06 -0.183D-06
Maxdispl :   0.0102   ||displ|| :   0.0153   Lambda : -0.243D-06
Largest |displ|/coords:  0.0102 (   1)  0.0070 (   2)  0.0048 (   5)
................................................................................
.............................. CYCLE  110 ......................................
................................................................................
   1    -50.7355865 -0.507356E+02  0.824E-03    8.21       0.0  T
   2    -50.7355865 -0.890309E-08  0.623E-03    8.21       3.1  T
   3    -50.7355865 -0.111670E-07  0.509E-04    8.21      38.5  T
   4    -50.7355865 -0.493465E-09  0.173E-04    8.21     113.1  T
speedup  0.79
cpu  time for SCC    0.00 s
wall time for SCC    0.00 s
speedup  0.99
cpu  time for grad    0.01 s
wall time for grad    0.01 s
 E :    -50.44635876  G :  0.000241    pred/act E change: -0.158D-06 -0.173D-06
Maxdispl :   0.0099   ||displ|| :   0.0143   Lambda : -0.290D-06
Largest |displ|/coords:  0.0099 (   1)  0.0055 (   2)  0.0045 (   7)
................................................................................
.............................. CYCLE  111 ......................................
................................................................................
   1    -50.7355848 -0.507356E+02  0.745E-03    8.21       0.0  T
   2    -50.7355848 -0.798800E-08  0.562E-03    8.21       3.5  T
   3    -50.7355849 -0.818464E-08  0.492E-04    8.21      39.8  T
   4    -50.7355849 -0.800867E-09  0.178E-04    8.21     110.4  T
speedup  0.79
cpu  time for SCC    0.00 s
wall time for SCC    0.00 s
speedup  0.99
cpu  time for grad    0.01 s
wall time for grad    0.01 s
 E :    -50.44635897  G :  0.000211    pred/act E change: -0.121D-06 -0.213D-06
Maxdispl :   0.0122   ||displ|| :   0.0170   Lambda : -0.235D-06
Largest |displ|/coords:  0.0122 (   1)  0.0061 (   5)  0.0060 (   2)
................................................................................
.............................. CYCLE  112 ......................................
................................................................................
   1    -50.7355693 -0.507356E+02  0.946E-03    8.21       0.0  T
   2    -50.7355693 -0.109686E-07  0.714E-03    8.21       2.7  T
   3    -50.7355693 -0.129855E-07  0.582E-04    8.21      33.7  T
   4    -50.7355693 -0.723219E-09  0.153E-04    8.21     127.8  T
speedup  1.05
cpu  time for SCC    0.00 s
wall time for SCC    0.00 s
speedup  0.99
cpu  time for grad    0.01 s
wall time for grad    0.01 s
 E :    -50.44635915  G :  0.000257    pred/act E change: -0.145D-06 -0.179D-06
Maxdispl :   0.0118   ||displ|| :   0.0167   Lambda : -0.234D-06
Largest |displ|/coords:  0.0118 (   1)  0.0056 (   5)  0.0051 (   2)

generating ANC from model Hessian ...
 Shifting diagonal of input Hessian by   4.873677418522224E-003
 Lowest  eigenvalues of input Hessian
   -0.000000   -0.000000   -0.000000    0.000000    0.000000    0.000000
    0.005000    0.005293    0.005635    0.005875    0.006160    0.006319
    0.006712    0.007062    0.008068    0.008442    0.008889    0.009051
 Highest eigenvalues
    1.391289    1.397835    1.429064    2.566270    3.343042    3.807204
 
cpu  time for ANC gen    0.02 s
wall time for ANC gen    0.02 s
................................................................................
.............................. CYCLE  113 ......................................
................................................................................
   1    -50.7355730 -0.507356E+02  0.101E-02    8.21       0.0  T
   2    -50.7355730 -0.112355E-07  0.762E-03    8.21       2.6  T
   3    -50.7355730 -0.139862E-07  0.653E-04    8.21      30.0  T
   4    -50.7355730 -0.569557E-09  0.155E-04    8.21     126.7  T
speedup  1.03
cpu  time for SCC    0.00 s
wall time for SCC    0.00 s
speedup  0.95
cpu  time for grad    0.01 s
wall time for grad    0.01 s
 E :    -50.44635934  G :  0.000301    pred/act E change:  0.000D+00 -0.185D-06
Maxdispl :   0.0012   ||displ|| :   0.0023   Lambda : -0.149D-06
Largest |displ|/coords:  0.0012 (   3)  0.0007 (  10)  0.0007 (  14)
................................................................................
.............................. CYCLE  114 ......................................
................................................................................
   1    -50.7356076 -0.507356E+02  0.222E-03    8.21       0.0  T
   2    -50.7356076 -0.127274E-08  0.166E-03    8.21      11.8  T
   3    -50.7356076 -0.872703E-09  0.248E-04    8.21      79.0  T
   4    -50.7356076 -0.165080E-09  0.647E-05    8.21     303.1  T
speedup  1.08
cpu  time for SCC    0.00 s
wall time for SCC    0.00 s
speedup  0.98
cpu  time for grad    0.01 s
wall time for grad    0.01 s
 E :    -50.44635946  G :  0.000176    pred/act E change:  0.000D+00 -0.121D-06
Maxdispl :   0.0022   ||displ|| :   0.0049   Lambda : -0.179D-06
Largest |displ|/coords:  0.0022 (   3)  0.0022 (  10)  0.0018 (   8)
................................................................................
.............................. CYCLE  115 ......................................
................................................................................
   1    -50.7356491 -0.507356E+02  0.417E-03    8.22       0.0  T
   2    -50.7356491 -0.394119E-08  0.308E-03    8.22       6.4  T
   3    -50.7356491 -0.261307E-08  0.474E-04    8.22      41.3  T
   4    -50.7356491 -0.448928E-09  0.151E-04    8.22     129.8  T
speedup  0.79
cpu  time for SCC    0.00 s
wall time for SCC    0.00 s
speedup  0.90
cpu  time for grad    0.01 s
wall time for grad    0.01 s
 E :    -50.44635956  G :  0.000113    pred/act E change: -0.747D-07 -0.102D-06
Maxdispl :   0.0012   ||displ|| :   0.0026   Lambda : -0.532D-07
Largest |displ|/coords:  0.0012 (   3)  0.0011 (   2)  0.0009 (  10)
................................................................................
.............................. CYCLE  116 ......................................
................................................................................
   1    -50.7356486 -0.507356E+02  0.210E-03    8.22       0.0  T
   2    -50.7356486 -0.838867E-09  0.155E-03    8.22      12.7  T
   3    -50.7356486 -0.813522E-09  0.247E-04    8.22      79.5  T
   4    -50.7356486 -0.610143E-10  0.756E-05    8.22     259.3  T
speedup  1.08
cpu  time for SCC    0.00 s
wall time for SCC    0.00 s
speedup  1.08
cpu  time for grad    0.01 s
wall time for grad    0.01 s
 E :    -50.44635959  G :  0.000098    pred/act E change: -0.893D-07 -0.317D-07
Maxdispl :   0.0022   ||displ|| :   0.0046   Lambda : -0.697D-07
Largest |displ|/coords:  0.0022 (   2)  0.0018 (  10)  0.0015 (   3)

   *** GEOMETRY OPTIMIZATION CONVERGED AFTER 116 ITERATIONS ***

------------------------------------------------------------------------
 total energy gain (kcal):     -0.0002
------------------------------------------------------------------------
================
 final structure:
================
$coord
        0.22476002277184       -1.24040563393844        5.00792723465824      S 
       -0.79223215770772       -3.69440957416105        4.45662420104609      O 
        2.21122781902194       -0.39123083389261        3.39216962753379      O 
       -1.85499385178738        0.72363657674948        5.22346311767597      O 
        1.27528792827034       -1.30905150319186        7.79083131494532      O 
        0.00953168007900       -2.16210552823096        8.75068004186699      H 
       -2.64944323839647        1.11887923947297        3.35724341035286      H 
       -0.57334463710174        4.15630129387759       -2.17082712643986      O 
       -1.09622426054022        5.72615291206950       -2.90359332929126      H 
        4.05228813834008        2.13707376142491       -0.67188969137659      O 
        3.70513754479662        1.48408927822690        1.00407927014997      H 
        2.59649064682874        3.16068802323665       -1.11109442919230      H 
       -3.46258596054139        1.37940346190935        0.92094925636998      O 
       -2.40401121183118        2.61388893045822        0.02058780790923      H 
       -2.99475295991329       -0.30160449259973        0.19164132702039      H 
        2.93454122832595       -2.31936978358526       -2.63584872523168      O 
        3.47883865774614       -0.63211307019872       -2.01973910289278      H 
        4.06489049318502       -3.50363036467469       -1.86284625721011      H 
       -1.71662435654813       -2.97260852944256       -0.52440700984523      O 
       -1.43858125889036       -3.65244345255641        1.15680194723652      H 
       -0.03940009142030       -2.79239001347249       -1.29464560721847      H 
       -1.16834268507736        0.38017183927104       -5.40747126436807      N 
        0.43439272921526       -0.63964956730963       -5.13288653452732      H 
       -2.61165121700331       -0.68702169978599       -4.73839987711652      H 
       -0.77213591962514        2.81907141752659       -3.50752565701614      H 
       -1.41306300657118        0.59867733173743       -7.29182396392220      H 
$end
 
 Bond Distances (Angstroems)
 ---------------------------
S1-O2=1.4357         S1-O3=1.4276         S1-O4=1.5180         S1-O5=1.5745         O2-S1=1.4357         O3-S1=1.4276         
O4-S1=1.5180         O4-H7=1.0935         O5-S1=1.5745         O5-H6=0.9542         H6-O5=0.9542         H7-O4=1.0935         
O8-H9=0.9576         O8-H25=1.0061        H9-O8=0.9576         O10-H11=0.9694       O10-H12=0.9700       H11-O10=0.9694       
H12-O10=0.9700       O13-H14=0.9836       O13-H15=1.0008       H14-O13=0.9836       H15-O13=1.0008       O16-H17=0.9932       
O16-H18=0.9580       H17-O16=0.9932       H18-O16=0.9580       O19-H20=0.9709       O19-H21=0.9813       H20-O19=0.9709       
H21-O19=0.9813       N22-H23=1.0157       N22-H24=1.0137       N22-H26=1.0122       H23-N22=1.0157       H24-N22=1.0137       
H25-O8=1.0061        H26-N22=1.0122       
 N  H  Rav=1.0139 sigma=0.0015  Rmin=1.0122  Rmax=1.0157     3
 O  H  Rav=0.9865 sigma=0.0361  Rmin=0.9542  Rmax=1.0935    12
 S  O  Rav=1.4889 sigma=0.0608  Rmin=1.4276  Rmax=1.5745     4
 
 selected bond angles (degree)
 --------------------
O3-S1-O2=116.04                O4-S1-O2=111.27                O4-S1-O3=111.30                O5-S1-O2=107.55                
O5-S1-O3=107.91                O5-S1-O4=101.62                H7-O4-S1=109.99                H6-O5-S1=105.13                
H25-O8-H9=107.17               H12-O10-H11=105.53             
 
 selected dihedral angles (degree)
 ---------------------------------
H7-O4-S1-O2=288.55            H7-O4-S1-O3= 59.66            H7-O4-S1-O5=174.32            H6-O5-S1-O2=315.96            
H6-O5-S1-O3=190.08            H6-O5-S1-O4= 72.93            
 
 CMA Distance (Angstroems)
 ---------------------------
R(CMA):  3.7466

========================================================================
 FINAL SINGLEPOINT CALCULATION ON OPTIMIZED GEOMETRY
========================================================================

 Ncao       : 65
 Nao        : 64
 Nshell     : 38
 Nel        : 80
 T(el)      :   300.0
 intcut     :    25.0
 scfconv/Eh :  0.100E-05
   qconv/e  :  0.100E-03
 intneglect :  0.100E-07
 broydamp   :      0.250
 iter      E             dE          RMSdq      gap      omega  full diag
   1    -50.7356486 -0.507356E+02  0.366E-05    8.22       0.0  T
   2    -50.7356486 -0.561329E-12  0.234E-05    8.22     837.4  T
   3    -50.7356486 -0.277112E-12  0.381E-06    8.22    5142.1  T
speedup  1.11
cpu  time for SCC    0.00 s
wall time for SCC    0.00 s

   *** convergence criteria satisfied after 3 iterations ***

          eigenvalues
 #    :          28         29         30         31         32         33         34         35
 occ. :        2.000      2.000      2.000      2.000      2.000      2.000      2.000      2.000
 eps  :       -13.564    -13.519    -13.004    -12.787    -12.737    -12.518    -12.369    -12.286
 #    :          36         37         38         39         40         41         42         43
 occ. :        2.000      2.000      2.000      2.000      2.000      0.000      0.000      0.000
 eps  :       -12.265    -11.899    -11.801    -11.579    -11.287     -3.072     -1.090     -0.625
 #    :          44         45         46         47         48         49         50         51
 occ. :        0.000      0.000      0.000      0.000      0.000      0.000      0.000      0.000
 eps  :        -0.114      0.946      1.762      2.212      2.511      3.477      4.498      4.826


   #   Z            q   n(s)   n(p)   n(d)      C6AA      α(0)
   1  16 S      1.694  1.578  1.778  0.950    88.914    15.870
   2   8 O     -0.706  1.766  4.940  0.000    28.867     7.203
   3   8 O     -0.679  1.746  4.934  0.000    28.147     7.113
   4   8 O     -0.646  1.768  4.879  0.000    26.319     6.924
   5   8 O     -0.567  1.742  4.825  0.000    24.391     6.667
   6   1 H      0.357  0.643  0.000  0.000     0.566     1.178
   7   1 H      0.400  0.600  0.000  0.000     0.477     1.079
   8   8 O     -0.626  1.750  4.876  0.000    25.833     6.860
   9   1 H      0.283  0.717  0.000  0.000     0.774     1.382
  10   8 O     -0.615  1.752  4.863  0.000    25.542     6.821
  11   1 H      0.319  0.681  0.000  0.000     0.666     1.282
  12   1 H      0.316  0.684  0.000  0.000     0.674     1.289
  13   8 O     -0.612  1.767  4.845  0.000    25.406     6.806
  14   1 H      0.344  0.656  0.000  0.000     0.603     1.220
  15   1 H      0.347  0.653  0.000  0.000     0.595     1.212
  16   8 O     -0.630  1.752  4.877  0.000    25.907     6.869
  17   1 H      0.336  0.664  0.000  0.000     0.624     1.241
  18   1 H      0.282  0.718  0.000  0.000     0.777     1.384
  19   8 O     -0.639  1.753  4.886  0.000    26.138     6.900
  20   1 H      0.308  0.692  0.000  0.000     0.696     1.311
  21   1 H      0.329  0.671  0.000  0.000     0.640     1.256
  22   7 N     -0.449  1.368  4.080  0.000    31.773     8.372
  23   1 H      0.198  0.802  0.000  0.000     1.118     1.656
  24   1 H      0.175  0.825  0.000  0.000     1.241     1.745
  25   1 H      0.328  0.672  0.000  0.000     0.641     1.257
  26   1 H      0.152  0.848  0.000  0.000     1.385     1.844

 Mol. C6AA /au·bohr⁶  :       5448.540881
 Mol. C8AA /au·bohr⁸  :     117658.050686
 Mol. α(0) /au        :        106.743460

 
 Wiberg/Mayer (AO) data. WBOs > 0.1 written file <wbo>
 largest (>0.05) Wiberg bond orders for each atom
           total WBO             WBO to atom ...
     1  S   4.852    O    3 1.433    O    2 1.385    O    4 1.062    O    5 0.934
     2  O   1.752    S    1 1.385    O    3 0.124    O    4 0.099    O    5 0.083
     3  O   1.771    S    1 1.433    O    2 0.124    O    4 0.101    O    5 0.067
     4  O   1.934    S    1 1.062    H    7 0.546    O    3 0.101    O    2 0.099    O   13 0.071    O    5 0.052
     5  O   2.003    S    1 0.934    H    6 0.856    O    2 0.083    O    3 0.067    O    4 0.052
     6  H   0.873    O    5 0.856
     7  H   0.840    O    4 0.546    O   13 0.276
     8  O   1.882    H    9 0.912    H   25 0.777    H   14 0.063
     9  H   0.920    O    8 0.912
    10  O   1.895    H   11 0.866    H   12 0.864    H   17 0.085
    11  H   0.898    O   10 0.866
    12  H   0.900    O   10 0.864
    13  O   2.028    H   14 0.815    H   15 0.778    H    7 0.276    O    4 0.071
    14  H   0.882    O   13 0.815    O    8 0.063
    15  H   0.879    O   13 0.778    O   19 0.099
    16  O   1.860    H   18 0.914    H   17 0.800    H   21 0.060
    17  H   0.887    O   16 0.800    O   10 0.085
    18  H   0.920    O   16 0.914
    19  O   1.888    H   20 0.862    H   21 0.827    H   15 0.099
    20  H   0.905    O   19 0.862
    21  H   0.892    O   19 0.827    O   16 0.060
    22  N   3.061    H   26 0.973    H   24 0.965    H   23 0.946    H   25 0.113
    23  H   0.961    N   22 0.946
    24  H   0.969    N   22 0.965
    25  H   0.892    O    8 0.777    N   22 0.113
    26  H   0.977    N   22 0.973
 MOs/occ written to file <molden.input>
 
molecular dipole:
                 x           y           z       tot (Debye)
 q only:       -0.537       0.562      -0.831
   full:       -0.465       0.281      -0.622       2.099
molecular quadrupole (traceless):
                xx          xy          yy          xz          yz          zz
 q only:       -9.085      -5.950      -1.614       1.294      -5.908      10.700
  q+dip:      -14.184      -7.490      -2.071       2.462      -7.492      16.255
   full:      -14.439      -7.817      -2.275       2.692      -8.014      16.714

SCC energy    :     -50.7356486
rep           :       0.2889795
ES            :       0.2350716
AES           :      -0.0534719
AXC           :      -0.0063033
disp          :      -0.0182345
XB            :       0.0000000
fix           :       0.0000000
total E       :     -50.4463596
atomizationE  :       4.9766638     3122.90
(atE without considering molecular charge,
 total energy contains solvation terms)
H-L gap (eV)  :          8.2155
optimized geometry written to: xtbopt.xyz


------------------------------------------------------------------------
 * finished run on 2019/09/16 at 11:52:50.020     
------------------------------------------------------------------------
 total:
 * wall-time:     0 d,  0 h,  0 min,  2.810 sec
 *  cpu-time:     0 d,  0 h,  0 min,  2.650 sec
 * ratio c/w:     0.943 speedup
 SCF:
 * wall-time:     0 d,  0 h,  0 min,  0.174 sec
 *  cpu-time:     0 d,  0 h,  0 min,  0.141 sec
 * ratio c/w:     0.810 speedup
 ANC optimizer:
 * wall-time:     0 d,  0 h,  0 min,  2.605 sec
 *  cpu-time:     0 d,  0 h,  0 min,  2.479 sec
 * ratio c/w:     0.951 speedup

