      -----------------------------------------------------------      
     |                   =====================                   |     
     |                           x T B                           |     
     |                   =====================                   |     
     |                         S. Grimme                         |     
     |          Mulliken Center for Theoretical Chemistry        |     
     |                    University of Bonn                     |     
     |                 Version 6.0.1 (SAW181210)                 |     
      -----------------------------------------------------------      

   This program is distributed in the hope that it will be useful,
   but WITHOUT ANY WARRANTY; without even the implied warranty of
   MERCHANTABILITY or FITNESS FOR A PARTICULAR PURPOSE.
   
   FOR NON-COMMERCIAL, ACADEMIA USE ONLY.
   
   Cite this work as:
   S. Grimme, C. Bannwarth, P. Shushkov, J. Comput. Theory Chem., 2017,
   13, 1989-2009.
   C. Bannwarth, S. Ehlert and S. Grimme., ChemRxiv, 2018, preprint.
   http://doi.org/10.26434/chemrxiv.7246238.v1
   
   for sTDA-xTB:
   S. Grimme and C. Bannwarth, J. Chem. Phys., 2016, 145, 054103.
   
   in the mass-spec context:
   V. Asgeirsson, C. Bauer and S. Grimme, Chem. Sci., 2017, 8, 4879.
   
   if GBSA is used:
   P. Shushkov, F. März and S. Grimme, unpublished.
   
   for ANC optimizer:
   S. Grimme, unpublished.
   Rational Function algorithm used in ANCopt:
   F. Eckert, P. Pulay, H.-J. Werner, J. Comput. Chem., 1997, 18, 1473.
   
   with help from (in alphabetical order)
   C. Bannwarth, F. Bohle, G. Brandenburg, E. Caldeweyher, M. Checinski,
   S. Dohm, S. Ehlert, S. Ehrlich, F. März, H. Neugebauer, J. Pisarek,
   P. Pracht, P. Shushkov, and S. Spicher.
   
 * started run on 2019/09/16 at 11:18:11.078     
========================================================================
 # omp threads = 1
========================================================================
number of atoms            : 26
number of electrons        : 80
charge                     : 0
spin                       : .0
first test random number   : .7204

########################################################################
# WARNING! Please study the warnings concerning your input carefully
#  - XTBPATH is not set, using XTBHOME instead
#  - the use of '-opt' is discouraged, please use '--opt' next time
#  - the use of '-chrg' is discouraged, please use '--chrg' next time
#  - the use of '-uhf' is discouraged, please use '--uhf' next time
########################################################################

           ------------------------------------------------- 
          |                 G F N 2 - x T B                 |
          | Geometry, Frequencies, Noncovalent interactions |
          |            JCTC 2018 parametrisation            |
           ------------------------------------------------- 
      method parameters     
 k(s)        :  1.8500
 k(p)        :  2.2300
 k(d)        :  2.2300
 k(f)        :  2.0000
 kEN (H0ij)  : -2.0000
 D4 a1       :  0.5200
 D4 a2       :  5.0000
 D4 s6       :  1.0000
 D4 s8       :  2.7000
 D4 s9       :  5.0000
 alphaj      :  2.0000


            Z     q(EN)     CN     RAES       Cart. coordinates
     1  S   6.0    0.58    4.28    4.19     2.44477     1.48414     4.00019
     2  O   6.0   -0.32    1.19    1.80     4.15248     1.54545     1.84117
     3  O   6.0   -0.27    1.09    1.80     2.89974     2.88988     6.29247
     4  O   6.0   -0.26    2.07    1.83    -0.38912     2.08735     2.92753
     5  O   6.0   -0.23    2.04    1.83     1.93976    -1.38512     4.88338
     6  H   1.0    0.16    1.16    1.45     1.76586    -2.45696     3.39769
     7  H   1.0    0.16    1.17    1.46    -0.19836     3.23825     1.50436
     8  O   6.0   -0.38    1.46    1.80     1.65076    -3.93601     0.23915
     9  H   1.0    0.17    0.95    1.42     2.14050    -5.71862    -0.01816
    10  O   6.0   -0.40    1.69    1.81    -0.35497     0.77753    -4.27009
    11  H   1.0    0.17    0.95    1.42    -0.62257     1.04238    -6.09821
    12  O   6.0   -0.29    2.02    1.83     0.25374     4.51873    -1.63281
    13  H   1.0    0.15    0.97    1.43     0.28877     5.78921    -2.93637
    14  H   1.0    0.18    1.16    1.45     0.05788     2.93500    -2.50918
    15  O   6.0   -0.22    2.94    2.64     3.52706    -0.68052    -2.42909
    16  H   1.0    0.15    1.16    1.46     2.21844    -0.03205    -3.59392
    17  H   1.0    0.16    1.05    1.44     4.01426     0.58794    -1.14704
    18  H   1.0    0.16    1.13    1.45     3.02796    -2.30439    -1.65099
    19  O   6.0   -0.23    2.95    2.66    -2.16333    -2.67409    -1.92371
    20  H   1.0    0.13    1.10    1.44    -3.44330    -2.11154    -0.68474
    21  H   1.0    0.16    1.20    1.46    -1.60143    -1.27948    -3.03246
    22  H   1.0    0.16    1.17    1.46    -0.72403    -3.53523    -1.10008
    23  N   5.0   -0.23    3.09    1.94    -4.94662    -0.51565     1.61107
    24  H   1.0    0.10    0.99    1.43    -6.35316     0.53249     0.81476
    25  H   1.0    0.12    1.02    1.43    -3.79859     0.74483     2.50790
    26  H   1.0    0.11    0.99    1.43    -5.78651    -1.54351     3.00719

  Z AO/shell   Hii/eV     exponent
  1     Wed Apr 25 08:07:45 CEST 2018   EN: 2.200 GM2: 0.406  GM3: 0.0800  RAES: 1.40
     1s    -10.707211    1.230000
  7     Wed Apr 25 08:07:45 CEST 2018   EN: 3.040 GM2: 0.461  GM3:-0.0640  RAES: 1.90
     2s    -16.686243    2.339881
     2p    -12.523956    2.014332
  8     Wed Apr 25 08:07:45 CEST 2018   EN: 3.440 GM2: 0.452  GM3:-0.0517  RAES: 1.80
     2s    -20.229985    2.439742
     2p    -15.503117    2.137023
 16     Tue Apr 24 11:44:34 CEST 2018   EN: 2.580 GM2: 0.340  GM3:-0.0502  RAES: 3.10
     3s    -20.029654    1.981333
     3p    -11.377694    2.025643
     3d     -0.420282    1.702555
 no old-style atom pair restraining (fixing) potential

molecular fragmentation (1/2 indicates fragments):
11111112222222222222222222
# atoms in fragment 1/2:     7    19
 fragment masses (1/2) :       98.07      107.11
CMA distance (Bohr)    :   6.212
constraining FC (au)   :  0.0500
           ------------------------------------------------- 
          |        Self-Consistent Charge Iterations        |
           ------------------------------------------------- 

 Ncao       : 65
 Nao        : 64
 Nshell     : 38
 Nel        : 80
 T(el)      :   300.0
 intcut     :    25.0
 scfconv/Eh :  0.100E-05
   qconv/e  :  0.100E-03
 intneglect :  0.100E-07
 broydamp   :      0.250
 iter      E             dE          RMSdq      gap      omega  full diag
   1    -50.5364443 -0.505364E+02  0.708E+00    7.93       0.0  T
   2    -50.5857402 -0.492959E-01  0.499E+00    7.27       1.0  T
   3    -50.6249561 -0.392159E-01  0.120E+00    4.83       1.0  T
   4    -50.6288839 -0.392772E-02  0.665E-01    5.02       1.0  T
   5    -50.6302735 -0.138960E-02  0.277E-01    5.06       1.0  T
   6    -50.6306328 -0.359323E-03  0.161E-01    5.10       1.0  T
   7    -50.6307891 -0.156293E-03  0.546E-02    5.10       1.0  T
   8    -50.6308085 -0.194488E-04  0.249E-02    5.10       1.0  T
   9    -50.6308117 -0.317523E-05  0.124E-02    5.11       1.6  T
  10    -50.6308125 -0.758531E-06  0.284E-03    5.11       6.9  T
  11    -50.6308125 -0.270958E-07  0.136E-03    5.11      14.4  T
  12    -50.6308125 -0.776133E-08  0.415E-04    5.11      47.2  T
  13    -50.6308125 -0.654715E-09  0.177E-04    5.11     111.0  T
speedup  1.00
cpu  time for SCC    0.02 s
wall time for SCC    0.02 s

   *** convergence criteria satisfied after 13 iterations ***

          eigenvalues
 #    :          28         29         30         31         32         33         34         35
 occ. :        2.000      2.000      2.000      2.000      2.000      2.000      2.000      2.000
 eps  :       -13.198    -12.832    -12.794    -12.779    -12.595    -12.520    -12.379    -11.726
 #    :          36         37         38         39         40         41         42         43
 occ. :        2.000      2.000      2.000      2.000      2.000      0.000      0.000      0.000
 eps  :       -11.509    -10.674    -10.337    -10.120    -10.051     -4.940     -2.076     -1.144
 #    :          44         45         46         47         48         49         50         51
 occ. :        0.000      0.000      0.000      0.000      0.000      0.000      0.000      0.000
 eps  :        -0.287      0.606      0.979      2.169      3.081      3.452      4.121      4.698


   #   Z            q   n(s)   n(p)   n(d)      C6AA      α(0)
   1  16 S      1.650  1.628  1.798  0.924    89.917    15.960
   2   8 O     -0.665  1.764  4.900  0.000    27.763     7.065
   3   8 O     -0.614  1.772  4.842  0.000    26.451     6.896
   4   8 O     -0.597  1.759  4.838  0.000    25.097     6.763
   5   8 O     -0.569  1.758  4.811  0.000    24.432     6.673
   6   1 H      0.389  0.611  0.000  0.000     0.503     1.113
   7   1 H      0.389  0.611  0.000  0.000     0.503     1.113
   8   8 O     -0.876  1.841  5.034  0.000    33.974     7.815
   9   1 H      0.190  0.810  0.000  0.000     1.173     1.702
  10   8 O     -0.851  1.830  5.021  0.000    33.097     7.715
  11   1 H      0.207  0.793  0.000  0.000     1.085     1.637
  12   8 O     -0.676  1.756  4.920  0.000    27.069     7.022
  13   1 H      0.275  0.725  0.000  0.000     0.800     1.405
  14   1 H      0.340  0.660  0.000  0.000     0.609     1.224
  15   8 O     -0.474  1.663  4.811  0.000    22.283     6.375
  16   1 H      0.392  0.608  0.000  0.000     0.496     1.105
  17   1 H      0.389  0.611  0.000  0.000     0.505     1.117
  18   1 H      0.392  0.608  0.000  0.000     0.498     1.107
  19   8 O     -0.495  1.669  4.826  0.000    22.734     6.440
  20   1 H      0.360  0.640  0.000  0.000     0.564     1.180
  21   1 H      0.392  0.608  0.000  0.000     0.493     1.100
  22   1 H      0.385  0.615  0.000  0.000     0.508     1.117
  23   7 N     -0.443  1.379  4.064  0.000    31.607     8.350
  24   1 H      0.156  0.844  0.000  0.000     1.359     1.826
  25   1 H      0.197  0.803  0.000  0.000     1.122     1.659
  26   1 H      0.156  0.844  0.000  0.000     1.361     1.827

 Mol. C6AA /au·bohr⁶  :       5519.721125
 Mol. C8AA /au·bohr⁸  :     119275.573830
 Mol. α(0) /au        :        107.303734

 
 Wiberg/Mayer (AO) data. WBOs > 0.1 written file <wbo>
 largest (>0.05) Wiberg bond orders for each atom
           total WBO             WBO to atom ...
     1  S   4.770    O    3 1.493    O    2 1.373    O    5 0.974    O    4 0.897
     2  O   1.783    S    1 1.373    O    3 0.136    O    5 0.096    O    4 0.094    H   17 0.062
     3  O   1.828    S    1 1.493    O    2 0.136    O    4 0.095    O    5 0.086
     4  O   1.977    S    1 0.897    H    7 0.788    O    3 0.095    O    2 0.094    O    5 0.056
     5  O   2.012    S    1 0.974    H    6 0.770    O    2 0.096    O    3 0.086    O    4 0.056
     6  H   0.848    O    5 0.770    O    8 0.059
     7  H   0.849    O    4 0.788
     8  O   1.548    H    9 0.960    H   22 0.193    H   18 0.173    O   19 0.066    O   15 0.060    H    6 0.059
     9  H   0.964    O    8 0.960
    10  O   1.611    H   11 0.944    H   21 0.185    H   16 0.178    H   14 0.121    O   15 0.061    O   19 0.060
    11  H   0.957    O   10 0.944
    12  O   1.786    H   13 0.913    H   14 0.761
    13  H   0.924    O   12 0.913
    14  H   0.884    O   12 0.761    O   10 0.121
    15  O   2.269    H   17 0.777    H   18 0.670    H   16 0.665    O   10 0.061    O    8 0.060
    16  H   0.846    O   15 0.665    O   10 0.178
    17  H   0.849    O   15 0.777    O    2 0.062
    18  H   0.846    O   15 0.670    O    8 0.173
    19  O   2.247    H   20 0.757    H   22 0.655    H   21 0.655    O    8 0.066    O   10 0.060
    20  H   0.870    O   19 0.757    N   23 0.107
    21  H   0.846    O   19 0.655    O   10 0.185
    22  H   0.852    O   19 0.655    O    8 0.193
    23  N   3.052    H   24 0.973    H   26 0.972    H   25 0.938    H   20 0.107
    24  H   0.976    N   23 0.973
    25  H   0.961    N   23 0.938
    26  H   0.976    N   23 0.972
 MOs/occ written to file <molden.input>
 
molecular dipole:
                 x           y           z       tot (Debye)
 q only:       -1.288      -0.500      -1.385
   full:       -1.604      -0.331      -1.607       5.830
molecular quadrupole (traceless):
                xx          xy          yy          xz          yz          zz
 q only:       10.508      -0.180       0.041     -10.771      -4.040     -10.549
  q+dip:        9.508      -3.156       0.929     -12.949      -7.442     -10.436
   full:        9.052      -3.211       1.527     -12.517      -7.994     -10.580

SCC energy    :     -50.6308125
rep           :       0.2713690
ES            :       0.2808596
AES           :      -0.0509496
AXC           :      -0.0039150
disp          :      -0.0187384
XB            :       0.0000000
fix           :       0.0000000
total E       :     -50.3590286
atomizationE  :       4.8893328     3068.10
(atE without considering molecular charge,
 total energy contains solvation terms)
H-L gap (eV)  :          5.1114
           ------------------------------------------------- 
          |                 ===============                 |
          |                   A N C O P T                   |
          |                 ===============                 |
          |          Approximate Normal Coordinate          |
          |           Rational Function Optimizer           |
           ------------------------------------------------- 
dumping coords to <xtbopt.coord> and <xtbopt.log>
 optlevel               2
 Maxcycle             520
 Maxmicro              25
 Econv         1.000000000000000E-007
 Gconv         2.000000000000000E-004
 Maxdispl       1.00000000000000     
 Hlow          5.000000000000000E-003
 S6             20.0000000000000     
 Nvar               72

generating ANC from model Hessian ...
 Shifting diagonal of input Hessian by   4.904549433626628E-003
 Lowest  eigenvalues of input Hessian
   -0.000000   -0.000000   -0.000000   -0.000000   -0.000000    0.000000
    0.005000    0.005304    0.005688    0.005711    0.006446    0.006799
    0.007335    0.007762    0.008297    0.008970    0.009947    0.010641
 Highest eigenvalues
    1.575298    1.585632    1.596591    1.952924    2.774688    3.592596
 
cpu  time for ANC gen    0.02 s
wall time for ANC gen    0.02 s
................................................................................
.............................. CYCLE    1 ......................................
................................................................................
   1    -50.6308125 -0.506308E+02  0.425E-05    5.11       0.0  T
   2    -50.6308125 -0.329692E-11  0.318E-05    5.11     616.6  T
   3    -50.6308125 -0.186873E-11  0.123E-05    5.11    1598.4  T
speedup  1.25
cpu  time for SCC    0.00 s
wall time for SCC    0.00 s
speedup  1.02
cpu  time for grad    0.01 s
wall time for grad    0.01 s
 E :    -50.35902860  G :  0.185322    pred/act E change:  0.000D+00  0.212D-07
Maxdispl :   0.1379   ||displ|| :   0.3720   Lambda : -0.409D-01
Largest |displ|/coords:  0.1379 (  17)  0.1260 (  20)  0.1214 (  54)
................................................................................
.............................. CYCLE    2 ......................................
................................................................................
   1    -50.6500451 -0.506500E+02  0.378E-01    5.93       0.0  T
   2    -50.6503077 -0.262536E-03  0.276E-01    6.02       1.0  T
   3    -50.6504407 -0.133036E-03  0.727E-02    6.18       1.0  T
   4    -50.6504598 -0.190752E-04  0.231E-02    6.17       1.0  T
   5    -50.6504607 -0.960431E-06  0.751E-03    6.16       2.6  T
   6    -50.6504609 -0.131160E-06  0.368E-03    6.16       5.3  T
   7    -50.6504609 -0.238630E-07  0.133E-03    6.16      14.7  T
speedup  0.99
cpu  time for SCC    0.01 s
wall time for SCC    0.01 s
speedup  0.97
cpu  time for grad    0.01 s
wall time for grad    0.02 s
 E :    -50.39095996  G :  0.101633    pred/act E change:  0.000D+00 -0.319D-01
Maxdispl :   0.1452   ||displ|| :   0.4184   Lambda : -0.203D-01
Largest |displ|/coords:  0.1452 (  20)  0.1435 (  25)  0.1306 (  17)
................................................................................
.............................. CYCLE    3 ......................................
................................................................................
   1    -50.6601654 -0.506602E+02  0.328E-01    6.83       0.0  T
   2    -50.6605793 -0.413915E-03  0.233E-01    6.92       1.0  T
   3    -50.6607566 -0.177323E-03  0.840E-02    7.05       1.0  T
   4    -50.6607722 -0.156049E-04  0.170E-02    7.07       1.2  T
   5    -50.6607729 -0.669946E-06  0.663E-03    7.06       3.0  T
   6    -50.6607730 -0.104593E-06  0.350E-03    7.06       5.6  T
   7    -50.6607730 -0.259302E-07  0.121E-03    7.06      16.3  T
speedup  1.01
cpu  time for SCC    0.01 s
wall time for SCC    0.01 s
speedup  1.05
cpu  time for grad    0.02 s
wall time for grad    0.02 s
 E :    -50.40703188  G :  0.059123    pred/act E change: -0.233D-01 -0.161D-01
Maxdispl :   0.1637   ||displ|| :   0.4151   Lambda : -0.955D-02
Largest |displ|/coords:  0.1637 (  19)  0.1360 (  15)  0.1357 (  25)
................................................................................
.............................. CYCLE    4 ......................................
................................................................................
   1    -50.6634188 -0.506634E+02  0.273E-01    7.49       0.0  T
   2    -50.6638117 -0.392844E-03  0.188E-01    7.58       1.0  T
   3    -50.6639781 -0.166393E-03  0.772E-02    7.71       1.0  T
   4    -50.6639869 -0.888071E-05  0.137E-02    7.74       1.4  T
   5    -50.6639875 -0.560365E-06  0.580E-03    7.73       3.4  T
   6    -50.6639876 -0.681394E-07  0.339E-03    7.73       5.8  T
speedup  1.03
cpu  time for SCC    0.01 s
wall time for SCC    0.01 s
speedup  0.98
cpu  time for grad    0.01 s
wall time for grad    0.01 s
 E :    -50.41407025  G :  0.039107    pred/act E change: -0.119D-01 -0.704D-02
Maxdispl :   0.1893   ||displ|| :   0.3882   Lambda : -0.499D-02
Largest |displ|/coords:  0.1893 (  19)  0.1490 (  11)  0.1011 (  14)
................................................................................
.............................. CYCLE    5 ......................................
................................................................................
   1    -50.6632299 -0.506632E+02  0.308E-01    8.16       0.0  T
   2    -50.6635745 -0.344629E-03  0.219E-01    8.26       1.0  T
   3    -50.6637130 -0.138517E-03  0.819E-02    8.42       1.0  T
   4    -50.6637291 -0.161175E-04  0.200E-02    8.43       1.0  T
   5    -50.6637301 -0.953043E-06  0.653E-03    8.42       3.0  T
   6    -50.6637301 -0.696520E-07  0.373E-03    8.42       5.3  T
   7    -50.6637302 -0.218219E-07  0.126E-03    8.42      15.5  T
speedup  1.03
cpu  time for SCC    0.01 s
wall time for SCC    0.01 s
speedup  1.05
cpu  time for grad    0.02 s
wall time for grad    0.02 s
 E :    -50.41712577  G :  0.025538    pred/act E change: -0.560D-02 -0.306D-02
Maxdispl :   0.1682   ||displ|| :   0.3386   Lambda : -0.175D-02
Largest |displ|/coords:  0.1682 (   8)  0.1320 (  19)  0.1157 (  11)
................................................................................
.............................. CYCLE    6 ......................................
................................................................................
   1    -50.6645218 -0.506645E+02  0.201E-01    8.61       0.0  T
   2    -50.6645729 -0.511141E-04  0.148E-01    8.65       1.0  T
   3    -50.6645956 -0.226934E-04  0.354E-02    8.74       1.0  T
   4    -50.6646023 -0.674878E-05  0.111E-02    8.73       1.8  T
   5    -50.6646026 -0.224181E-06  0.353E-03    8.72       5.6  T
   6    -50.6646026 -0.182571E-07  0.202E-03    8.72       9.7  T
speedup  1.00
cpu  time for SCC    0.01 s
wall time for SCC    0.01 s
speedup  0.97
cpu  time for grad    0.01 s
wall time for grad    0.01 s
 E :    -50.41778145  G :  0.023510    pred/act E change: -0.287D-02 -0.656D-03
Maxdispl :   0.2775   ||displ|| :   0.4700   Lambda : -0.282D-02
Largest |displ|/coords:  0.2775 (   7)  0.2142 (  11)  0.1338 (  19)
................................................................................
.............................. CYCLE    7 ......................................
................................................................................
   1    -50.6599729 -0.506600E+02  0.485E-01    8.81       0.0  T
   2    -50.6601529 -0.180020E-03  0.367E-01    8.84       1.0  T
   3    -50.6602448 -0.918364E-04  0.755E-02    8.88       1.0  T
   4    -50.6602723 -0.274758E-04  0.227E-02    8.88       1.0  T
   5    -50.6602739 -0.165334E-05  0.629E-03    8.88       3.1  T
   6    -50.6602739 -0.411425E-07  0.367E-03    8.88       5.3  T
   7    -50.6602740 -0.196180E-07  0.115E-03    8.88      17.1  T
speedup  1.04
cpu  time for SCC    0.01 s
wall time for SCC    0.01 s
speedup  0.99
cpu  time for grad    0.01 s
wall time for grad    0.02 s
 E :    -50.41850003  G :  0.047477    pred/act E change: -0.975D-03 -0.719D-03
Maxdispl :   0.1815   ||displ|| :   0.3364   Lambda : -0.367D-02
Largest |displ|/coords:  0.1815 (   3)  0.1517 (   2)  0.1175 (   8)
................................................................................
.............................. CYCLE    8 ......................................
................................................................................
   1    -50.6716103 -0.506716E+02  0.313E-01    8.84       0.0  T
   2    -50.6716881 -0.778305E-04  0.233E-01    8.84       1.0  T
   3    -50.6717327 -0.446438E-04  0.492E-02    8.84       1.0  T
   4    -50.6717426 -0.983648E-05  0.126E-02    8.84       1.6  T
   5    -50.6717429 -0.295798E-06  0.545E-03    8.84       3.6  T
   6    -50.6717429 -0.245816E-07  0.269E-03    8.84       7.3  T
speedup  1.03
cpu  time for SCC    0.01 s
wall time for SCC    0.01 s
speedup  1.05
cpu  time for grad    0.01 s
wall time for grad    0.01 s
 E :    -50.41886450  G :  0.032018    pred/act E change: -0.172D-02 -0.364D-03
Maxdispl :   0.1446   ||displ|| :   0.2575   Lambda : -0.216D-02
Largest |displ|/coords:  0.1446 (   8)  0.1223 (   3)  0.0965 (   5)
................................................................................
.............................. CYCLE    9 ......................................
................................................................................
   1    -50.6708446 -0.506708E+02  0.177E-01    8.72       0.0  T
   2    -50.6708825 -0.379863E-04  0.131E-01    8.72       1.0  T
   3    -50.6708960 -0.134613E-04  0.337E-02    8.70       1.0  T
   4    -50.6709003 -0.428668E-05  0.107E-02    8.71       1.8  T
   5    -50.6709006 -0.299803E-06  0.276E-03    8.71       7.1  T
   6    -50.6709006 -0.919550E-08  0.150E-03    8.71      13.1  T
speedup  1.02
cpu  time for SCC    0.01 s
wall time for SCC    0.01 s
speedup  0.97
cpu  time for grad    0.01 s
wall time for grad    0.01 s
 E :    -50.42007023  G :  0.018105    pred/act E change: -0.205D-02 -0.121D-02
Maxdispl :   0.1224   ||displ|| :   0.2974   Lambda : -0.128D-02
Largest |displ|/coords:  0.1224 (   7)  0.1208 (   2)  0.1078 (   8)
................................................................................
.............................. CYCLE   10 ......................................
................................................................................
   1    -50.6659133 -0.506659E+02  0.238E-01    8.69       0.0  T
   2    -50.6659601 -0.468030E-04  0.178E-01    8.69       1.0  T
   3    -50.6659856 -0.254743E-04  0.389E-02    8.69       1.0  T
   4    -50.6659919 -0.635361E-05  0.876E-03    8.69       2.2  T
   5    -50.6659921 -0.186916E-06  0.343E-03    8.69       5.7  T
   6    -50.6659921 -0.112835E-07  0.200E-03    8.69       9.8  T
   7    -50.6659921 -0.576851E-08  0.500E-04    8.69      39.2  T
speedup  1.04
cpu  time for SCC    0.01 s
wall time for SCC    0.01 s
speedup  0.99
cpu  time for grad    0.01 s
wall time for grad    0.02 s
 E :    -50.42076867  G :  0.027756    pred/act E change: -0.115D-02 -0.698D-03
Maxdispl :   0.1233   ||displ|| :   0.2471   Lambda : -0.937D-03
Largest |displ|/coords:  0.1233 (   2)  0.1099 (   7)  0.0897 (   8)
................................................................................
.............................. CYCLE   11 ......................................
................................................................................
   1    -50.6666613 -0.506667E+02  0.173E-01    8.68       0.0  T
   2    -50.6666848 -0.234645E-04  0.130E-01    8.67       1.0  T
   3    -50.6666998 -0.150052E-04  0.283E-02    8.65       1.0  T
   4    -50.6667028 -0.307121E-05  0.739E-03    8.66       2.7  T
   5    -50.6667030 -0.138243E-06  0.290E-03    8.66       6.8  T
   6    -50.6667030 -0.804828E-08  0.160E-03    8.66      12.2  T
speedup  1.05
cpu  time for SCC    0.01 s
wall time for SCC    0.01 s
speedup  0.99
cpu  time for grad    0.01 s
wall time for grad    0.01 s
 E :    -50.42147812  G :  0.028796    pred/act E change: -0.696D-03 -0.709D-03
Maxdispl :   0.1865   ||displ|| :   0.4409   Lambda : -0.273D-02
Largest |displ|/coords:  0.1865 (   2)  0.1196 (   4)  0.1173 (   7)
................................................................................
.............................. CYCLE   12 ......................................
................................................................................
   1    -50.6763441 -0.506763E+02  0.301E-01    8.61       0.0  T
   2    -50.6764698 -0.125734E-03  0.226E-01    8.61       1.0  T
   3    -50.6765515 -0.816882E-04  0.669E-02    8.59       1.0  T
   4    -50.6765650 -0.134975E-04  0.232E-02    8.60       1.0  T
   5    -50.6765661 -0.112368E-05  0.700E-03    8.60       2.8  T
   6    -50.6765662 -0.746018E-07  0.403E-03    8.60       4.9  T
   7    -50.6765662 -0.288068E-07  0.120E-03    8.60      16.3  T
speedup  1.00
cpu  time for SCC    0.01 s
wall time for SCC    0.01 s
speedup  1.05
cpu  time for grad    0.02 s
wall time for grad    0.02 s
 E :    -50.42332208  G :  0.022882    pred/act E change: -0.497D-03 -0.184D-02
Maxdispl :   0.1760   ||displ|| :   0.5873   Lambda : -0.260D-02
Largest |displ|/coords:  0.1760 (  19)  0.1663 (  17)  0.1626 (  18)
................................................................................
.............................. CYCLE   13 ......................................
................................................................................
   1    -50.6754877 -0.506755E+02  0.468E-01    8.53       0.0  T
   2    -50.6758434 -0.355730E-03  0.350E-01    8.55       1.0  T
   3    -50.6760450 -0.201514E-03  0.110E-01    8.60       1.0  T
   4    -50.6760826 -0.375992E-04  0.354E-02    8.60       1.0  T
   5    -50.6760858 -0.321899E-05  0.112E-02    8.59       1.8  T
   6    -50.6760859 -0.152711E-06  0.680E-03    8.59       2.9  T
   7    -50.6760860 -0.788278E-07  0.177E-03    8.59      11.0  T
   8    -50.6760860 -0.817654E-08  0.492E-04    8.59      39.9  T
speedup  0.92
cpu  time for SCC    0.01 s
wall time for SCC    0.01 s
speedup  1.00
cpu  time for grad    0.02 s
wall time for grad    0.02 s
 E :    -50.42463711  G :  0.043501    pred/act E change: -0.163D-02 -0.132D-02
Maxdispl :   0.1458   ||displ|| :   0.3690   Lambda : -0.357D-02
Largest |displ|/coords:  0.1458 (  10)  0.1402 (   4)  0.1199 (  19)
................................................................................
.............................. CYCLE   14 ......................................
................................................................................
   1    -50.6849638 -0.506850E+02  0.271E-01    8.65       0.0  T
   2    -50.6851172 -0.153472E-03  0.200E-01    8.66       1.0  T
   3    -50.6852029 -0.857263E-04  0.653E-02    8.67       1.0  T
   4    -50.6852174 -0.144603E-04  0.218E-02    8.67       1.0  T
   5    -50.6852184 -0.103585E-05  0.763E-03    8.67       2.6  T
   6    -50.6852185 -0.900451E-07  0.420E-03    8.67       4.7  T
   7    -50.6852186 -0.239233E-07  0.107E-03    8.67      18.4  T
speedup  0.90
cpu  time for SCC    0.01 s
wall time for SCC    0.01 s
speedup  0.99
cpu  time for grad    0.01 s
wall time for grad    0.02 s
 E :    -50.42672223  G :  0.047277    pred/act E change: -0.175D-02 -0.209D-02
Maxdispl :   0.1467   ||displ|| :   0.4485   Lambda : -0.667D-02
Largest |displ|/coords:  0.1467 (  10)  0.1367 (  20)  0.1289 (  16)
................................................................................
.............................. CYCLE   15 ......................................
................................................................................
   1    -50.6978329 -0.506978E+02  0.348E-01    8.83       0.0  T
   2    -50.6980855 -0.252520E-03  0.254E-01    8.83       1.0  T
   3    -50.6982299 -0.144421E-03  0.780E-02    8.79       1.0  T
   4    -50.6982493 -0.194595E-04  0.229E-02    8.78       1.0  T
   5    -50.6982505 -0.111999E-05  0.909E-03    8.79       2.2  T
   6    -50.6982506 -0.133344E-06  0.567E-03    8.79       3.5  T
   7    -50.6982506 -0.440832E-07  0.124E-03    8.79      15.9  T
speedup  0.91
cpu  time for SCC    0.01 s
wall time for SCC    0.01 s
speedup  1.00
cpu  time for grad    0.01 s
wall time for grad    0.01 s
 E :    -50.42876052  G :  0.067908    pred/act E change: -0.203D-02 -0.204D-02
Maxdispl :   0.1083   ||displ|| :   0.3050   Lambda : -0.763D-02
Largest |displ|/coords:  0.1083 (  11)  0.0987 (  10)  0.0976 (  21)
................................................................................
.............................. CYCLE   16 ......................................
................................................................................
   1    -50.6896095 -0.506896E+02  0.249E-01    8.63       0.0  T
   2    -50.6897138 -0.104344E-03  0.184E-01    8.63       1.0  T
   3    -50.6897739 -0.600953E-04  0.695E-02    8.62       1.0  T
   4    -50.6897822 -0.823903E-05  0.217E-02    8.62       1.0  T
   5    -50.6897831 -0.944780E-06  0.573E-03    8.62       3.4  T
   6    -50.6897832 -0.416227E-07  0.318E-03    8.62       6.2  T
speedup  1.03
cpu  time for SCC    0.01 s
wall time for SCC    0.01 s
speedup  0.99
cpu  time for grad    0.01 s
wall time for grad    0.01 s
 E :    -50.43066876  G :  0.049138    pred/act E change: -0.401D-02 -0.191D-02
Maxdispl :   0.1687   ||displ|| :   0.4037   Lambda : -0.634D-02
Largest |displ|/coords:  0.1687 (   8)  0.1602 (   7)  0.1304 (   5)
................................................................................
.............................. CYCLE   17 ......................................
................................................................................
   1    -50.6879083 -0.506879E+02  0.461E-01    8.53       0.0  T
   2    -50.6881328 -0.224424E-03  0.340E-01    8.52       1.0  T
   3    -50.6882545 -0.121755E-03  0.840E-02    8.50       1.0  T
   4    -50.6882800 -0.255000E-04  0.200E-02    8.50       1.0  T
   5    -50.6882806 -0.606622E-06  0.831E-03    8.50       2.4  T
   6    -50.6882807 -0.117412E-06  0.445E-03    8.50       4.4  T
   7    -50.6882808 -0.278948E-07  0.108E-03    8.50      18.1  T
speedup  1.03
cpu  time for SCC    0.01 s
wall time for SCC    0.01 s
speedup  0.99
cpu  time for grad    0.01 s
wall time for grad    0.02 s
 E :    -50.42934210  G :  0.088404    pred/act E change: -0.417D-02  0.133D-02
Maxdispl :   0.1585   ||displ|| :   0.4348   Lambda : -0.202D-01
Largest |displ|/coords:  0.1585 (  10)  0.1509 (   5)  0.1454 (  22)
................................................................................
.............................. CYCLE   18 ......................................
................................................................................
   1    -50.6939795 -0.506940E+02  0.571E-01    8.53       0.0  T
   2    -50.6944727 -0.493233E-03  0.415E-01    8.55       1.0  T
   3    -50.6947733 -0.300554E-03  0.120E-01    8.57       1.0  T
   4    -50.6948130 -0.397719E-04  0.293E-02    8.58       1.0  T
   5    -50.6948146 -0.159666E-05  0.132E-02    8.57       1.5  T
   6    -50.6948148 -0.163378E-06  0.597E-03    8.57       3.3  T
   7    -50.6948149 -0.641889E-07  0.172E-03    8.57      11.4  T
speedup  1.01
cpu  time for SCC    0.01 s
wall time for SCC    0.01 s
speedup  0.98
cpu  time for grad    0.01 s
wall time for grad    0.02 s
 E :    -50.42779140  G :  0.111920    pred/act E change: -0.368D-02  0.155D-02
Maxdispl :   0.1533   ||displ|| :   0.3954   Lambda : -0.262D-01
Largest |displ|/coords:  0.1533 (  26)  0.1338 (  22)  0.1129 (  25)
................................................................................
.............................. CYCLE   19 ......................................
................................................................................
   1    -50.6982171 -0.506982E+02  0.514E-01    8.57       0.0  T
   2    -50.6985935 -0.376434E-03  0.378E-01    8.55       1.0  T
   3    -50.6988221 -0.228610E-03  0.111E-01    8.52       1.0  T
   4    -50.6988507 -0.285491E-04  0.374E-02    8.52       1.0  T
   5    -50.6988532 -0.247362E-05  0.103E-02    8.52       1.9  T
   6    -50.6988533 -0.107889E-06  0.619E-03    8.52       3.2  T
   7    -50.6988533 -0.598691E-07  0.161E-03    8.52      12.2  T
   8    -50.6988533 -0.440418E-08  0.415E-04    8.52      47.3  T
speedup  1.04
cpu  time for SCC    0.01 s
wall time for SCC    0.01 s
speedup  1.00
cpu  time for grad    0.02 s
wall time for grad    0.02 s
 E :    -50.43006378  G :  0.090701    pred/act E change: -0.120D-01 -0.227D-02
Maxdispl :   0.1438   ||displ|| :   0.3360   Lambda : -0.184D-01
Largest |displ|/coords:  0.1438 (  22)  0.1407 (  26)  0.1108 (  25)
................................................................................
.............................. CYCLE   20 ......................................
................................................................................
   1    -50.6863959 -0.506864E+02  0.384E-01    8.45       0.0  T
   2    -50.6866419 -0.246004E-03  0.284E-01    8.47       1.0  T
   3    -50.6867845 -0.142604E-03  0.940E-02    8.52       1.0  T
   4    -50.6868000 -0.154721E-04  0.352E-02    8.53       1.0  T
   5    -50.6868019 -0.193843E-05  0.792E-03    8.52       2.5  T
   6    -50.6868020 -0.121839E-06  0.452E-03    8.52       4.3  T
   7    -50.6868020 -0.255244E-07  0.155E-03    8.52      12.6  T
speedup  1.03
cpu  time for SCC    0.01 s
wall time for SCC    0.01 s
speedup  0.99
cpu  time for grad    0.01 s
wall time for grad    0.02 s
 E :    -50.43251718  G :  0.052541    pred/act E change: -0.152D-01 -0.245D-02
Maxdispl :   0.1110   ||displ|| :   0.3235   Lambda : -0.100D-01
Largest |displ|/coords:  0.1110 (  15)  0.0980 (  22)  0.0979 (  14)
................................................................................
.............................. CYCLE   21 ......................................
................................................................................
   1    -50.7150885 -0.507151E+02  0.308E-01    8.65       0.0  T
   2    -50.7152908 -0.202307E-03  0.235E-01    8.63       1.0  T
   3    -50.7154440 -0.153182E-03  0.901E-02    8.59       1.0  T
   4    -50.7154604 -0.164422E-04  0.356E-02    8.58       1.0  T
   5    -50.7154622 -0.181716E-05  0.889E-03    8.58       2.2  T
   6    -50.7154623 -0.747339E-07  0.442E-03    8.58       4.4  T
   7    -50.7154624 -0.585713E-07  0.163E-03    8.58      12.0  T
speedup  1.04
cpu  time for SCC    0.01 s
wall time for SCC    0.01 s
speedup  1.00
cpu  time for grad    0.01 s
wall time for grad    0.01 s
 E :    -50.43352899  G :  0.055320    pred/act E change: -0.102D-01 -0.101D-02
Maxdispl :   0.1810   ||displ|| :   0.4271   Lambda : -0.151D-01
Largest |displ|/coords:  0.1810 (  15)  0.1648 (  14)  0.1306 (  17)
................................................................................
.............................. CYCLE   22 ......................................
................................................................................
   1    -50.6817659 -0.506818E+02  0.384E-01    8.33       0.0  T
   2    -50.6824389 -0.673028E-03  0.283E-01    8.37       1.0  T
   3    -50.6828238 -0.384891E-03  0.134E-01    8.44       1.0  T
   4    -50.6828661 -0.422523E-04  0.530E-02    8.46       1.0  T
   5    -50.6828731 -0.705879E-05  0.146E-02    8.46       1.3  T
   6    -50.6828736 -0.439489E-06  0.765E-03    8.46       2.6  T
   7    -50.6828737 -0.878752E-07  0.247E-03    8.46       7.9  T
   8    -50.6828737 -0.119979E-07  0.815E-04    8.46      24.1  T
speedup  1.05
cpu  time for SCC    0.01 s
wall time for SCC    0.01 s
speedup  1.01
cpu  time for grad    0.02 s
wall time for grad    0.02 s
 E :    -50.43141878  G :  0.052925    pred/act E change: -0.552D-02  0.211D-02
Maxdispl :   0.1597   ||displ|| :   0.3751   Lambda : -0.115D-01
Largest |displ|/coords:  0.1597 (  14)  0.1403 (  15)  0.1099 (   9)
................................................................................
.............................. CYCLE   23 ......................................
................................................................................
   1    -50.7062147 -0.507062E+02  0.334E-01    8.64       0.0  T
   2    -50.7066134 -0.398722E-03  0.246E-01    8.62       1.0  T
   3    -50.7068716 -0.258187E-03  0.106E-01    8.58       1.0  T
   4    -50.7068994 -0.277382E-04  0.368E-02    8.57       1.0  T
   5    -50.7069025 -0.311963E-05  0.115E-02    8.57       1.7  T
   6    -50.7069026 -0.148440E-06  0.647E-03    8.57       3.0  T
   7    -50.7069027 -0.592424E-07  0.178E-03    8.57      11.0  T
   8    -50.7069027 -0.495184E-08  0.511E-04    8.57      38.4  T
speedup  1.05
cpu  time for SCC    0.01 s
wall time for SCC    0.01 s
speedup  0.99
cpu  time for grad    0.02 s
wall time for grad    0.02 s
 E :    -50.43569690  G :  0.036894    pred/act E change: -0.896D-02 -0.428D-02
Maxdispl :   0.0453   ||displ|| :   0.1266   Lambda : -0.217D-02
Largest |displ|/coords:  0.0453 (  12)  0.0429 (  23)  0.0392 (  14)
................................................................................
.............................. CYCLE   24 ......................................
................................................................................
   1    -50.7030159 -0.507030E+02  0.112E-01    8.53       0.0  T
   2    -50.7030446 -0.287342E-04  0.814E-02    8.53       1.0  T
   3    -50.7030620 -0.173631E-04  0.275E-02    8.54       1.0  T
   4    -50.7030641 -0.218918E-05  0.647E-03    8.54       3.0  T
   5    -50.7030642 -0.728828E-07  0.273E-03    8.54       7.2  T
   6    -50.7030642 -0.708235E-08  0.122E-03    8.54      16.1  T
speedup  0.86
cpu  time for SCC    0.00 s
wall time for SCC    0.01 s
speedup  0.99
cpu  time for grad    0.01 s
wall time for grad    0.01 s
 E :    -50.43671804  G :  0.011711    pred/act E change: -0.654D-02 -0.102D-02
Maxdispl :   0.0493   ||displ|| :   0.1203   Lambda : -0.464D-03
Largest |displ|/coords:  0.0493 (  13)  0.0461 (   8)  0.0336 (   4)
................................................................................
.............................. CYCLE   25 ......................................
................................................................................
   1    -50.7034022 -0.507034E+02  0.832E-02    8.53       0.0  T
   2    -50.7034089 -0.672865E-05  0.619E-02    8.53       1.0  T
   3    -50.7034132 -0.423933E-05  0.139E-02    8.52       1.4  T
   4    -50.7034140 -0.853018E-06  0.388E-03    8.52       5.1  T
   5    -50.7034140 -0.264768E-07  0.139E-03    8.52      14.1  T
   6    -50.7034140 -0.211482E-08  0.688E-04    8.52      28.5  T
speedup  1.03
cpu  time for SCC    0.01 s
wall time for SCC    0.01 s
speedup  0.99
cpu  time for grad    0.01 s
wall time for grad    0.01 s
 E :    -50.43701641  G :  0.014541    pred/act E change: -0.110D-02 -0.298D-03
Maxdispl :   0.0667   ||displ|| :   0.2280   Lambda : -0.874D-03
Largest |displ|/coords:  0.0667 (   8)  0.0611 (  13)  0.0596 (   4)

generating ANC from model Hessian ...
 Shifting diagonal of input Hessian by   4.585186160969676E-003
 Lowest  eigenvalues of input Hessian
   -0.000000   -0.000000    0.000000    0.000000    0.000000    0.000000
    0.005000    0.005168    0.005519    0.005972    0.006282    0.007439
    0.007480    0.008436    0.009256    0.010531    0.010688    0.013765
 Highest eigenvalues
    1.373713    1.380995    1.400188    2.273036    3.484736    3.741368
 
cpu  time for ANC gen    0.03 s
wall time for ANC gen    0.03 s
................................................................................
.............................. CYCLE   26 ......................................
................................................................................
   1    -50.7041385 -0.507041E+02  0.165E-01    8.51       0.0  T
   2    -50.7041772 -0.387237E-04  0.123E-01    8.50       1.0  T
   3    -50.7041963 -0.190937E-04  0.348E-02    8.48       1.0  T
   4    -50.7042013 -0.502662E-05  0.901E-03    8.48       2.2  T
   5    -50.7042015 -0.160811E-06  0.343E-03    8.48       5.7  T
   6    -50.7042015 -0.145332E-07  0.175E-03    8.48      11.2  T
   7    -50.7042015 -0.513607E-08  0.531E-04    8.48      36.9  T
   8    -50.7042015 -0.517417E-09  0.167E-04    8.48     117.4  T
speedup  0.92
cpu  time for SCC    0.01 s
wall time for SCC    0.01 s
speedup  0.96
cpu  time for grad    0.02 s
wall time for grad    0.02 s
 E :    -50.43760818  G :  0.017703    pred/act E change:  0.000D+00 -0.592D-03
Maxdispl :   0.1439   ||displ|| :   0.2721   Lambda : -0.111D-02
Largest |displ|/coords:  0.1439 (   2)  0.1293 (   9)  0.1082 (   6)
................................................................................
.............................. CYCLE   27 ......................................
................................................................................
   1    -50.7054131 -0.507054E+02  0.250E-01    8.48       0.0  T
   2    -50.7054203 -0.725116E-05  0.189E-01    8.48       1.0  T
   3    -50.7054278 -0.742022E-05  0.132E-02    8.49       1.5  T
   4    -50.7054285 -0.700751E-06  0.498E-03    8.49       3.9  T
   5    -50.7054285 -0.199779E-07  0.232E-03    8.49       8.5  T
   6    -50.7054285 -0.568532E-08  0.809E-04    8.49      24.2  T
speedup  1.03
cpu  time for SCC    0.01 s
wall time for SCC    0.01 s
speedup  1.05
cpu  time for grad    0.01 s
wall time for grad    0.01 s
 E :    -50.43849199  G :  0.014230    pred/act E change:  0.000D+00 -0.884D-03
Maxdispl :   0.2453   ||displ|| :   0.4396   Lambda : -0.132D-02
Largest |displ|/coords:  0.2453 (   2)  0.1619 (   6)  0.1564 (   3)
................................................................................
.............................. CYCLE   28 ......................................
................................................................................
   1    -50.7036326 -0.507036E+02  0.342E-01    8.48       0.0  T
   2    -50.7036538 -0.211248E-04  0.259E-01    8.48       1.0  T
   3    -50.7036701 -0.162970E-04  0.241E-02    8.49       1.0  T
   4    -50.7036733 -0.319958E-05  0.832E-03    8.49       2.4  T
   5    -50.7036733 -0.710490E-07  0.366E-03    8.49       5.4  T
   6    -50.7036733 -0.114633E-07  0.141E-03    8.49      13.9  T
   7    -50.7036733 -0.552038E-08  0.371E-04    8.49      52.9  T
speedup  0.90
cpu  time for SCC    0.01 s
wall time for SCC    0.01 s
speedup  0.97
cpu  time for grad    0.01 s
wall time for grad    0.02 s
 E :    -50.43925020  G :  0.026392    pred/act E change: -0.598D-03 -0.758D-03
Maxdispl :   0.1343   ||displ|| :   0.3181   Lambda : -0.141D-02
Largest |displ|/coords:  0.1343 (   2)  0.1272 (   4)  0.1241 (   9)
................................................................................
.............................. CYCLE   29 ......................................
................................................................................
   1    -50.7064864 -0.507065E+02  0.204E-01    8.47       0.0  T
   2    -50.7065212 -0.348401E-04  0.151E-01    8.47       1.0  T
   3    -50.7065389 -0.176965E-04  0.340E-02    8.48       1.0  T
   4    -50.7065436 -0.466724E-05  0.958E-03    8.48       2.0  T
   5    -50.7065438 -0.197185E-06  0.330E-03    8.48       5.9  T
   6    -50.7065438 -0.117781E-07  0.171E-03    8.48      11.5  T
speedup  1.03
cpu  time for SCC    0.01 s
wall time for SCC    0.01 s
speedup  0.98
cpu  time for grad    0.01 s
wall time for grad    0.01 s
 E :    -50.43979928  G :  0.017766    pred/act E change: -0.786D-03 -0.549D-03
Maxdispl :   0.1362   ||displ|| :   0.2278   Lambda : -0.902D-03
Largest |displ|/coords:  0.1362 (   2)  0.0869 (   3)  0.0626 (  11)
................................................................................
.............................. CYCLE   30 ......................................
................................................................................
   1    -50.7074753 -0.507075E+02  0.169E-01    8.49       0.0  T
   2    -50.7074939 -0.186577E-04  0.127E-01    8.49       1.0  T
   3    -50.7075025 -0.854240E-05  0.232E-02    8.49       1.0  T
   4    -50.7075060 -0.351696E-05  0.634E-03    8.49       3.1  T
   5    -50.7075061 -0.844334E-07  0.248E-03    8.49       7.9  T
   6    -50.7075061 -0.500243E-08  0.122E-03    8.49      16.1  T
speedup  0.86
cpu  time for SCC    0.00 s
wall time for SCC    0.01 s
speedup  0.98
cpu  time for grad    0.01 s
wall time for grad    0.01 s
 E :    -50.44049457  G :  0.015320    pred/act E change: -0.778D-03 -0.695D-03
Maxdispl :   0.2106   ||displ|| :   0.4274   Lambda : -0.115D-02
Largest |displ|/coords:  0.2106 (   2)  0.2001 (   3)  0.1358 (   9)
................................................................................
.............................. CYCLE   31 ......................................
................................................................................
   1    -50.7060719 -0.507061E+02  0.293E-01    8.51       0.0  T
   2    -50.7061613 -0.893976E-04  0.221E-01    8.51       1.0  T
   3    -50.7061958 -0.345034E-04  0.504E-02    8.50       1.0  T
   4    -50.7062117 -0.158683E-04  0.126E-02    8.50       1.6  T
   5    -50.7062120 -0.316051E-06  0.463E-03    8.50       4.2  T
   6    -50.7062120 -0.167029E-07  0.228E-03    8.50       8.6  T
   7    -50.7062120 -0.106852E-07  0.636E-04    8.50      30.8  T
speedup  1.04
cpu  time for SCC    0.01 s
wall time for SCC    0.01 s
speedup  0.98
cpu  time for grad    0.01 s
wall time for grad    0.02 s
 E :    -50.44101370  G :  0.034067    pred/act E change: -0.475D-03 -0.519D-03
Maxdispl :   0.0910   ||displ|| :   0.2103   Lambda : -0.149D-02
Largest |displ|/coords:  0.0910 (   3)  0.0746 (   6)  0.0614 (  18)
................................................................................
.............................. CYCLE   32 ......................................
................................................................................
   1    -50.7160843 -0.507161E+02  0.132E-01    8.54       0.0  T
   2    -50.7161387 -0.544546E-04  0.951E-02    8.54       1.0  T
   3    -50.7161618 -0.230419E-04  0.357E-02    8.53       1.0  T
   4    -50.7161654 -0.366190E-05  0.959E-03    8.53       2.0  T
   5    -50.7161656 -0.171471E-06  0.278E-03    8.53       7.1  T
   6    -50.7161656 -0.807250E-08  0.141E-03    8.53      13.9  T
speedup  1.03
cpu  time for SCC    0.01 s
wall time for SCC    0.01 s
speedup  1.06
cpu  time for grad    0.01 s
wall time for grad    0.01 s
 E :    -50.44157377  G :  0.033502    pred/act E change: -0.683D-03 -0.560D-03
Maxdispl :   0.1247   ||displ|| :   0.3039   Lambda : -0.174D-02
Largest |displ|/coords:  0.1247 (   2)  0.1111 (   3)  0.1063 (   4)
................................................................................
.............................. CYCLE   33 ......................................
................................................................................
   1    -50.7143928 -0.507144E+02  0.194E-01    8.52       0.0  T
   2    -50.7144502 -0.573786E-04  0.144E-01    8.52       1.0  T
   3    -50.7144703 -0.201314E-04  0.401E-02    8.50       1.0  T
   4    -50.7144780 -0.762982E-05  0.955E-03    8.51       2.1  T
   5    -50.7144781 -0.184328E-06  0.298E-03    8.50       6.6  T
   6    -50.7144781 -0.901114E-08  0.161E-03    8.50      12.1  T
speedup  0.86
cpu  time for SCC    0.00 s
wall time for SCC    0.01 s
speedup  0.98
cpu  time for grad    0.01 s
wall time for grad    0.01 s
 E :    -50.44289091  G :  0.016071    pred/act E change: -0.777D-03 -0.132D-02
Maxdispl :   0.2642   ||displ|| :   0.5794   Lambda : -0.223D-02
Largest |displ|/coords:  0.2642 (   2)  0.2500 (  14)  0.2397 (   3)
................................................................................
.............................. CYCLE   34 ......................................
................................................................................
   1    -50.7109727 -0.507110E+02  0.368E-01    8.51       0.0  T
   2    -50.7112307 -0.258064E-03  0.274E-01    8.49       1.0  T
   3    -50.7113221 -0.914239E-04  0.846E-02    8.47       1.0  T
   4    -50.7113525 -0.303686E-04  0.214E-02    8.47       1.0  T
   5    -50.7113533 -0.820100E-06  0.636E-03    8.47       3.1  T
   6    -50.7113534 -0.442420E-07  0.335E-03    8.47       5.9  T
   7    -50.7113534 -0.202245E-07  0.866E-04    8.47      22.6  T
   8    -50.7113534 -0.231567E-08  0.262E-04    8.47      74.9  T
speedup  1.05
cpu  time for SCC    0.01 s
wall time for SCC    0.01 s
speedup  0.98
cpu  time for grad    0.02 s
wall time for grad    0.02 s
 E :    -50.44401143  G :  0.029176    pred/act E change: -0.951D-03 -0.112D-02
Maxdispl :   0.1417   ||displ|| :   0.2938   Lambda : -0.188D-02
Largest |displ|/coords:  0.1417 (   6)  0.1128 (   5)  0.1012 (  11)
................................................................................
.............................. CYCLE   35 ......................................
................................................................................
   1    -50.7162731 -0.507163E+02  0.170E-01    8.41       0.0  T
   2    -50.7162960 -0.228896E-04  0.125E-01    8.41       1.0  T
   3    -50.7163067 -0.107335E-04  0.276E-02    8.40       1.0  T
   4    -50.7163096 -0.289289E-05  0.988E-03    8.40       2.0  T
   5    -50.7163097 -0.964041E-07  0.204E-03    8.40       9.6  T
   6    -50.7163097 -0.503171E-08  0.128E-03    8.40      15.3  T
speedup  0.85
cpu  time for SCC    0.00 s
wall time for SCC    0.01 s
speedup  0.98
cpu  time for grad    0.01 s
wall time for grad    0.01 s
 E :    -50.44501301  G :  0.018699    pred/act E change: -0.149D-02 -0.100D-02
Maxdispl :   0.2205   ||displ|| :   0.3665   Lambda : -0.168D-02
Largest |displ|/coords:  0.2205 (   6)  0.1379 (  14)  0.1053 (  15)
................................................................................
.............................. CYCLE   36 ......................................
................................................................................
   1    -50.7227072 -0.507227E+02  0.240E-01    8.35       0.0  T
   2    -50.7227440 -0.367855E-04  0.177E-01    8.34       1.0  T
   3    -50.7227626 -0.185495E-04  0.384E-02    8.34       1.0  T
   4    -50.7227678 -0.518556E-05  0.113E-02    8.34       1.7  T
   5    -50.7227679 -0.169183E-06  0.291E-03    8.34       6.7  T
   6    -50.7227679 -0.146616E-07  0.155E-03    8.34      12.6  T
speedup  1.03
cpu  time for SCC    0.01 s
wall time for SCC    0.01 s
speedup  0.98
cpu  time for grad    0.01 s
wall time for grad    0.01 s
 E :    -50.44502578  G :  0.026777    pred/act E change: -0.102D-02 -0.128D-04
Maxdispl :   0.1777   ||displ|| :   0.3184   Lambda : -0.206D-02
Largest |displ|/coords:  0.1777 (   3)  0.1522 (   2)  0.0840 (   5)
................................................................................
.............................. CYCLE   37 ......................................
................................................................................
   1    -50.7217589 -0.507218E+02  0.183E-01    8.33       0.0  T
   2    -50.7217942 -0.353236E-04  0.137E-01    8.34       1.0  T
   3    -50.7218108 -0.165943E-04  0.337E-02    8.33       1.0  T
   4    -50.7218158 -0.505027E-05  0.955E-03    8.33       2.1  T
   5    -50.7218160 -0.181146E-06  0.332E-03    8.33       5.9  T
   6    -50.7218160 -0.105123E-07  0.172E-03    8.33      11.4  T
speedup  1.03
cpu  time for SCC    0.01 s
wall time for SCC    0.01 s
speedup  1.05
cpu  time for grad    0.01 s
wall time for grad    0.01 s
 E :    -50.44589140  G :  0.018135    pred/act E change: -0.954D-03 -0.866D-03
Maxdispl :   0.0903   ||displ|| :   0.2228   Lambda : -0.928D-03
Largest |displ|/coords:  0.0903 (   1)  0.0832 (   5)  0.0749 (  12)
................................................................................
.............................. CYCLE   38 ......................................
................................................................................
   1    -50.7228367 -0.507228E+02  0.152E-01    8.34       0.0  T
   2    -50.7228590 -0.222944E-04  0.113E-01    8.34       1.0  T
   3    -50.7228687 -0.968981E-05  0.270E-02    8.35       1.0  T
   4    -50.7228718 -0.316286E-05  0.770E-03    8.35       2.5  T
   5    -50.7228720 -0.155789E-06  0.261E-03    8.35       7.5  T
   6    -50.7228720 -0.646202E-08  0.134E-03    8.35      14.7  T
speedup  1.03
cpu  time for SCC    0.01 s
wall time for SCC    0.01 s
speedup  0.97
cpu  time for grad    0.01 s
wall time for grad    0.01 s
 E :    -50.44620278  G :  0.012673    pred/act E change: -0.114D-02 -0.311D-03
Maxdispl :   0.1145   ||displ|| :   0.2605   Lambda : -0.623D-03
Largest |displ|/coords:  0.1145 (   6)  0.1104 (  11)  0.0885 (   3)
................................................................................
.............................. CYCLE   39 ......................................
................................................................................
   1    -50.7228926 -0.507229E+02  0.155E-01    8.33       0.0  T
   2    -50.7229018 -0.926767E-05  0.114E-01    8.33       1.0  T
   3    -50.7229075 -0.564364E-05  0.211E-02    8.33       1.0  T
   4    -50.7229086 -0.113836E-05  0.673E-03    8.33       2.9  T
   5    -50.7229087 -0.577726E-07  0.165E-03    8.33      11.9  T
   6    -50.7229087 -0.485379E-08  0.950E-04    8.33      20.6  T
speedup  0.86
cpu  time for SCC    0.00 s
wall time for SCC    0.01 s
speedup  0.97
cpu  time for grad    0.01 s
wall time for grad    0.01 s
 E :    -50.44657014  G :  0.007533    pred/act E change: -0.487D-03 -0.367D-03
Maxdispl :   0.1534   ||displ|| :   0.3718   Lambda : -0.611D-03
Largest |displ|/coords:  0.1534 (   6)  0.1479 (   2)  0.1359 (   3)
................................................................................
.............................. CYCLE   40 ......................................
................................................................................
   1    -50.7217909 -0.507218E+02  0.212E-01    8.26       0.0  T
   2    -50.7218048 -0.139123E-04  0.156E-01    8.26       1.0  T
   3    -50.7218146 -0.987837E-05  0.278E-02    8.27       1.0  T
   4    -50.7218161 -0.149958E-05  0.989E-03    8.26       2.0  T
   5    -50.7218163 -0.107365E-06  0.210E-03    8.26       9.4  T
   6    -50.7218163 -0.824078E-08  0.129E-03    8.26      15.3  T
speedup  1.02
cpu  time for SCC    0.01 s
wall time for SCC    0.01 s
speedup  1.03
cpu  time for grad    0.01 s
wall time for grad    0.01 s
 E :    -50.44693196  G :  0.013708    pred/act E change: -0.333D-03 -0.362D-03
Maxdispl :   0.1372   ||displ|| :   0.3072   Lambda : -0.515D-03
Largest |displ|/coords:  0.1372 (   9)  0.1218 (   3)  0.1100 (   1)
................................................................................
.............................. CYCLE   41 ......................................
................................................................................
   1    -50.7222727 -0.507223E+02  0.169E-01    8.25       0.0  T
   2    -50.7222811 -0.839379E-05  0.123E-01    8.25       1.0  T
   3    -50.7222855 -0.441946E-05  0.232E-02    8.26       1.0  T
   4    -50.7222866 -0.105671E-05  0.872E-03    8.26       2.2  T
   5    -50.7222866 -0.612168E-07  0.146E-03    8.26      13.5  T
   6    -50.7222866 -0.294577E-08  0.911E-04    8.26      21.5  T
speedup  1.03
cpu  time for SCC    0.01 s
wall time for SCC    0.01 s
speedup  0.97
cpu  time for grad    0.01 s
wall time for grad    0.01 s
 E :    -50.44729384  G :  0.014241    pred/act E change: -0.348D-03 -0.362D-03
Maxdispl :   0.2414   ||displ|| :   0.4359   Lambda : -0.745D-03
Largest |displ|/coords:  0.2414 (   1)  0.1531 (   2)  0.1333 (   3)
................................................................................
.............................. CYCLE   42 ......................................
................................................................................
   1    -50.7238870 -0.507239E+02  0.207E-01    8.28       0.0  T
   2    -50.7238980 -0.109502E-04  0.153E-01    8.28       1.0  T
   3    -50.7239066 -0.861892E-05  0.248E-02    8.29       1.0  T
   4    -50.7239078 -0.118532E-05  0.113E-02    8.29       1.7  T
   5    -50.7239079 -0.119291E-06  0.200E-03    8.29       9.8  T
   6    -50.7239079 -0.399709E-08  0.138E-03    8.29      14.3  T
speedup  1.03
cpu  time for SCC    0.01 s
wall time for SCC    0.01 s
speedup  1.01
cpu  time for grad    0.01 s
wall time for grad    0.01 s
 E :    -50.44777620  G :  0.019234    pred/act E change: -0.282D-03 -0.482D-03
Maxdispl :   0.1750   ||displ|| :   0.3691   Lambda : -0.795D-03
Largest |displ|/coords:  0.1750 (   1)  0.1134 (   3)  0.1040 (   2)
................................................................................
.............................. CYCLE   43 ......................................
................................................................................
   1    -50.7244315 -0.507244E+02  0.195E-01    8.34       0.0  T
   2    -50.7244441 -0.125864E-04  0.142E-01    8.34       1.0  T
   3    -50.7244516 -0.752648E-05  0.247E-02    8.34       1.0  T
   4    -50.7244531 -0.147268E-05  0.879E-03    8.34       2.2  T
   5    -50.7244532 -0.949934E-07  0.193E-03    8.34      10.1  T
   6    -50.7244532 -0.762337E-08  0.119E-03    8.34      16.5  T
speedup  1.02
cpu  time for SCC    0.01 s
wall time for SCC    0.01 s
speedup  1.03
cpu  time for grad    0.01 s
wall time for grad    0.01 s
 E :    -50.44836100  G :  0.017144    pred/act E change: -0.444D-03 -0.585D-03
Maxdispl :   0.3101   ||displ|| :   0.5788   Lambda : -0.119D-02
Largest |displ|/coords:  0.3101 (   1)  0.2197 (   3)  0.1786 (   6)
................................................................................
.............................. CYCLE   44 ......................................
................................................................................
   1    -50.7187172 -0.507187E+02  0.330E-01    8.33       0.0  T
   2    -50.7187368 -0.196163E-04  0.240E-01    8.33       1.0  T
   3    -50.7187545 -0.177091E-04  0.373E-02    8.33       1.0  T
   4    -50.7187560 -0.147519E-05  0.110E-02    8.33       1.8  T
   5    -50.7187562 -0.187883E-06  0.308E-03    8.33       6.4  T
   6    -50.7187562 -0.151596E-07  0.187E-03    8.33      10.5  T
   7    -50.7187562 -0.597673E-08  0.466E-04    8.33      42.1  T
speedup  1.00
cpu  time for SCC    0.01 s
wall time for SCC    0.01 s
speedup  1.03
cpu  time for grad    0.02 s
wall time for grad    0.02 s
 E :    -50.44912904  G :  0.021295    pred/act E change: -0.452D-03 -0.768D-03
Maxdispl :   0.1702   ||displ|| :   0.4720   Lambda : -0.241D-02
Largest |displ|/coords:  0.1702 (  14)  0.1679 (   1)  0.1445 (  23)
................................................................................
.............................. CYCLE   45 ......................................
................................................................................
   1    -50.7306468 -0.507306E+02  0.324E-01    8.76       0.0  T
   2    -50.7307118 -0.649731E-04  0.235E-01    8.73       1.0  T
   3    -50.7307468 -0.350387E-04  0.620E-02    8.69       1.0  T
   4    -50.7307534 -0.656141E-05  0.181E-02    8.69       1.1  T
   5    -50.7307539 -0.556023E-06  0.470E-03    8.69       4.2  T
   6    -50.7307540 -0.308454E-07  0.274E-03    8.69       7.1  T
speedup  1.03
cpu  time for SCC    0.01 s
wall time for SCC    0.01 s
speedup  0.97
cpu  time for grad    0.01 s
wall time for grad    0.01 s
 E :    -50.44925479  G :  0.031016    pred/act E change: -0.792D-03 -0.126D-03
Maxdispl :   0.1490   ||displ|| :   0.3669   Lambda : -0.222D-02
Largest |displ|/coords:  0.1490 (   3)  0.1277 (  11)  0.1225 (   6)
................................................................................
.............................. CYCLE   46 ......................................
................................................................................
   1    -50.7219572 -0.507220E+02  0.271E-01    8.38       0.0  T
   2    -50.7220224 -0.652166E-04  0.191E-01    8.40       1.0  T
   3    -50.7220471 -0.246739E-04  0.600E-02    8.42       1.0  T
   4    -50.7220517 -0.461537E-05  0.167E-02    8.41       1.2  T
   5    -50.7220521 -0.355986E-06  0.358E-03    8.41       5.5  T
   6    -50.7220521 -0.318133E-07  0.197E-03    8.41       9.9  T
speedup  1.00
cpu  time for SCC    0.01 s
wall time for SCC    0.01 s
speedup  1.02
cpu  time for grad    0.01 s
wall time for grad    0.01 s
 E :    -50.45006922  G :  0.023357    pred/act E change: -0.147D-02 -0.814D-03
Maxdispl :   0.1359   ||displ|| :   0.4008   Lambda : -0.166D-02
Largest |displ|/coords:  0.1359 (  14)  0.1196 (   3)  0.1188 (   4)
................................................................................
.............................. CYCLE   47 ......................................
................................................................................
   1    -50.7236182 -0.507236E+02  0.271E-01    8.51       0.0  T
   2    -50.7236468 -0.286156E-04  0.195E-01    8.51       1.0  T
   3    -50.7236676 -0.207238E-04  0.470E-02    8.51       1.0  T
   4    -50.7236707 -0.310144E-05  0.117E-02    8.52       1.7  T
   5    -50.7236709 -0.262099E-06  0.371E-03    8.52       5.3  T
   6    -50.7236710 -0.223200E-07  0.236E-03    8.52       8.3  T
speedup  1.03
cpu  time for SCC    0.01 s
wall time for SCC    0.01 s
speedup  1.04
cpu  time for grad    0.01 s
wall time for grad    0.01 s
 E :    -50.44984954  G :  0.025232    pred/act E change: -0.126D-02  0.220D-03
Maxdispl :   0.0537   ||displ|| :   0.1758   Lambda : -0.154D-02
Largest |displ|/coords:  0.0537 (   7)  0.0506 (   1)  0.0504 (  12)
................................................................................
.............................. CYCLE   48 ......................................
................................................................................
   1    -50.7288644 -0.507289E+02  0.132E-01    8.58       0.0  T
   2    -50.7288714 -0.702954E-05  0.977E-02    8.57       1.0  T
   3    -50.7288758 -0.433684E-05  0.170E-02    8.57       1.2  T
   4    -50.7288767 -0.947851E-06  0.474E-03    8.57       4.1  T
   5    -50.7288767 -0.376052E-07  0.176E-03    8.57      11.2  T
speedup  1.00
cpu  time for SCC    0.00 s
wall time for SCC    0.01 s
speedup  1.02
cpu  time for grad    0.01 s
wall time for grad    0.01 s
 E :    -50.45060107  G :  0.006887    pred/act E change: -0.964D-03 -0.752D-03
Maxdispl :   0.2057   ||displ|| :   0.4109   Lambda : -0.630D-03
Largest |displ|/coords:  0.2057 (   1)  0.1513 (  14)  0.1113 (   3)
................................................................................
.............................. CYCLE   49 ......................................
................................................................................
   1    -50.7262968 -0.507263E+02  0.238E-01    8.62       0.0  T
   2    -50.7263099 -0.131528E-04  0.175E-01    8.62       1.0  T
   3    -50.7263228 -0.128783E-04  0.281E-02    8.60       1.0  T
   4    -50.7263239 -0.108817E-05  0.991E-03    8.61       2.0  T
   5    -50.7263240 -0.140808E-06  0.288E-03    8.61       6.8  T
   6    -50.7263241 -0.107806E-07  0.175E-03    8.60      11.2  T
speedup  1.02
cpu  time for SCC    0.01 s
wall time for SCC    0.01 s
speedup  0.97
cpu  time for grad    0.01 s
wall time for grad    0.01 s
 E :    -50.45072912  G :  0.015445    pred/act E change: -0.796D-03 -0.128D-03
Maxdispl :   0.0972   ||displ|| :   0.1607   Lambda : -0.442D-03
Largest |displ|/coords:  0.0972 (   1)  0.0543 (  22)  0.0489 (   3)
................................................................................
.............................. CYCLE   50 ......................................
................................................................................
   1    -50.7289666 -0.507290E+02  0.922E-02    8.62       0.0  T
   2    -50.7289696 -0.305387E-05  0.672E-02    8.62       1.0  T
   3    -50.7289720 -0.243520E-05  0.133E-02    8.62       1.5  T
   4    -50.7289723 -0.286370E-06  0.437E-03    8.62       4.5  T
   5    -50.7289724 -0.297249E-07  0.115E-03    8.62      17.1  T
   6    -50.7289724 -0.209537E-08  0.687E-04    8.62      28.5  T
speedup  1.02
cpu  time for SCC    0.01 s
wall time for SCC    0.01 s
speedup  1.03
cpu  time for grad    0.01 s
wall time for grad    0.01 s
 E :    -50.45095391  G :  0.010462    pred/act E change: -0.368D-03 -0.225D-03
Maxdispl :   0.0760   ||displ|| :   0.1508   Lambda : -0.304D-03
Largest |displ|/coords:  0.0760 (   4)  0.0646 (   2)  0.0537 (   9)
................................................................................
.............................. CYCLE   51 ......................................
................................................................................
   1    -50.7303401 -0.507303E+02  0.763E-02    8.61       0.0  T
   2    -50.7303447 -0.452969E-05  0.562E-02    8.61       1.0  T
   3    -50.7303469 -0.225196E-05  0.149E-02    8.62       1.3  T
   4    -50.7303474 -0.431200E-06  0.432E-03    8.61       4.5  T
   5    -50.7303474 -0.430932E-07  0.116E-03    8.61      16.9  T
   6    -50.7303474 -0.171057E-08  0.723E-04    8.61      27.1  T
speedup  1.03
cpu  time for SCC    0.01 s
wall time for SCC    0.01 s
speedup  1.03
cpu  time for grad    0.01 s
wall time for grad    0.01 s
 E :    -50.45108530  G :  0.006635    pred/act E change: -0.227D-03 -0.131D-03
Maxdispl :   0.0870   ||displ|| :   0.1690   Lambda : -0.248D-03
Largest |displ|/coords:  0.0870 (   4)  0.0672 (  14)  0.0486 (   6)
................................................................................
.............................. CYCLE   52 ......................................
................................................................................
   1    -50.7300755 -0.507301E+02  0.101E-01    8.65       0.0  T
   2    -50.7300775 -0.201528E-05  0.755E-02    8.64       1.0  T
   3    -50.7300795 -0.200749E-05  0.900E-03    8.64       2.2  T
   4    -50.7300797 -0.196410E-06  0.378E-03    8.64       5.2  T
   5    -50.7300798 -0.158292E-07  0.104E-03    8.64      18.8  T
   6    -50.7300798 -0.138373E-08  0.625E-04    8.64      31.4  T
speedup  1.03
cpu  time for SCC    0.01 s
wall time for SCC    0.01 s
speedup  0.97
cpu  time for grad    0.01 s
wall time for grad    0.01 s
 E :    -50.45126595  G :  0.008376    pred/act E change: -0.155D-03 -0.181D-03
Maxdispl :   0.1307   ||displ|| :   0.3274   Lambda : -0.368D-03
Largest |displ|/coords:  0.1307 (   4)  0.1230 (   2)  0.1191 (  14)

generating ANC from model Hessian ...
 Shifting diagonal of input Hessian by   4.542895546860673E-003
 Lowest  eigenvalues of input Hessian
   -0.000000   -0.000000   -0.000000    0.000000    0.000000    0.000000
    0.005000    0.005425    0.005574    0.006449    0.007093    0.007468
    0.008519    0.009857    0.010499    0.011078    0.011659    0.012723
 Highest eigenvalues
    1.390119    1.400519    1.437835    2.301036    3.456968    3.753978
 
cpu  time for ANC gen    0.03 s
wall time for ANC gen    0.03 s
................................................................................
.............................. CYCLE   53 ......................................
................................................................................
   1    -50.7305043 -0.507305E+02  0.184E-01    8.66       0.0  T
   2    -50.7305109 -0.667403E-05  0.138E-01    8.66       1.0  T
   3    -50.7305179 -0.692523E-05  0.166E-02    8.65       1.2  T
   4    -50.7305184 -0.571449E-06  0.645E-03    8.65       3.0  T
   5    -50.7305185 -0.569780E-07  0.190E-03    8.65      10.3  T
   6    -50.7305185 -0.488141E-08  0.120E-03    8.65      16.4  T
   7    -50.7305185 -0.264397E-08  0.316E-04    8.65      62.0  T
   8    -50.7305185 -0.332562E-09  0.113E-04    8.65     174.0  T
speedup  1.04
cpu  time for SCC    0.01 s
wall time for SCC    0.01 s
speedup  1.00
cpu  time for grad    0.02 s
wall time for grad    0.02 s
 E :    -50.45146005  G :  0.010657    pred/act E change:  0.000D+00 -0.194D-03
Maxdispl :   0.0672   ||displ|| :   0.1562   Lambda : -0.436D-03
Largest |displ|/coords:  0.0672 (   5)  0.0471 (   2)  0.0451 (  19)
................................................................................
.............................. CYCLE   54 ......................................
................................................................................
   1    -50.7315907 -0.507316E+02  0.102E-01    8.63       0.0  T
   2    -50.7315932 -0.252036E-05  0.757E-02    8.64       1.0  T
   3    -50.7315948 -0.152079E-05  0.106E-02    8.64       1.9  T
   4    -50.7315951 -0.369957E-06  0.350E-03    8.64       5.6  T
   5    -50.7315951 -0.155230E-07  0.105E-03    8.64      18.7  T
   6    -50.7315951 -0.121394E-08  0.590E-04    8.64      33.2  T
speedup  0.86
cpu  time for SCC    0.00 s
wall time for SCC    0.01 s
speedup  0.97
cpu  time for grad    0.01 s
wall time for grad    0.01 s
 E :    -50.45177793  G :  0.005311    pred/act E change:  0.000D+00 -0.318D-03
Maxdispl :   0.1200   ||displ|| :   0.2960   Lambda : -0.469D-03
Largest |displ|/coords:  0.1200 (   2)  0.1141 (   1)  0.0961 (  19)
................................................................................
.............................. CYCLE   55 ......................................
................................................................................
   1    -50.7304695 -0.507305E+02  0.191E-01    8.59       0.0  T
   2    -50.7304795 -0.999093E-05  0.142E-01    8.60       1.0  T
   3    -50.7304848 -0.536092E-05  0.213E-02    8.61       1.0  T
   4    -50.7304865 -0.164627E-05  0.684E-03    8.60       2.9  T
   5    -50.7304865 -0.610438E-07  0.224E-03    8.60       8.7  T
   6    -50.7304865 -0.599142E-08  0.123E-03    8.60      16.0  T
speedup  0.83
cpu  time for SCC    0.00 s
wall time for SCC    0.01 s
speedup  0.95
cpu  time for grad    0.01 s
wall time for grad    0.01 s
 E :    -50.45212522  G :  0.004775    pred/act E change: -0.223D-03 -0.347D-03
Maxdispl :   0.1697   ||displ|| :   0.3930   Lambda : -0.396D-03
Largest |displ|/coords:  0.1697 (   2)  0.1458 (   4)  0.1386 (   1)
................................................................................
.............................. CYCLE   56 ......................................
................................................................................
   1    -50.7264369 -0.507264E+02  0.217E-01    8.53       0.0  T
   2    -50.7264491 -0.122151E-04  0.161E-01    8.54       1.0  T
   3    -50.7264557 -0.667065E-05  0.240E-02    8.55       1.0  T
   4    -50.7264576 -0.185979E-05  0.774E-03    8.55       2.5  T
   5    -50.7264577 -0.838630E-07  0.256E-03    8.55       7.7  T
   6    -50.7264577 -0.882934E-08  0.145E-03    8.55      13.5  T
speedup  0.98
cpu  time for SCC    0.01 s
wall time for SCC    0.01 s
speedup  1.01
cpu  time for grad    0.01 s
wall time for grad    0.01 s
 E :    -50.45227134  G :  0.012495    pred/act E change: -0.255D-03 -0.146D-03
Maxdispl :   0.0444   ||displ|| :   0.0792   Lambda : -0.269D-03
Largest |displ|/coords:  0.0444 (   5)  0.0283 (   1)  0.0277 (   4)
................................................................................
.............................. CYCLE   57 ......................................
................................................................................
   1    -50.7299933 -0.507300E+02  0.383E-02    8.57       0.0  T
   2    -50.7299938 -0.487720E-06  0.285E-02    8.57       1.0  T
   3    -50.7299941 -0.369645E-06  0.408E-03    8.57       4.8  T
   4    -50.7299942 -0.567377E-07  0.148E-03    8.57      13.3  T
   5    -50.7299942 -0.305998E-08  0.425E-04    8.57      46.2  T
speedup  1.00
cpu  time for SCC    0.00 s
wall time for SCC    0.01 s
speedup  1.02
cpu  time for grad    0.01 s
wall time for grad    0.01 s
 E :    -50.45242500  G :  0.005013    pred/act E change: -0.229D-03 -0.154D-03
Maxdispl :   0.0861   ||displ|| :   0.1577   Lambda : -0.155D-03
Largest |displ|/coords:  0.0861 (   4)  0.0677 (   1)  0.0526 (   6)
................................................................................
.............................. CYCLE   58 ......................................
................................................................................
   1    -50.7308655 -0.507309E+02  0.777E-02    8.57       0.0  T
   2    -50.7308670 -0.156424E-05  0.570E-02    8.57       1.0  T
   3    -50.7308681 -0.105779E-05  0.975E-03    8.57       2.0  T
   4    -50.7308683 -0.179003E-06  0.311E-03    8.57       6.3  T
   5    -50.7308683 -0.118254E-07  0.740E-04    8.57      26.5  T
   6    -50.7308683 -0.705910E-09  0.500E-04    8.57      39.2  T
speedup  1.03
cpu  time for SCC    0.01 s
wall time for SCC    0.01 s
speedup  1.03
cpu  time for grad    0.01 s
wall time for grad    0.01 s
 E :    -50.45253904  G :  0.004809    pred/act E change: -0.135D-03 -0.114D-03
Maxdispl :   0.1892   ||displ|| :   0.3735   Lambda : -0.255D-03
Largest |displ|/coords:  0.1892 (   4)  0.1830 (   1)  0.1496 (   2)
................................................................................
.............................. CYCLE   59 ......................................
................................................................................
   1    -50.7300447 -0.507300E+02  0.172E-01    8.55       0.0  T
   2    -50.7300500 -0.530350E-05  0.126E-01    8.55       1.0  T
   3    -50.7300547 -0.464390E-05  0.195E-02    8.55       1.0  T
   4    -50.7300550 -0.381488E-06  0.543E-03    8.55       3.6  T
   5    -50.7300551 -0.486006E-07  0.157E-03    8.55      12.5  T
   6    -50.7300551 -0.308590E-08  0.102E-03    8.55      19.2  T
speedup  1.02
cpu  time for SCC    0.01 s
wall time for SCC    0.01 s
speedup  1.03
cpu  time for grad    0.01 s
wall time for grad    0.01 s
 E :    -50.45268590  G :  0.009212    pred/act E change: -0.792D-04 -0.147D-03
Maxdispl :   0.0842   ||displ|| :   0.1720   Lambda : -0.192D-03
Largest |displ|/coords:  0.0842 (   2)  0.0697 (   1)  0.0678 (   4)
................................................................................
.............................. CYCLE   60 ......................................
................................................................................
   1    -50.7314775 -0.507315E+02  0.912E-02    8.57       0.0  T
   2    -50.7314795 -0.198394E-05  0.669E-02    8.56       1.0  T
   3    -50.7314812 -0.169410E-05  0.104E-02    8.56       1.9  T
   4    -50.7314813 -0.156498E-06  0.237E-03    8.56       8.3  T
   5    -50.7314813 -0.979155E-08  0.887E-04    8.56      22.1  T
speedup  1.00
cpu  time for SCC    0.01 s
wall time for SCC    0.01 s
speedup  1.02
cpu  time for grad    0.01 s
wall time for grad    0.01 s
 E :    -50.45278914  G :  0.006808    pred/act E change: -0.145D-03 -0.103D-03
Maxdispl :   0.1246   ||displ|| :   0.2502   Lambda : -0.210D-03
Largest |displ|/coords:  0.1246 (   4)  0.1191 (   2)  0.1036 (   1)
................................................................................
.............................. CYCLE   61 ......................................
................................................................................
   1    -50.7311087 -0.507311E+02  0.126E-01    8.56       0.0  T
   2    -50.7311114 -0.268551E-05  0.930E-02    8.56       1.0  T
   3    -50.7311141 -0.269627E-05  0.129E-02    8.56       1.5  T
   4    -50.7311143 -0.175975E-06  0.367E-03    8.56       5.3  T
   5    -50.7311143 -0.194343E-07  0.111E-03    8.56      17.6  T
   6    -50.7311143 -0.110432E-08  0.659E-04    8.56      29.8  T
speedup  1.03
cpu  time for SCC    0.01 s
wall time for SCC    0.01 s
speedup  0.97
cpu  time for grad    0.01 s
wall time for grad    0.01 s
 E :    -50.45293390  G :  0.006637    pred/act E change: -0.987D-04 -0.145D-03
Maxdispl :   0.1240   ||displ|| :   0.2368   Lambda : -0.269D-03
Largest |displ|/coords:  0.1240 (   2)  0.0824 (   4)  0.0806 (   1)
................................................................................
.............................. CYCLE   62 ......................................
................................................................................
   1    -50.7334932 -0.507335E+02  0.122E-01    8.60       0.0  T
   2    -50.7334967 -0.346923E-05  0.912E-02    8.59       1.0  T
   3    -50.7334993 -0.263193E-05  0.125E-02    8.59       1.6  T
   4    -50.7334997 -0.441625E-06  0.436E-03    8.59       4.5  T
   5    -50.7334998 -0.187543E-07  0.109E-03    8.59      18.0  T
   6    -50.7334998 -0.111920E-08  0.618E-04    8.59      31.8  T
speedup  1.00
cpu  time for SCC    0.01 s
wall time for SCC    0.01 s
speedup  1.03
cpu  time for grad    0.01 s
wall time for grad    0.01 s
 E :    -50.45308863  G :  0.008641    pred/act E change: -0.112D-03 -0.155D-03
Maxdispl :   0.2050   ||displ|| :   0.3914   Lambda : -0.258D-03
Largest |displ|/coords:  0.2050 (   2)  0.1522 (   1)  0.1505 (   4)
................................................................................
.............................. CYCLE   63 ......................................
................................................................................
   1    -50.7292100 -0.507292E+02  0.190E-01    8.53       0.0  T
   2    -50.7292172 -0.722042E-05  0.141E-01    8.53       1.0  T
   3    -50.7292239 -0.674130E-05  0.168E-02    8.54       1.2  T
   4    -50.7292246 -0.608477E-06  0.520E-03    8.54       3.8  T
   5    -50.7292246 -0.551779E-07  0.193E-03    8.54      10.2  T
   6    -50.7292246 -0.732220E-08  0.113E-03    8.54      17.4  T
speedup  1.02
cpu  time for SCC    0.01 s
wall time for SCC    0.01 s
speedup  1.03
cpu  time for grad    0.01 s
wall time for grad    0.01 s
 E :    -50.45312313  G :  0.016962    pred/act E change: -0.142D-03 -0.345D-04
Maxdispl :   0.0865   ||displ|| :   0.1519   Lambda : -0.489D-03
Largest |displ|/coords:  0.0865 (   1)  0.0574 (   4)  0.0525 (   5)
................................................................................
.............................. CYCLE   64 ......................................
[...]
 E :    -50.45807080  G :  0.000762    pred/act E change: -0.308D-05 -0.242D-05
Maxdispl :   0.0119   ||displ|| :   0.0197   Lambda : -0.183D-05
Largest |displ|/coords:  0.0119 (   3)  0.0065 (   8)  0.0056 (   2)
................................................................................
.............................. CYCLE   93 ......................................
................................................................................
   1    -50.7393114 -0.507393E+02  0.116E-02    8.82       0.0  T
   2    -50.7393115 -0.456842E-07  0.867E-03    8.82       2.3  T
   3    -50.7393115 -0.252703E-07  0.143E-03    8.82      13.7  T
   4    -50.7393115 -0.675754E-08  0.710E-04    8.82      27.6  T
   5    -50.7393115 -0.367827E-09  0.759E-05    8.82     258.4  T
speedup  1.02
cpu  time for SCC    0.00 s
wall time for SCC    0.00 s
speedup  1.06
cpu  time for grad    0.01 s
wall time for grad    0.01 s
 E :    -50.45807207  G :  0.000565    pred/act E change: -0.177D-05 -0.127D-05
Maxdispl :   0.0084   ||displ|| :   0.0163   Lambda : -0.111D-05
Largest |displ|/coords:  0.0084 (   3)  0.0058 (   2)  0.0058 (   1)
................................................................................
.............................. CYCLE   94 ......................................
................................................................................
   1    -50.7392640 -0.507393E+02  0.820E-03    8.82       0.0  T
   2    -50.7392641 -0.250114E-07  0.614E-03    8.82       3.2  T
   3    -50.7392641 -0.122969E-07  0.111E-03    8.82      17.7  T
   4    -50.7392641 -0.401634E-08  0.475E-04    8.82      41.3  T
   5    -50.7392641 -0.168527E-09  0.594E-05    8.82     330.3  T
speedup  1.02
cpu  time for SCC    0.00 s
wall time for SCC    0.00 s
speedup  0.99
cpu  time for grad    0.01 s
wall time for grad    0.01 s
 E :    -50.45807286  G :  0.000430    pred/act E change: -0.918D-06 -0.783D-06
Maxdispl :   0.0076   ||displ|| :   0.0151   Lambda : -0.789D-06
Largest |displ|/coords:  0.0076 (   1)  0.0064 (   2)  0.0054 (   4)
................................................................................
.............................. CYCLE   95 ......................................
................................................................................
   1    -50.7392312 -0.507392E+02  0.672E-03    8.82       0.0  T
   2    -50.7392312 -0.137210E-07  0.501E-03    8.82       3.9  T
   3    -50.7392312 -0.748282E-08  0.878E-04    8.82      22.3  T
   4    -50.7392312 -0.210073E-08  0.340E-04    8.82      57.7  T
speedup  1.00
cpu  time for SCC    0.00 s
wall time for SCC    0.00 s
speedup  1.05
cpu  time for grad    0.01 s
wall time for grad    0.01 s
 E :    -50.45807341  G :  0.000382    pred/act E change: -0.555D-06 -0.559D-06
Maxdispl :   0.0075   ||displ|| :   0.0141   Lambda : -0.606D-06
Largest |displ|/coords:  0.0075 (   1)  0.0068 (   2)  0.0064 (   4)
................................................................................
.............................. CYCLE   96 ......................................
................................................................................
   1    -50.7391887 -0.507392E+02  0.591E-03    8.82       0.0  T
   2    -50.7391887 -0.886731E-08  0.441E-03    8.82       4.4  T
   3    -50.7391887 -0.632049E-08  0.657E-04    8.82      29.9  T
   4    -50.7391887 -0.120912E-08  0.264E-04    8.82      74.4  T
speedup  1.03
cpu  time for SCC    0.00 s
wall time for SCC    0.00 s
speedup  0.97
cpu  time for grad    0.01 s
wall time for grad    0.01 s
 E :    -50.45807387  G :  0.000345    pred/act E change: -0.394D-06 -0.451D-06
Maxdispl :   0.0088   ||displ|| :   0.0165   Lambda : -0.544D-06
Largest |displ|/coords:  0.0088 (   1)  0.0084 (   2)  0.0069 (   4)
................................................................................
.............................. CYCLE   97 ......................................
................................................................................
   1    -50.7391713 -0.507392E+02  0.687E-03    8.81       0.0  T
   2    -50.7391713 -0.103391E-07  0.516E-03    8.81       3.8  T
   3    -50.7391713 -0.926187E-08  0.622E-04    8.82      31.5  T
   4    -50.7391713 -0.117844E-08  0.268E-04    8.81      73.2  T
speedup  1.00
cpu  time for SCC    0.00 s
wall time for SCC    0.00 s
speedup  0.98
cpu  time for grad    0.01 s
wall time for grad    0.01 s
 E :    -50.45807427  G :  0.000319    pred/act E change: -0.303D-06 -0.400D-06
Maxdispl :   0.0089   ||displ|| :   0.0159   Lambda : -0.441D-06
Largest |displ|/coords:  0.0089 (   2)  0.0070 (   1)  0.0066 (   4)
................................................................................
.............................. CYCLE   98 ......................................
................................................................................
   1    -50.7391609 -0.507392E+02  0.674E-03    8.81       0.0  T
   2    -50.7391609 -0.119066E-07  0.508E-03    8.81       3.9  T
   3    -50.7391609 -0.981329E-08  0.646E-04    8.81      30.4  T
   4    -50.7391609 -0.159749E-08  0.259E-04    8.81      75.7  T
speedup  1.03
cpu  time for SCC    0.00 s
wall time for SCC    0.00 s
speedup  0.99
cpu  time for grad    0.01 s
wall time for grad    0.01 s
 E :    -50.45807460  G :  0.000301    pred/act E change: -0.272D-06 -0.337D-06
Maxdispl :   0.0097   ||displ|| :   0.0172   Lambda : -0.421D-06
Largest |displ|/coords:  0.0097 (   2)  0.0069 (   1)  0.0067 (   3)
................................................................................
.............................. CYCLE   99 ......................................
................................................................................
   1    -50.7391823 -0.507392E+02  0.760E-03    8.81       0.0  T
   2    -50.7391823 -0.173779E-07  0.570E-03    8.81       3.4  T
   3    -50.7391823 -0.125641E-07  0.881E-04    8.81      22.3  T
   4    -50.7391823 -0.249123E-08  0.328E-04    8.81      59.7  T
speedup  1.00
cpu  time for SCC    0.00 s
wall time for SCC    0.00 s
speedup  0.99
cpu  time for grad    0.01 s
wall time for grad    0.01 s
 E :    -50.45807491  G :  0.000261    pred/act E change: -0.220D-06 -0.311D-06
Maxdispl :   0.0082   ||displ|| :   0.0133   Lambda : -0.293D-06
Largest |displ|/coords:  0.0082 (   2)  0.0064 (   3)  0.0043 (   4)
................................................................................
.............................. CYCLE  100 ......................................
................................................................................
   1    -50.7391941 -0.507392E+02  0.637E-03    8.82       0.0  T
   2    -50.7391941 -0.122424E-07  0.473E-03    8.82       4.1  T
   3    -50.7391941 -0.862191E-08  0.834E-04    8.82      23.5  T
   4    -50.7391941 -0.157624E-08  0.314E-04    8.82      62.4  T
speedup  0.98
cpu  time for SCC    0.00 s
wall time for SCC    0.00 s
speedup  0.99
cpu  time for grad    0.01 s
wall time for grad    0.01 s
 E :    -50.45807513  G :  0.000217    pred/act E change: -0.211D-06 -0.219D-06
Maxdispl :   0.0063   ||displ|| :   0.0103   Lambda : -0.207D-06
Largest |displ|/coords:  0.0063 (   2)  0.0053 (   3)  0.0026 (   1)
................................................................................
.............................. CYCLE  101 ......................................
................................................................................
   1    -50.7392085 -0.507392E+02  0.550E-03    8.82       0.0  T
   2    -50.7392086 -0.828713E-08  0.404E-03    8.82       4.9  T
   3    -50.7392086 -0.608272E-08  0.739E-04    8.82      26.5  T
   4    -50.7392086 -0.885656E-09  0.283E-04    8.82      69.4  T
speedup  1.00
cpu  time for SCC    0.00 s
wall time for SCC    0.00 s
speedup  1.00
cpu  time for grad    0.01 s
wall time for grad    0.01 s
 E :    -50.45807528  G :  0.000164    pred/act E change: -0.147D-06 -0.150D-06
Maxdispl :   0.0046   ||displ|| :   0.0069   Lambda : -0.121D-06
Largest |displ|/coords:  0.0046 (   2)  0.0033 (   3)  0.0014 (  18)
................................................................................
.............................. CYCLE  102 ......................................
................................................................................
   1    -50.7391969 -0.507392E+02  0.396E-03    8.82       0.0  T
   2    -50.7391969 -0.406696E-08  0.288E-03    8.82       6.8  T
   3    -50.7391969 -0.297899E-08  0.540E-04    8.82      36.3  T
   4    -50.7391969 -0.361418E-09  0.206E-04    8.82      95.1  T
speedup  1.00
cpu  time for SCC    0.00 s
wall time for SCC    0.00 s
speedup  1.00
cpu  time for grad    0.01 s
wall time for grad    0.01 s
 E :    -50.45807537  G :  0.000125    pred/act E change: -0.103D-06 -0.887D-07
Maxdispl :   0.0033   ||displ|| :   0.0052   Lambda : -0.820D-07
Largest |displ|/coords:  0.0033 (   2)  0.0021 (   3)  0.0014 (   7)

   *** GEOMETRY OPTIMIZATION CONVERGED AFTER 102 ITERATIONS ***

------------------------------------------------------------------------
 total energy gain (kcal):     -0.2067
------------------------------------------------------------------------
================
 final structure:
================
$coord
        1.23637095397856        1.84885723684640        3.51316141420725      S 
        3.22955814028184        2.11688426866553        1.63595137933699      O 
        1.74554767948418        2.88416878207521        5.93852244951066      O 
       -1.19920572910967        3.19057335635365        2.35891492766088      O 
        0.40079285918218       -0.84515669879925        3.64749049104583      O 
        1.18155273479205       -3.08096888549563        1.70874318381807      H 
       -0.55823593350082        4.21115234734790        0.91371790738922      H 
        1.40757202327522       -4.44525126122106        0.44169484564148      O 
        1.99283565568105       -5.89216146479880        1.35782747098339      H 
       -0.05468959206941        0.88497811568656       -4.49382380421549      O 
        0.17857505884028        0.95717555279236       -6.28766524351606      H 
        0.87657643649554        5.15259318799359       -1.56848967654139      O 
        2.38718451461065        4.47880101289008       -0.76534143284566      H 
        0.38596329593494        3.90038288202694       -2.82515428035095      H 
        3.95249310717150       -0.84869734487392       -2.30540477140437      O 
        1.57609367258359        0.21708747570942       -3.77139175073320      H 
        3.98626577049912        0.27972319126549       -0.82977647058081      H 
        3.42988748221526       -2.46721018822421       -1.62250685719677      H 
       -2.72548668815769       -2.86163893512151       -2.26984598992629      O 
       -3.81542878279357       -1.70977600768230        0.17926451524274      H 
       -1.97754716188707       -1.46603672370868       -3.23408688063017      H 
       -1.29015846473069       -3.79279787844793       -1.58878493040624      H 
       -4.11676862325447       -0.89700267418974        2.02434670621136      N 
       -5.44569792209348       -1.84276847451562        3.03064414481778      H 
       -4.52868167281054        0.97975264766445        1.87985512586706      H 
       -2.25536883351841       -0.95266353913304        2.93213754551022      H 
$end
 
 Bond Distances (Angstroems)
 ---------------------------
S1-O2=1.4558         S1-O3=1.4213         S1-O4=1.5932         S1-O5=1.4943         O2-S1=1.4558         O3-S1=1.4213         
O4-S1=1.5932         O4-H7=0.9958         O5-S1=1.4943         H6-O8=0.9925         H7-O4=0.9958         O8-H6=0.9925         
O8-H9=0.9577         H9-O8=0.9577         O10-H11=0.9580       O10-H16=1.0079       H11-O10=0.9580       O12-H13=0.9730       
O12-H14=0.9740       H13-O12=0.9730       H14-O12=0.9740       O15-H17=0.9832       O15-H18=0.9699       H16-O10=1.0079       
H17-O15=0.9832       H18-O15=0.9699       O19-H21=0.9810       O19-H22=0.9745       H20-N23=1.0788       H21-O19=0.9810       
H22-O19=0.9745       N23-H20=1.0788       N23-H24=1.0142       N23-H25=1.0196       N23-H26=1.0963       H24-N23=1.0142       
H25-N23=1.0196       H26-N23=1.0963       
 N  H  Rav=1.0522 sigma=0.0359  Rmin=1.0142  Rmax=1.0963     4
 O  H  Rav=0.9789 sigma=0.0147  Rmin=0.9577  Rmax=1.0079    11
 S  O  Rav=1.4911 sigma=0.0643  Rmin=1.4213  Rmax=1.5932     4
 
 selected bond angles (degree)
 --------------------
O3-S1-O2=116.19                O4-S1-O2=106.32                O4-S1-O3=109.13                O5-S1-O2=109.86                
O5-S1-O3=112.39                O5-S1-O4=101.77                H7-O4-S1=105.10                H9-O8-H6=106.17                
H16-O10-H11=106.23             
 
 selected dihedral angles (degree)
 ---------------------------------
H7-O4-S1-O2=345.47            H7-O4-S1-O3=111.51            H7-O4-S1-O5=230.47            
 
 CMA Distance (Angstroems)
 ---------------------------
R(CMA):  2.8674

========================================================================
 FINAL SINGLEPOINT CALCULATION ON OPTIMIZED GEOMETRY
========================================================================

 Ncao       : 65
 Nao        : 64
 Nshell     : 38
 Nel        : 80
 T(el)      :   300.0
 intcut     :    25.0
 scfconv/Eh :  0.100E-05
   qconv/e  :  0.100E-03
 intneglect :  0.100E-07
 broydamp   :      0.250
 iter      E             dE          RMSdq      gap      omega  full diag
   1    -50.7391969 -0.507392E+02  0.784E-05    8.82       0.0  T
   2    -50.7391969 -0.162714E-11  0.513E-05    8.82     382.5  T
   3    -50.7391969 -0.123634E-11  0.609E-06    8.82    3222.2  T
speedup  1.03
cpu  time for SCC    0.00 s
wall time for SCC    0.00 s

   *** convergence criteria satisfied after 3 iterations ***

          eigenvalues
 #    :          28         29         30         31         32         33         34         35
 occ. :        2.000      2.000      2.000      2.000      2.000      2.000      2.000      2.000
 eps  :       -13.486    -12.975    -12.596    -12.490    -12.446    -12.371    -12.167    -12.057
 #    :          36         37         38         39         40         41         42         43
 occ. :        2.000      2.000      2.000      2.000      2.000      0.000      0.000      0.000
 eps  :       -11.923    -11.857    -11.829    -11.492    -11.299     -2.484     -1.091     -0.217
 #    :          44         45         46         47         48         49         50         51
 occ. :        0.000      0.000      0.000      0.000      0.000      0.000      0.000      0.000
 eps  :         0.256      0.667      1.548      1.737      2.922      3.727      4.175      4.625


   #   Z            q   n(s)   n(p)   n(d)      C6AA      α(0)
   1  16 S      1.644  1.590  1.811  0.955    90.046    15.971
   2   8 O     -0.746  1.770  4.976  0.000    29.996     7.343
   3   8 O     -0.675  1.765  4.910  0.000    28.039     7.100
   4   8 O     -0.660  1.763  4.897  0.000    26.639     6.967
   5   8 O     -0.752  1.771  4.980  0.000    30.117     7.359
   6   1 H      0.337  0.663  0.000  0.000     0.619     1.236
   7   1 H      0.374  0.626  0.000  0.000     0.531     1.143
   8   8 O     -0.631  1.746  4.885  0.000    25.938     6.874
   9   1 H      0.286  0.714  0.000  0.000     0.763     1.372
  10   8 O     -0.641  1.760  4.881  0.000    26.201     6.908
  11   1 H      0.284  0.716  0.000  0.000     0.769     1.378
  12   8 O     -0.616  1.759  4.857  0.000    25.573     6.825
  13   1 H      0.321  0.679  0.000  0.000     0.662     1.278
  14   1 H      0.323  0.677  0.000  0.000     0.655     1.271
  15   8 O     -0.627  1.759  4.868  0.000    25.833     6.860
  16   1 H      0.343  0.657  0.000  0.000     0.605     1.222
  17   1 H      0.329  0.671  0.000  0.000     0.639     1.256
  18   1 H      0.314  0.686  0.000  0.000     0.681     1.297
  19   8 O     -0.614  1.757  4.857  0.000    25.520     6.818
  20   1 H      0.302  0.698  0.000  0.000     0.707     1.317
  21   1 H      0.331  0.669  0.000  0.000     0.634     1.251
  22   1 H      0.328  0.672  0.000  0.000     0.642     1.259
  23   7 N     -0.345  1.276  4.070  0.000    28.874     7.981
  24   1 H      0.228  0.772  0.000  0.000     0.974     1.546
  25   1 H      0.252  0.748  0.000  0.000     0.878     1.467
  26   1 H      0.309  0.691  0.000  0.000     0.685     1.296

 Mol. C6AA /au·bohr⁶  :       5450.499344
 Mol. C8AA /au·bohr⁸  :     118093.696432
 Mol. α(0) /au        :        106.593775

 
 Wiberg/Mayer (AO) data. WBOs > 0.1 written file <wbo>
 largest (>0.05) Wiberg bond orders for each atom
           total WBO             WBO to atom ...
     1  S   4.882    O    3 1.466    O    2 1.301    O    5 1.164    O    4 0.906
     2  O   1.722    S    1 1.301    O    3 0.114    O    5 0.095    O    4 0.079    H   17 0.059
     3  O   1.780    S    1 1.466    O    2 0.114    O    5 0.103    O    4 0.082
     4  O   1.924    S    1 0.906    H    7 0.728    O    3 0.082    O    2 0.079    O    5 0.065
     5  O   1.770    S    1 1.164    H   26 0.169    O    3 0.103    O    2 0.095    H    6 0.077    O    4 0.065    N   23 0.062
     6  H   0.886    O    8 0.804    O    5 0.077
     7  H   0.860    O    4 0.728    O   12 0.115
     8  O   1.858    H    9 0.909    H    6 0.804
     9  H   0.918    O    8 0.909
    10  O   1.874    H   11 0.914    H   16 0.767    H   21 0.057
    11  H   0.919    O   10 0.914
    12  O   1.916    H   13 0.859    H   14 0.853    H    7 0.115
    13  H   0.897    O   12 0.859
    14  H   0.895    O   12 0.853
    15  O   1.910    H   18 0.864    H   17 0.828    H   16 0.113
    16  H   0.882    O   10 0.767    O   15 0.113
    17  H   0.891    O   15 0.828    O    2 0.059
    18  H   0.902    O   15 0.864
    19  O   1.951    H   22 0.852    H   21 0.831    H   20 0.147    N   23 0.068
    20  H   0.909    N   23 0.758    O   19 0.147
    21  H   0.890    O   19 0.831    O   10 0.057
    22  H   0.892    O   19 0.852
    23  N   3.508    H   24 0.944    H   25 0.922    H   20 0.758    H   26 0.726    O   19 0.068    O    5 0.062
    24  H   0.948    N   23 0.944
    25  H   0.937    N   23 0.922
    26  H   0.905    N   23 0.726    O    5 0.169
 MOs/occ written to file <molden.input>
 
molecular dipole:
                 x           y           z       tot (Debye)
 q only:       -2.516      -1.799      -1.232
   full:       -2.117      -1.887      -1.019       7.659
molecular quadrupole (traceless):
                xx          xy          yy          xz          yz          zz
 q only:       10.133      -3.044      -1.128     -12.256     -12.390      -9.005
  q+dip:        9.125      -4.566      -1.899     -12.790     -13.776      -7.226
   full:        8.925      -4.818      -1.686     -12.518     -14.173      -7.239

SCC energy    :     -50.7391969
rep           :       0.2807068
ES            :       0.2699477
AES           :      -0.0707515
AXC           :      -0.0081887
disp          :      -0.0196636
XB            :       0.0000000
fix           :       0.0000000
total E       :     -50.4580754
atomizationE  :       4.9883795     3130.26
(atE without considering molecular charge,
 total energy contains solvation terms)
H-L gap (eV)  :          8.8156
optimized geometry written to: xtbopt.xyz


------------------------------------------------------------------------
 * finished run on 2019/09/16 at 11:18:14.132     
------------------------------------------------------------------------
 total:
 * wall-time:     0 d,  0 h,  0 min,  3.051 sec
 *  cpu-time:     0 d,  0 h,  0 min,  2.545 sec
 * ratio c/w:     0.834 speedup
 SCF:
 * wall-time:     0 d,  0 h,  0 min,  0.566 sec
 *  cpu-time:     0 d,  0 h,  0 min,  0.153 sec
 * ratio c/w:     0.270 speedup
 ANC optimizer:
 * wall-time:     0 d,  0 h,  0 min,  2.458 sec
 *  cpu-time:     0 d,  0 h,  0 min,  2.367 sec
 * ratio c/w:     0.963 speedup

