      -----------------------------------------------------------      
     |                   =====================                   |     
     |                           x T B                           |     
     |                   =====================                   |     
     |                         S. Grimme                         |     
     |          Mulliken Center for Theoretical Chemistry        |     
     |                    University of Bonn                     |     
     |                 Version 6.0.1 (SAW181210)                 |     
      -----------------------------------------------------------      

   This program is distributed in the hope that it will be useful,
   but WITHOUT ANY WARRANTY; without even the implied warranty of
   MERCHANTABILITY or FITNESS FOR A PARTICULAR PURPOSE.
   
   FOR NON-COMMERCIAL, ACADEMIA USE ONLY.
   
   Cite this work as:
   S. Grimme, C. Bannwarth, P. Shushkov, J. Comput. Theory Chem., 2017,
   13, 1989-2009.
   C. Bannwarth, S. Ehlert and S. Grimme., ChemRxiv, 2018, preprint.
   http://doi.org/10.26434/chemrxiv.7246238.v1
   
   for sTDA-xTB:
   S. Grimme and C. Bannwarth, J. Chem. Phys., 2016, 145, 054103.
   
   in the mass-spec context:
   V. Asgeirsson, C. Bauer and S. Grimme, Chem. Sci., 2017, 8, 4879.
   
   if GBSA is used:
   P. Shushkov, F. März and S. Grimme, unpublished.
   
   for ANC optimizer:
   S. Grimme, unpublished.
   Rational Function algorithm used in ANCopt:
   F. Eckert, P. Pulay, H.-J. Werner, J. Comput. Chem., 1997, 18, 1473.
   
   with help from (in alphabetical order)
   C. Bannwarth, F. Bohle, G. Brandenburg, E. Caldeweyher, M. Checinski,
   S. Dohm, S. Ehlert, S. Ehrlich, F. März, H. Neugebauer, J. Pisarek,
   P. Pracht, P. Shushkov, and S. Spicher.
   
 * started run on 2019/09/16 at 12:10:24.379     
========================================================================
 # omp threads = 1
========================================================================
number of atoms            : 26
number of electrons        : 80
charge                     : 0
spin                       : .0
first test random number   : .2101

########################################################################
# WARNING! Please study the warnings concerning your input carefully
#  - XTBPATH is not set, using XTBHOME instead
#  - the use of '-opt' is discouraged, please use '--opt' next time
#  - the use of '-chrg' is discouraged, please use '--chrg' next time
#  - the use of '-uhf' is discouraged, please use '--uhf' next time
########################################################################

           ------------------------------------------------- 
          |                 G F N 2 - x T B                 |
          | Geometry, Frequencies, Noncovalent interactions |
          |            JCTC 2018 parametrisation            |
           ------------------------------------------------- 
      method parameters     
 k(s)        :  1.8500
 k(p)        :  2.2300
 k(d)        :  2.2300
 k(f)        :  2.0000
 kEN (H0ij)  : -2.0000
 D4 a1       :  0.5200
 D4 a2       :  5.0000
 D4 s6       :  1.0000
 D4 s8       :  2.7000
 D4 s9       :  5.0000
 alphaj      :  2.0000


            Z     q(EN)     CN     RAES       Cart. coordinates
     1  S   6.0    0.58    4.32    4.27     2.16078    -2.50494    -1.76349
     2  O   6.0   -0.32    1.13    1.80     1.09181    -3.09850     0.70357
     3  O   6.0   -0.29    1.10    1.80     2.44583    -4.35972    -3.74242
     4  O   6.0   -0.25    2.05    1.83     0.64670    -0.03317    -2.83274
     5  O   6.0   -0.23    2.07    1.83     4.89551    -1.20255    -1.45898
     6  H   1.0    0.18    1.28    1.49     4.85631    -0.03054    -0.04081
     7  H   1.0    0.16    1.19    1.46    -1.07768    -0.13524    -2.19835
     8  O   6.0   -0.39    1.68    1.81     4.17683     1.82715     2.02828
     9  H   1.0    0.17    0.95    1.42     5.87098     2.33185     2.62735
    10  O   6.0   -0.40    1.68    1.81    -2.35795     3.23301     3.17046
    11  H   1.0    0.17    0.94    1.42    -3.61029     4.20857     4.15213
    12  O   6.0   -0.30    2.05    1.83    -3.66255     0.60147    -0.43967
    13  H   1.0    0.18    1.14    1.45    -3.37170     1.63978     1.02728
    14  H   1.0    0.14    0.97    1.43    -5.39521     0.05793    -0.30893
    15  O   6.0   -0.23    2.93    2.62     0.74325     0.20016     4.53896
    16  H   1.0    0.16    1.18    1.46    -0.67087     1.39841     4.30598
    17  H   1.0    0.14    0.99    1.43     0.35565    -1.48612     3.83451
    18  H   1.0    0.16    1.17    1.46     2.35272     0.88078     3.87726
    19  O   6.0   -0.23    2.92    2.59     0.93478     4.50969     0.29778
    20  H   1.0    0.16    1.18    1.46     2.47218     3.67748     0.95632
    21  H   1.0    0.13    0.97    1.43     0.53210     3.96120    -1.44206
    22  H   1.0    0.16    1.18    1.46    -0.52108     4.30201     1.45052
    23  N   5.0   -0.20    2.94    1.92    -3.18390    -4.58430    -4.30049
    24  H   1.0    0.10    0.99    1.43    -4.07792    -6.15996    -3.64546
    25  H   1.0    0.12    1.01    1.43    -1.45793    -5.17956    -4.91514
    26  H   1.0    0.10    0.99    1.43    -4.14834    -4.05491    -5.88184

  Z AO/shell   Hii/eV     exponent
  1     Wed Apr 25 08:07:45 CEST 2018   EN: 2.200 GM2: 0.406  GM3: 0.0800  RAES: 1.40
     1s    -10.707211    1.230000
  7     Wed Apr 25 08:07:45 CEST 2018   EN: 3.040 GM2: 0.461  GM3:-0.0640  RAES: 1.90
     2s    -16.686243    2.339881
     2p    -12.523956    2.014332
  8     Wed Apr 25 08:07:45 CEST 2018   EN: 3.440 GM2: 0.452  GM3:-0.0517  RAES: 1.80
     2s    -20.229985    2.439742
     2p    -15.503117    2.137023
 16     Tue Apr 24 11:44:34 CEST 2018   EN: 2.580 GM2: 0.340  GM3:-0.0502  RAES: 3.10
     3s    -20.029654    1.981333
     3p    -11.377694    2.025643
     3d     -0.420282    1.702555
 no old-style atom pair restraining (fixing) potential

molecular fragmentation (1/2 indicates fragments):
11111112222222222222222222
# atoms in fragment 1/2:     7    19
 fragment masses (1/2) :       98.07      107.11
CMA distance (Bohr)    :   5.063
constraining FC (au)   :  0.0500
           ------------------------------------------------- 
          |        Self-Consistent Charge Iterations        |
           ------------------------------------------------- 

 Ncao       : 65
 Nao        : 64
 Nshell     : 38
 Nel        : 80
 T(el)      :   300.0
 intcut     :    25.0
 scfconv/Eh :  0.100E-05
   qconv/e  :  0.100E-03
 intneglect :  0.100E-07
 broydamp   :      0.250
 iter      E             dE          RMSdq      gap      omega  full diag
   1    -50.5310875 -0.505311E+02  0.709E+00    7.88       0.0  T
   2    -50.5815302 -0.504427E-01  0.498E+00    7.04       1.0  T
   3    -50.6195816 -0.380515E-01  0.121E+00    5.61       1.0  T
   4    -50.6241658 -0.458420E-02  0.599E-01    5.89       1.0  T
   5    -50.6252710 -0.110517E-02  0.284E-01    5.89       1.0  T
   6    -50.6256722 -0.401206E-03  0.156E-01    5.83       1.0  T
   7    -50.6258141 -0.141888E-03  0.578E-02    5.82       1.0  T
   8    -50.6258361 -0.220034E-04  0.243E-02    5.84       1.0  T
   9    -50.6258393 -0.323268E-05  0.114E-02    5.85       1.7  T
  10    -50.6258399 -0.611857E-06  0.253E-03    5.85       7.8  T
  11    -50.6258400 -0.211228E-07  0.129E-03    5.85      15.2  T
  12    -50.6258400 -0.750205E-08  0.411E-04    5.85      47.7  T
  13    -50.6258400 -0.724633E-09  0.188E-04    5.85     104.3  T
speedup  1.01
cpu  time for SCC    0.02 s
wall time for SCC    0.02 s

   *** convergence criteria satisfied after 13 iterations ***

          eigenvalues
 #    :          28         29         30         31         32         33         34         35
 occ. :        2.000      2.000      2.000      2.000      2.000      2.000      2.000      2.000
 eps  :       -13.060    -12.928    -12.629    -12.317    -12.249    -12.044    -11.939    -11.576
 #    :          36         37         38         39         40         41         42         43
 occ. :        2.000      2.000      2.000      2.000      2.000      0.000      0.000      0.000
 eps  :       -11.093    -10.755    -10.714    -10.460    -10.223     -4.377     -1.497     -1.006
 #    :          44         45         46         47         48         49         50         51
 occ. :        0.000      0.000      0.000      0.000      0.000      0.000      0.000      0.000
 eps  :        -0.455      1.036      1.451      2.087      2.291      3.482      3.740      4.937


   #   Z            q   n(s)   n(p)   n(d)      C6AA      α(0)
   1  16 S      1.644  1.637  1.799  0.921    90.049    15.971
   2   8 O     -0.677  1.764  4.913  0.000    28.084     7.105
   3   8 O     -0.635  1.770  4.864  0.000    26.983     6.965
   4   8 O     -0.613  1.759  4.854  0.000    25.463     6.812
   5   8 O     -0.606  1.763  4.843  0.000    25.288     6.789
   6   1 H      0.380  0.620  0.000  0.000     0.520     1.130
   7   1 H      0.391  0.609  0.000  0.000     0.499     1.108
   8   8 O     -0.849  1.831  5.018  0.000    33.067     7.711
   9   1 H      0.218  0.782  0.000  0.000     1.029     1.594
  10   8 O     -0.854  1.823  5.030  0.000    33.204     7.728
  11   1 H      0.210  0.790  0.000  0.000     1.071     1.626
  12   8 O     -0.660  1.754  4.906  0.000    26.673     6.971
  13   1 H      0.337  0.663  0.000  0.000     0.616     1.232
  14   1 H      0.276  0.724  0.000  0.000     0.798     1.403
  15   8 O     -0.464  1.661  4.803  0.000    22.077     6.346
  16   1 H      0.401  0.599  0.000  0.000     0.477     1.083
  17   1 H      0.383  0.617  0.000  0.000     0.517     1.130
  18   1 H      0.400  0.600  0.000  0.000     0.481     1.088
  19   8 O     -0.458  1.664  4.795  0.000    21.951     6.328
  20   1 H      0.402  0.598  0.000  0.000     0.476     1.081
  21   1 H      0.372  0.628  0.000  0.000     0.541     1.155
  22   1 H      0.406  0.594  0.000  0.000     0.469     1.073
  23   7 N     -0.452  1.407  4.044  0.000    31.868     8.384
  24   1 H      0.142  0.858  0.000  0.000     1.458     1.892
  25   1 H      0.162  0.838  0.000  0.000     1.322     1.801
  26   1 H      0.143  0.857  0.000  0.000     1.453     1.888

 Mol. C6AA /au·bohr⁶  :       5528.007014
 Mol. C8AA /au·bohr⁸  :     119440.237631
 Mol. α(0) /au        :        107.391246

 
 Wiberg/Mayer (AO) data. WBOs > 0.1 written file <wbo>
 largest (>0.05) Wiberg bond orders for each atom
           total WBO             WBO to atom ...
     1  S   4.754    O    3 1.461    O    2 1.379    O    5 0.982    O    4 0.902
     2  O   1.753    S    1 1.379    O    3 0.137    O    5 0.100    O    4 0.097
     3  O   1.806    S    1 1.461    O    2 0.137    O    4 0.094    O    5 0.086
     4  O   1.960    S    1 0.902    H    7 0.767    O    2 0.097    O    3 0.094    O    5 0.058
     5  O   1.979    S    1 0.982    H    6 0.694    O    2 0.100    O    3 0.086    O    4 0.058
     6  H   0.856    O    5 0.694    O    8 0.147
     7  H   0.847    O    4 0.767    O   12 0.060
     8  O   1.632    H    9 0.943    H   20 0.185    H   18 0.173    H    6 0.147    O   19 0.059    O   15 0.057
     9  H   0.952    O    8 0.943
    10  O   1.606    H   11 0.939    H   22 0.185    H   16 0.181    H   13 0.121    O   19 0.058    O   15 0.058
    11  H   0.956    O   10 0.939
    12  O   1.813    H   14 0.914    H   13 0.762    H    7 0.060
    13  H   0.886    O   12 0.762    O   10 0.121
    14  H   0.924    O   12 0.914
    15  O   2.274    H   17 0.816    H   18 0.662    H   16 0.654    O   10 0.058    O    8 0.057
    16  H   0.839    O   15 0.654    O   10 0.181
    17  H   0.853    O   15 0.816
    18  H   0.840    O   15 0.662    O    8 0.173
    19  O   2.274    H   21 0.843    H   20 0.648    H   22 0.646    O    8 0.059    O   10 0.058
    20  H   0.838    O   19 0.648    O    8 0.185
    21  H   0.862    O   19 0.843
    22  H   0.835    O   19 0.646    O   10 0.185
    23  N   2.931    H   24 0.978    H   26 0.978    H   25 0.963
    24  H   0.980    N   23 0.978
    25  H   0.974    N   23 0.963
    26  H   0.980    N   23 0.978
 MOs/occ written to file <molden.input>
 
molecular dipole:
                 x           y           z       tot (Debye)
 q only:       -0.846       1.343       1.041
   full:       -1.184       1.144       0.928       4.804
molecular quadrupole (traceless):
                xx          xy          yy          xz          yz          zz
 q only:       -2.239       8.165       1.073       7.807      -6.879       1.165
  q+dip:        0.368       9.383       0.103       9.015      -2.114      -0.471
   full:        1.180       9.428      -0.257       9.152      -1.979      -0.923

SCC energy    :     -50.6258400
rep           :       0.2713573
ES            :       0.2779749
AES           :      -0.0483535
AXC           :      -0.0032228
disp          :      -0.0193334
XB            :       0.0000000
fix           :       0.0000000
total E       :     -50.3542135
atomizationE  :       4.8845176     3065.08
(atE without considering molecular charge,
 total energy contains solvation terms)
H-L gap (eV)  :          5.8467
           ------------------------------------------------- 
          |                 ===============                 |
          |                   A N C O P T                   |
          |                 ===============                 |
          |          Approximate Normal Coordinate          |
          |           Rational Function Optimizer           |
           ------------------------------------------------- 
dumping coords to <xtbopt.coord> and <xtbopt.log>
 optlevel               2
 Maxcycle             520
 Maxmicro              25
 Econv         1.000000000000000E-007
 Gconv         2.000000000000000E-004
 Maxdispl       1.00000000000000     
 Hlow          5.000000000000000E-003
 S6             20.0000000000000     
 Nvar               72

generating ANC from model Hessian ...
 Shifting diagonal of input Hessian by   5.187317913373387E-003
 Lowest  eigenvalues of input Hessian
    0.005000    0.005054   -0.000000   -0.000000    0.000000    0.000000
    0.000000    0.000000    0.005536    0.005725    0.006013    0.006080
    0.006351    0.006525    0.007101    0.007216    0.007417    0.007810
 Highest eigenvalues
    1.563058    1.592574    1.596661    1.952589    2.768420    3.590035
 
cpu  time for ANC gen    0.02 s
wall time for ANC gen    0.02 s
................................................................................
.............................. CYCLE    1 ......................................
................................................................................
   1    -50.6258400 -0.506258E+02  0.410E-05    5.85       0.0  T
   2    -50.6258400 -0.401457E-11  0.303E-05    5.85     647.1  T
   3    -50.6258400 -0.177636E-11  0.126E-05    5.85    1561.5  T
speedup  0.91
cpu  time for SCC    0.00 s
wall time for SCC    0.00 s
speedup  0.96
cpu  time for grad    0.01 s
wall time for grad    0.01 s
 E :    -50.35421343  G :  0.195585    pred/act E change:  0.000D+00  0.229D-07
Maxdispl :   0.1278   ||displ|| :   0.2865   Lambda : -0.371D-01
Largest |displ|/coords:  0.1278 (  54)  0.0831 (  44)  0.0750 (   4)
................................................................................
.............................. CYCLE    2 ......................................
................................................................................
   1    -50.6421878 -0.506422E+02  0.363E-01    6.25       0.0  T
   2    -50.6424279 -0.240054E-03  0.268E-01    6.23       1.0  T
   3    -50.6425395 -0.111659E-03  0.767E-02    6.21       1.0  T
   4    -50.6425558 -0.162538E-04  0.268E-02    6.22       1.0  T
   5    -50.6425580 -0.224017E-05  0.730E-03    6.22       2.7  T
   6    -50.6425581 -0.103426E-06  0.347E-03    6.22       5.7  T
   7    -50.6425581 -0.183732E-07  0.134E-03    6.22      14.6  T
speedup  1.06
cpu  time for SCC    0.01 s
wall time for SCC    0.01 s
speedup  1.01
cpu  time for grad    0.01 s
wall time for grad    0.01 s
 E :    -50.38251372  G :  0.107159    pred/act E change:  0.000D+00 -0.283D-01
Maxdispl :   0.1240   ||displ|| :   0.3392   Lambda : -0.168D-01
Largest |displ|/coords:  0.1240 (  10)  0.1105 (   9)  0.1050 (   4)
................................................................................
.............................. CYCLE    3 ......................................
................................................................................
   1    -50.6478841 -0.506479E+02  0.366E-01    6.55       0.0  T
   2    -50.6481917 -0.307585E-03  0.268E-01    6.53       1.0  T
   3    -50.6483158 -0.124124E-03  0.795E-02    6.51       1.0  T
   4    -50.6483372 -0.214354E-04  0.218E-02    6.52       1.0  T
   5    -50.6483387 -0.150896E-05  0.538E-03    6.52       3.6  T
   6    -50.6483388 -0.534642E-07  0.286E-03    6.52       6.9  T
speedup  1.00
cpu  time for SCC    0.01 s
wall time for SCC    0.01 s
speedup  1.03
cpu  time for grad    0.01 s
wall time for grad    0.01 s
 E :    -50.39599864  G :  0.069801    pred/act E change: -0.201D-01 -0.135D-01
Maxdispl :   0.1497   ||displ|| :   0.3777   Lambda : -0.897D-02
Largest |displ|/coords:  0.1497 (  10)  0.1421 (   9)  0.1192 (   4)
................................................................................
.............................. CYCLE    4 ......................................
................................................................................
   1    -50.6508214 -0.506508E+02  0.335E-01    6.75       0.0  T
   2    -50.6511079 -0.286504E-03  0.241E-01    6.75       1.0  T
   3    -50.6512205 -0.112549E-03  0.733E-02    6.74       1.0  T
   4    -50.6512395 -0.189552E-04  0.152E-02    6.74       1.3  T
   5    -50.6512399 -0.424634E-06  0.475E-03    6.74       4.1  T
   6    -50.6512399 -0.344169E-07  0.258E-03    6.74       7.6  T
speedup  1.00
cpu  time for SCC    0.01 s
wall time for SCC    0.01 s
speedup  0.96
cpu  time for grad    0.01 s
wall time for grad    0.01 s
 E :    -50.40333368  G :  0.049239    pred/act E change: -0.938D-02 -0.734D-02
Maxdispl :   0.2019   ||displ|| :   0.5463   Lambda : -0.103D-01
Largest |displ|/coords:  0.2019 (   4)  0.1885 (  19)  0.1782 (  12)
................................................................................
.............................. CYCLE    5 ......................................
................................................................................
   1    -50.6522311 -0.506522E+02  0.570E-01    7.21       0.0  T
   2    -50.6533105 -0.107941E-02  0.407E-01    7.20       1.0  T
   3    -50.6537223 -0.411784E-03  0.149E-01    7.20       1.0  T
   4    -50.6537743 -0.520075E-04  0.308E-02    7.22       1.0  T
   5    -50.6537767 -0.242344E-05  0.920E-03    7.22       2.1  T
   6    -50.6537768 -0.122691E-06  0.503E-03    7.22       3.9  T
   7    -50.6537769 -0.447397E-07  0.165E-03    7.22      11.9  T
speedup  1.00
cpu  time for SCC    0.01 s
wall time for SCC    0.01 s
speedup  1.03
cpu  time for grad    0.02 s
wall time for grad    0.02 s
 E :    -50.40842636  G :  0.047596    pred/act E change: -0.513D-02 -0.509D-02
Maxdispl :   0.2948   ||displ|| :   0.6499   Lambda : -0.107D-01
Largest |displ|/coords:  0.2948 (  11)  0.2407 (  14)  0.2397 (  13)
................................................................................
.............................. CYCLE    6 ......................................
................................................................................
   1    -50.6636189 -0.506636E+02  0.876E-01    7.42       0.0  T
   2    -50.6647054 -0.108654E-02  0.648E-01    7.44       1.0  T
   3    -50.6651109 -0.405478E-03  0.168E-01    7.48       1.0  T
   4    -50.6652552 -0.144260E-03  0.312E-02    7.48       1.0  T
   5    -50.6652569 -0.172512E-05  0.140E-02    7.47       1.4  T
   6    -50.6652571 -0.183789E-06  0.568E-03    7.47       3.5  T
   7    -50.6652571 -0.454787E-07  0.188E-03    7.47      10.4  T
speedup  1.01
cpu  time for SCC    0.01 s
wall time for SCC    0.01 s
speedup  0.96
cpu  time for grad    0.01 s
wall time for grad    0.02 s
 E :    -50.40281287  G :  0.108817    pred/act E change: -0.670D-02  0.561D-02
Maxdispl :   0.1439   ||displ|| :   0.4912   Lambda : -0.219D-01
Largest |displ|/coords:  0.1439 (  12)  0.1403 (  27)  0.1400 (  11)
................................................................................
.............................. CYCLE    7 ......................................
................................................................................
   1    -50.6443051 -0.506443E+02  0.757E-01    6.98       0.0  T
   2    -50.6458525 -0.154740E-02  0.547E-01    6.96       1.0  T
   3    -50.6464751 -0.622546E-03  0.184E-01    6.93       1.0  T
   4    -50.6465870 -0.111909E-03  0.344E-02    6.91       1.0  T
   5    -50.6465887 -0.175768E-05  0.143E-02    6.91       1.4  T
   6    -50.6465890 -0.293227E-06  0.575E-03    6.91       3.4  T
   7    -50.6465891 -0.625027E-07  0.200E-03    6.92       9.8  T
speedup  0.92
cpu  time for SCC    0.01 s
wall time for SCC    0.01 s
speedup  1.00
cpu  time for grad    0.01 s
wall time for grad    0.01 s
 E :    -50.40912054  G :  0.060564    pred/act E change: -0.757D-02 -0.631D-02
Maxdispl :   0.1993   ||displ|| :   0.4547   Lambda : -0.101D-01
Largest |displ|/coords:  0.1993 (  10)  0.1700 (   2)  0.1429 (   3)
................................................................................
.............................. CYCLE    8 ......................................
................................................................................
   1    -50.6697385 -0.506697E+02  0.541E-01    7.35       0.0  T
   2    -50.6702529 -0.514431E-03  0.395E-01    7.34       1.0  T
   3    -50.6704557 -0.202793E-03  0.110E-01    7.35       1.0  T
   4    -50.6705093 -0.535494E-04  0.211E-02    7.37       1.0  T
   5    -50.6705099 -0.660674E-06  0.887E-03    7.37       2.2  T
   6    -50.6705100 -0.876945E-07  0.383E-03    7.37       5.1  T
   7    -50.6705100 -0.311774E-07  0.117E-03    7.37      16.8  T
speedup  1.04
cpu  time for SCC    0.01 s
wall time for SCC    0.01 s
speedup  0.99
cpu  time for grad    0.01 s
wall time for grad    0.02 s
 E :    -50.40945350  G :  0.050597    pred/act E change: -0.136D-01 -0.333D-03
Maxdispl :   0.2185   ||displ|| :   0.3806   Lambda : -0.762D-02
Largest |displ|/coords:  0.2185 (  10)  0.1547 (   9)  0.1277 (   4)
................................................................................
.............................. CYCLE    9 ......................................
................................................................................
   1    -50.6521622 -0.506522E+02  0.471E-01    7.07       0.0  T
   2    -50.6523167 -0.154491E-03  0.350E-01    7.09       1.0  T
   3    -50.6523852 -0.684261E-04  0.651E-02    7.09       1.0  T
   4    -50.6524088 -0.236095E-04  0.153E-02    7.06       1.3  T
   5    -50.6524090 -0.264353E-06  0.633E-03    7.07       3.1  T
   6    -50.6524091 -0.422702E-07  0.237E-03    7.07       8.3  T
   7    -50.6524091 -0.196531E-07  0.784E-04    7.07      25.0  T
speedup  1.06
cpu  time for SCC    0.01 s
wall time for SCC    0.01 s
speedup  0.99
cpu  time for grad    0.01 s
wall time for grad    0.02 s
 E :    -50.41206077  G :  0.040263    pred/act E change: -0.607D-02 -0.261D-02
Maxdispl :   0.1615   ||displ|| :   0.3000   Lambda : -0.276D-02
Largest |displ|/coords:  0.1615 (  11)  0.1470 (   2)  0.1093 (   3)
................................................................................
.............................. CYCLE   10 ......................................
................................................................................
   1    -50.6579918 -0.506580E+02  0.265E-01    7.21       0.0  T
   2    -50.6580235 -0.317760E-04  0.197E-01    7.21       1.0  T
   3    -50.6580420 -0.184417E-04  0.302E-02    7.20       1.0  T
   4    -50.6580468 -0.483627E-05  0.798E-03    7.21       2.5  T
   5    -50.6580469 -0.865587E-07  0.376E-03    7.21       5.2  T
   6    -50.6580469 -0.170037E-07  0.140E-03    7.21      14.0  T
speedup  1.03
cpu  time for SCC    0.01 s
wall time for SCC    0.01 s
speedup  0.99
cpu  time for grad    0.01 s
wall time for grad    0.01 s
 E :    -50.41334324  G :  0.042290    pred/act E change: -0.436D-02 -0.128D-02
Maxdispl :   0.1776   ||displ|| :   0.3847   Lambda : -0.403D-02
Largest |displ|/coords:  0.1776 (   4)  0.1455 (   3)  0.1300 (   2)
................................................................................
.............................. CYCLE   11 ......................................
................................................................................
   1    -50.6732686 -0.506733E+02  0.304E-01    7.43       0.0  T
   2    -50.6735123 -0.243709E-03  0.217E-01    7.44       1.0  T
   3    -50.6736132 -0.100934E-03  0.718E-02    7.47       1.0  T
   4    -50.6736305 -0.172924E-04  0.136E-02    7.48       1.4  T
   5    -50.6736309 -0.340615E-06  0.567E-03    7.48       3.5  T
   6    -50.6736309 -0.355055E-07  0.261E-03    7.48       7.5  T
speedup  1.02
cpu  time for SCC    0.01 s
wall time for SCC    0.01 s
speedup  0.97
cpu  time for grad    0.01 s
wall time for grad    0.01 s
 E :    -50.41321988  G :  0.045238    pred/act E change: -0.150D-02  0.123D-03
Maxdispl :   0.1013   ||displ|| :   0.2221   Lambda : -0.383D-02
Largest |displ|/coords:  0.1013 (  10)  0.0924 (   9)  0.0849 (   4)
................................................................................
.............................. CYCLE   12 ......................................
................................................................................
   1    -50.6648298 -0.506648E+02  0.267E-01    7.39       0.0  T
   2    -50.6648745 -0.446885E-04  0.199E-01    7.40       1.0  T
   3    -50.6648966 -0.221196E-04  0.361E-02    7.41       1.0  T
   4    -50.6649033 -0.673532E-05  0.758E-03    7.40       2.6  T
   5    -50.6649034 -0.936763E-07  0.326E-03    7.40       6.0  T
   6    -50.6649034 -0.116444E-07  0.147E-03    7.40      13.4  T
speedup  1.03
cpu  time for SCC    0.01 s
wall time for SCC    0.01 s
speedup  1.04
cpu  time for grad    0.01 s
wall time for grad    0.01 s
 E :    -50.41584069  G :  0.023378    pred/act E change: -0.231D-02 -0.262D-02
Maxdispl :   0.1938   ||displ|| :   0.3885   Lambda : -0.217D-02
Largest |displ|/coords:  0.1938 (   4)  0.1354 (   6)  0.1328 (   9)
................................................................................
.............................. CYCLE   13 ......................................
................................................................................
   1    -50.6617625 -0.506618E+02  0.286E-01    7.39       0.0  T
   2    -50.6618127 -0.501996E-04  0.213E-01    7.40       1.0  T
   3    -50.6618383 -0.255681E-04  0.390E-02    7.42       1.0  T
   4    -50.6618457 -0.744669E-05  0.777E-03    7.41       2.5  T
   5    -50.6618458 -0.992924E-07  0.360E-03    7.41       5.5  T
   6    -50.6618458 -0.129916E-07  0.177E-03    7.41      11.1  T
speedup  1.05
cpu  time for SCC    0.01 s
wall time for SCC    0.01 s
speedup  0.91
cpu  time for grad    0.01 s
wall time for grad    0.01 s
 E :    -50.41697300  G :  0.040178    pred/act E change: -0.201D-02 -0.113D-02
Maxdispl :   0.1645   ||displ|| :   0.3931   Lambda : -0.221D-02
Largest |displ|/coords:  0.1645 (   4)  0.1383 (  20)  0.1376 (   1)
................................................................................
.............................. CYCLE   14 ......................................
................................................................................
   1    -50.6600489 -0.506600E+02  0.222E-01    7.42       0.0  T
   2    -50.6601087 -0.597914E-04  0.163E-01    7.44       1.0  T
   3    -50.6601384 -0.297595E-04  0.418E-02    7.48       1.0  T
   4    -50.6601451 -0.671392E-05  0.114E-02    7.47       1.7  T
   5    -50.6601455 -0.374514E-06  0.404E-03    7.47       4.9  T
   6    -50.6601455 -0.221069E-07  0.226E-03    7.47       8.7  T
speedup  1.03
cpu  time for SCC    0.01 s
wall time for SCC    0.01 s
speedup  1.05
cpu  time for grad    0.01 s
wall time for grad    0.01 s
 E :    -50.41836604  G :  0.042622    pred/act E change: -0.125D-02 -0.139D-02
Maxdispl :   0.1995   ||displ|| :   0.4572   Lambda : -0.416D-02
Largest |displ|/coords:  0.1995 (   2)  0.1780 (   4)  0.1761 (   1)
................................................................................
.............................. CYCLE   15 ......................................
................................................................................
   1    -50.6729900 -0.506730E+02  0.249E-01    7.44       0.0  T
   2    -50.6731313 -0.141328E-03  0.184E-01    7.47       1.0  T
   3    -50.6732020 -0.706618E-04  0.661E-02    7.51       1.0  T
   4    -50.6732129 -0.109370E-04  0.212E-02    7.52       1.0  T
   5    -50.6732141 -0.116158E-05  0.581E-03    7.52       3.4  T
   6    -50.6732141 -0.378917E-07  0.298E-03    7.52       6.6  T
speedup  1.05
cpu  time for SCC    0.01 s
wall time for SCC    0.01 s
speedup  0.97
cpu  time for grad    0.01 s
wall time for grad    0.01 s
 E :    -50.42010227  G :  0.031774    pred/act E change: -0.128D-02 -0.174D-02
Maxdispl :   0.1952   ||displ|| :   0.5126   Lambda : -0.333D-02
Largest |displ|/coords:  0.1952 (   6)  0.1850 (   1)  0.1668 (   4)
................................................................................
.............................. CYCLE   16 ......................................
................................................................................
   1    -50.6693826 -0.506694E+02  0.312E-01    7.69       0.0  T
   2    -50.6694844 -0.101772E-03  0.232E-01    7.72       1.0  T
   3    -50.6695327 -0.483622E-04  0.540E-02    7.78       1.0  T
   4    -50.6695471 -0.143328E-04  0.136E-02    7.78       1.4  T
   5    -50.6695475 -0.419708E-06  0.545E-03    7.78       3.6  T
   6    -50.6695475 -0.314615E-07  0.300E-03    7.78       6.5  T
speedup  1.03
cpu  time for SCC    0.01 s
wall time for SCC    0.01 s
speedup  1.05
cpu  time for grad    0.01 s
wall time for grad    0.01 s
 E :    -50.42266234  G :  0.034326    pred/act E change: -0.252D-02 -0.256D-02
Maxdispl :   0.2318   ||displ|| :   0.5485   Lambda : -0.423D-02
Largest |displ|/coords:  0.2318 (   9)  0.1914 (   6)  0.1838 (  22)
................................................................................
.............................. CYCLE   17 ......................................
................................................................................
   1    -50.6706652 -0.506707E+02  0.397E-01    8.05       0.0  T
   2    -50.6708508 -0.185603E-03  0.295E-01    8.10       1.0  T
   3    -50.6709498 -0.989463E-04  0.726E-02    8.19       1.0  T
   4    -50.6709746 -0.248315E-04  0.193E-02    8.18       1.0  T
   5    -50.6709754 -0.788970E-06  0.848E-03    8.17       2.3  T
   6    -50.6709755 -0.802329E-07  0.443E-03    8.17       4.4  T
   7    -50.6709755 -0.308088E-07  0.103E-03    8.17      19.0  T
speedup  1.06
cpu  time for SCC    0.01 s
wall time for SCC    0.01 s
speedup  1.00
cpu  time for grad    0.01 s
wall time for grad    0.01 s
 E :    -50.42516998  G :  0.054240    pred/act E change: -0.210D-02 -0.251D-02
Maxdispl :   0.1484   ||displ|| :   0.3217   Lambda : -0.404D-02
Largest |displ|/coords:  0.1484 (   6)  0.1257 (   4)  0.0998 (   2)
................................................................................
.............................. CYCLE   18 ......................................
................................................................................
   1    -50.6708236 -0.506708E+02  0.206E-01    8.11       0.0  T
   2    -50.6708904 -0.667892E-04  0.154E-01    8.12       1.0  T
   3    -50.6709322 -0.417689E-04  0.492E-02    8.15       1.0  T
   4    -50.6709396 -0.747125E-05  0.146E-02    8.16       1.3  T
   5    -50.6709402 -0.547889E-06  0.516E-03    8.15       3.8  T
   6    -50.6709402 -0.331181E-07  0.254E-03    8.15       7.7  T
speedup  1.03
cpu  time for SCC    0.01 s
wall time for SCC    0.01 s
speedup  1.03
cpu  time for grad    0.01 s
wall time for grad    0.01 s
 E :    -50.42712927  G :  0.054306    pred/act E change: -0.275D-02 -0.196D-02
Maxdispl :   0.1356   ||displ|| :   0.3187   Lambda : -0.592D-02
Largest |displ|/coords:  0.1356 (   7)  0.1174 (   3)  0.1040 (   6)
................................................................................
.............................. CYCLE   19 ......................................
................................................................................
   1    -50.6807710 -0.506808E+02  0.303E-01    8.25       0.0  T
   2    -50.6809043 -0.133207E-03  0.219E-01    8.29       1.0  T
   3    -50.6809731 -0.688207E-04  0.606E-02    8.36       1.0  T
   4    -50.6809847 -0.116593E-04  0.187E-02    8.34       1.0  T
   5    -50.6809856 -0.857584E-06  0.724E-03    8.34       2.7  T
   6    -50.6809856 -0.520499E-07  0.367E-03    8.34       5.3  T
   7    -50.6809857 -0.225396E-07  0.841E-04    8.34      23.3  T
speedup  1.04
cpu  time for SCC    0.01 s
wall time for SCC    0.01 s
speedup  0.98
cpu  time for grad    0.01 s
wall time for grad    0.02 s
 E :    -50.42896095  G :  0.058497    pred/act E change: -0.223D-02 -0.183D-02
Maxdispl :   0.1632   ||displ|| :   0.3449   Lambda : -0.714D-02
Largest |displ|/coords:  0.1632 (   7)  0.0923 (  11)  0.0876 (   3)
................................................................................
.............................. CYCLE   20 ......................................
................................................................................
   1    -50.6836574 -0.506837E+02  0.329E-01    8.44       0.0  T
   2    -50.6837799 -0.122438E-03  0.239E-01    8.41       1.0  T
   3    -50.6838438 -0.639254E-04  0.607E-02    8.36       1.0  T
   4    -50.6838575 -0.137032E-04  0.179E-02    8.38       1.1  T
   5    -50.6838581 -0.590291E-06  0.666E-03    8.38       2.9  T
   6    -50.6838581 -0.426369E-07  0.372E-03    8.38       5.3  T
   7    -50.6838581 -0.221008E-07  0.672E-04    8.38      29.2  T
speedup  1.04
cpu  time for SCC    0.01 s
wall time for SCC    0.01 s
speedup  0.99
cpu  time for grad    0.01 s
wall time for grad    0.02 s
 E :    -50.43166165  G :  0.054922    pred/act E change: -0.326D-02 -0.270D-02
Maxdispl :   0.1736   ||displ|| :   0.2875   Lambda : -0.543D-02
Largest |displ|/coords:  0.1736 (   6)  0.1235 (   7)  0.0659 (  18)
................................................................................
.............................. CYCLE   21 ......................................
................................................................................
   1    -50.6867870 -0.506868E+02  0.240E-01    8.30       0.0  T
   2    -50.6868747 -0.877685E-04  0.172E-01    8.34       1.0  T
   3    -50.6869143 -0.395534E-04  0.494E-02    8.40       1.0  T
   4    -50.6869212 -0.691014E-05  0.130E-02    8.39       1.5  T
   5    -50.6869217 -0.463143E-06  0.513E-03    8.39       3.8  T
   6    -50.6869217 -0.305742E-07  0.280E-03    8.39       7.0  T
speedup  0.86
cpu  time for SCC    0.00 s
wall time for SCC    0.01 s
speedup  0.98
cpu  time for grad    0.01 s
wall time for grad    0.01 s
 E :    -50.43469014  G :  0.038981    pred/act E change: -0.399D-02 -0.303D-02
Maxdispl :   0.1394   ||displ|| :   0.3372   Lambda : -0.447D-02
Largest |displ|/coords:  0.1394 (  22)  0.1230 (  21)  0.1060 (   6)
................................................................................
.............................. CYCLE   22 ......................................
................................................................................
   1    -50.6983289 -0.506983E+02  0.235E-01    8.48       0.0  T
   2    -50.6984823 -0.153472E-03  0.176E-01    8.49       1.0  T
   3    -50.6985625 -0.801218E-04  0.722E-02    8.52       1.0  T
   4    -50.6985734 -0.109021E-04  0.243E-02    8.52       1.0  T
   5    -50.6985749 -0.153578E-05  0.694E-03    8.52       2.8  T
   6    -50.6985749 -0.418827E-07  0.405E-03    8.52       4.8  T
   7    -50.6985750 -0.174642E-07  0.821E-04    8.52      23.9  T
speedup  1.03
cpu  time for SCC    0.01 s
wall time for SCC    0.01 s
speedup  0.97
cpu  time for grad    0.01 s
wall time for grad    0.02 s
 E :    -50.43842935  G :  0.041360    pred/act E change: -0.294D-02 -0.374D-02
Maxdispl :   0.1936   ||displ|| :   0.5904   Lambda : -0.972D-02
Largest |displ|/coords:  0.1936 (  22)  0.1793 (  21)  0.1766 (  25)
................................................................................
.............................. CYCLE   23 ......................................
................................................................................
   1    -50.7242975 -0.507243E+02  0.444E-01    8.60       0.0  T
   2    -50.7247407 -0.443141E-03  0.332E-01    8.57       1.0  T
   3    -50.7250197 -0.279010E-03  0.121E-01    8.52       1.0  T
   4    -50.7250577 -0.380364E-04  0.382E-02    8.53       1.0  T
   5    -50.7250609 -0.318057E-05  0.132E-02    8.54       1.5  T
   6    -50.7250611 -0.193653E-06  0.810E-03    8.53       2.4  T
   7    -50.7250611 -0.610142E-07  0.152E-03    8.53      12.9  T
   8    -50.7250611 -0.621763E-08  0.583E-04    8.53      33.6  T
speedup  1.01
cpu  time for SCC    0.01 s
wall time for SCC    0.01 s
speedup  1.04
cpu  time for grad    0.02 s
wall time for grad    0.02 s
 E :    -50.44284847  G :  0.054492    pred/act E change: -0.249D-02 -0.442D-02
Maxdispl :   0.1093   ||displ|| :   0.2544   Lambda : -0.694D-02
Largest |displ|/coords:  0.1093 (   6)  0.0928 (  18)  0.0834 (  30)
................................................................................
.............................. CYCLE   24 ......................................
................................................................................
   1    -50.7010015 -0.507010E+02  0.228E-01    8.32       0.0  T
   2    -50.7011602 -0.158668E-03  0.168E-01    8.35       1.0  T
   3    -50.7012576 -0.973497E-04  0.645E-02    8.38       1.0  T
   4    -50.7012685 -0.109285E-04  0.228E-02    8.37       1.0  T
   5    -50.7012696 -0.107194E-05  0.733E-03    8.37       2.7  T
   6    -50.7012696 -0.756640E-07  0.365E-03    8.37       5.4  T
   7    -50.7012696 -0.122934E-07  0.960E-04    8.37      20.4  T
speedup  1.03
cpu  time for SCC    0.01 s
wall time for SCC    0.01 s
speedup  0.98
cpu  time for grad    0.01 s
wall time for grad    0.02 s
 E :    -50.44348507  G :  0.041376    pred/act E change: -0.656D-02 -0.637D-03
Maxdispl :   0.0911   ||displ|| :   0.2337   Lambda : -0.401D-02
Largest |displ|/coords:  0.0911 (  21)  0.0719 (  25)  0.0594 (   1)
................................................................................
.............................. CYCLE   25 ......................................
................................................................................
   1    -50.7127072 -0.507127E+02  0.177E-01    8.43       0.0  T
   2    -50.7127758 -0.686144E-04  0.133E-01    8.43       1.0  T
   3    -50.7128172 -0.413508E-04  0.530E-02    8.43       1.0  T
   4    -50.7128231 -0.594860E-05  0.185E-02    8.43       1.1  T
   5    -50.7128238 -0.680274E-06  0.523E-03    8.43       3.7  T
   6    -50.7128238 -0.320123E-07  0.261E-03    8.43       7.5  T
speedup  1.03
cpu  time for SCC    0.01 s
wall time for SCC    0.01 s
speedup  1.05
cpu  time for grad    0.01 s
wall time for grad    0.01 s
 E :    -50.44628906  G :  0.024365    pred/act E change: -0.369D-02 -0.280D-02
Maxdispl :   0.0870   ||displ|| :   0.3256   Lambda : -0.271D-02
Largest |displ|/coords:  0.0870 (  29)  0.0854 (   7)  0.0790 (  31)

generating ANC from model Hessian ...
 Shifting diagonal of input Hessian by   4.774857414438951E-003
 Lowest  eigenvalues of input Hessian
   -0.000000   -0.000000   -0.000000   -0.000000   -0.000000    0.000000
    0.005000    0.005176    0.005292    0.005847    0.006019    0.006139
    0.006772    0.007620    0.007861    0.008797    0.009160    0.010441
 Highest eigenvalues
    1.396748    1.402329    1.425412    2.639411    3.388119    3.768662
 
cpu  time for ANC gen    0.02 s
wall time for ANC gen    0.02 s
................................................................................
.............................. CYCLE   26 ......................................
................................................................................
   1    -50.7249443 -0.507249E+02  0.246E-01    8.46       0.0  T
   2    -50.7250109 -0.666015E-04  0.185E-01    8.44       1.0  T
   3    -50.7250571 -0.462083E-04  0.499E-02    8.39       1.0  T
   4    -50.7250655 -0.834934E-05  0.203E-02    8.40       1.0  T
   5    -50.7250660 -0.554912E-06  0.629E-03    8.40       3.1  T
   6    -50.7250661 -0.746792E-07  0.308E-03    8.40       6.4  T
   7    -50.7250661 -0.166503E-07  0.830E-04    8.40      23.6  T
   8    -50.7250661 -0.193980E-08  0.224E-04    8.40      87.6  T
speedup  1.05
cpu  time for SCC    0.01 s
wall time for SCC    0.01 s
speedup  1.01
cpu  time for grad    0.02 s
wall time for grad    0.02 s
 E :    -50.44743734  G :  0.035002    pred/act E change:  0.000D+00 -0.115D-02
Maxdispl :   0.1215   ||displ|| :   0.3313   Lambda : -0.304D-02
Largest |displ|/coords:  0.1215 (   7)  0.1126 (   5)  0.1047 (  10)
................................................................................
.............................. CYCLE   27 ......................................
................................................................................
   1    -50.7222058 -0.507222E+02  0.214E-01    8.39       0.0  T
   2    -50.7222214 -0.155533E-04  0.160E-01    8.40       1.0  T
   3    -50.7222320 -0.106517E-04  0.242E-02    8.43       1.0  T
   4    -50.7222342 -0.220118E-05  0.857E-03    8.42       2.3  T
   5    -50.7222344 -0.104575E-06  0.285E-03    8.42       6.9  T
   6    -50.7222344 -0.130713E-07  0.163E-03    8.42      12.0  T
speedup  1.00
cpu  time for SCC    0.01 s
wall time for SCC    0.01 s
speedup  0.95
cpu  time for grad    0.01 s
wall time for grad    0.01 s
 E :    -50.44943624  G :  0.019526    pred/act E change:  0.000D+00 -0.200D-02
Maxdispl :   0.1557   ||displ|| :   0.3200   Lambda : -0.161D-02
Largest |displ|/coords:  0.1557 (   8)  0.1001 (   3)  0.0988 (  10)
................................................................................
.............................. CYCLE   28 ......................................
................................................................................
   1    -50.7200903 -0.507201E+02  0.189E-01    8.37       0.0  T
   2    -50.7201064 -0.161195E-04  0.141E-01    8.39       1.0  T
   3    -50.7201140 -0.766528E-05  0.229E-02    8.42       1.0  T
   4    -50.7201167 -0.262238E-05  0.880E-03    8.41       2.2  T
   5    -50.7201168 -0.108841E-06  0.260E-03    8.41       7.6  T
   6    -50.7201168 -0.115392E-07  0.146E-03    8.41      13.4  T
speedup  1.19
cpu  time for SCC    0.01 s
wall time for SCC    0.01 s
speedup  1.04
cpu  time for grad    0.01 s
wall time for grad    0.01 s
 E :    -50.45043663  G :  0.018318    pred/act E change: -0.169D-02 -0.100D-02
Maxdispl :   0.1302   ||displ|| :   0.2804   Lambda : -0.838D-03
Largest |displ|/coords:  0.1302 (   3)  0.1217 (   6)  0.0880 (   1)
................................................................................
.............................. CYCLE   29 ......................................
................................................................................
   1    -50.7201339 -0.507201E+02  0.142E-01    8.38       0.0  T
   2    -50.7201494 -0.154294E-04  0.107E-01    8.38       1.0  T
   3    -50.7201558 -0.643521E-05  0.221E-02    8.39       1.0  T
   4    -50.7201582 -0.242898E-05  0.864E-03    8.38       2.3  T
   5    -50.7201584 -0.153012E-06  0.235E-03    8.38       8.3  T
   6    -50.7201584 -0.883787E-08  0.137E-03    8.38      14.3  T
speedup  0.88
cpu  time for SCC    0.01 s
wall time for SCC    0.01 s
speedup  0.99
cpu  time for grad    0.01 s
wall time for grad    0.01 s
 E :    -50.45111374  G :  0.021247    pred/act E change: -0.890D-03 -0.677D-03
Maxdispl :   0.2448   ||displ|| :   0.4699   Lambda : -0.168D-02
Largest |displ|/coords:  0.2448 (   6)  0.2431 (   3)  0.1121 (   1)
................................................................................
.............................. CYCLE   30 ......................................
................................................................................
   1    -50.7251454 -0.507251E+02  0.213E-01    8.35       0.0  T
   2    -50.7252357 -0.902810E-04  0.160E-01    8.35       1.0  T
   3    -50.7252765 -0.408691E-04  0.533E-02    8.34       1.0  T
   4    -50.7252849 -0.835125E-05  0.197E-02    8.34       1.0  T
   5    -50.7252857 -0.789930E-06  0.556E-03    8.35       3.5  T
   6    -50.7252857 -0.497253E-07  0.290E-03    8.35       6.8  T
speedup  1.07
cpu  time for SCC    0.01 s
wall time for SCC    0.01 s
speedup  0.99
cpu  time for grad    0.01 s
wall time for grad    0.01 s
 E :    -50.45238353  G :  0.024585    pred/act E change: -0.452D-03 -0.127D-02
Maxdispl :   0.2966   ||displ|| :   0.5771   Lambda : -0.215D-02
Largest |displ|/coords:  0.2966 (   3)  0.2513 (   6)  0.2126 (   1)
................................................................................
.............................. CYCLE   31 ......................................
................................................................................
   1    -50.7287382 -0.507287E+02  0.334E-01    8.35       0.0  T
   2    -50.7289356 -0.197423E-03  0.251E-01    8.34       1.0  T
   3    -50.7290269 -0.912798E-04  0.829E-02    8.32       1.0  T
   4    -50.7290472 -0.203412E-04  0.282E-02    8.32       1.0  T
   5    -50.7290490 -0.170992E-05  0.881E-03    8.33       2.2  T
   6    -50.7290491 -0.934538E-07  0.455E-03    8.33       4.3  T
   7    -50.7290491 -0.413627E-07  0.116E-03    8.33      16.9  T
speedup  1.03
cpu  time for SCC    0.01 s
wall time for SCC    0.01 s
speedup  1.05
cpu  time for grad    0.02 s
wall time for grad    0.02 s
 E :    -50.45382228  G :  0.030019    pred/act E change: -0.102D-02 -0.144D-02
Maxdispl :   0.1997   ||displ|| :   0.4164   Lambda : -0.239D-02
Largest |displ|/coords:  0.1997 (   3)  0.1473 (   6)  0.1178 (  10)
................................................................................
.............................. CYCLE   32 ......................................
................................................................................
   1    -50.7404799 -0.507405E+02  0.247E-01    8.34       0.0  T
   2    -50.7406367 -0.156791E-03  0.184E-01    8.34       1.0  T
   3    -50.7407256 -0.889200E-04  0.764E-02    8.32       1.0  T
   4    -50.7407373 -0.116606E-04  0.255E-02    8.31       1.0  T
   5    -50.7407387 -0.141214E-05  0.805E-03    8.32       2.4  T
   6    -50.7407388 -0.692646E-07  0.399E-03    8.32       4.9  T
   7    -50.7407388 -0.246019E-07  0.959E-04    8.32      20.5  T
speedup  1.00
cpu  time for SCC    0.01 s
wall time for SCC    0.01 s
speedup  1.03
cpu  time for grad    0.02 s
wall time for grad    0.02 s
 E :    -50.45485034  G :  0.029713    pred/act E change: -0.143D-02 -0.103D-02
Maxdispl :   0.0785   ||displ|| :   0.1664   Lambda : -0.144D-02
Largest |displ|/coords:  0.0785 (   1)  0.0604 (  19)  0.0549 (   7)
................................................................................
.............................. CYCLE   33 ......................................
................................................................................
   1    -50.7404552 -0.507405E+02  0.866E-02    8.33       0.0  T
   2    -50.7404608 -0.558923E-05  0.639E-02    8.32       1.0  T
   3    -50.7404638 -0.304769E-05  0.146E-02    8.31       1.3  T
   4    -50.7404645 -0.649513E-06  0.400E-03    8.31       4.9  T
   5    -50.7404645 -0.282062E-07  0.126E-03    8.31      15.5  T
speedup  1.00
cpu  time for SCC    0.01 s
wall time for SCC    0.00 s
speedup  0.96
cpu  time for grad    0.01 s
wall time for grad    0.01 s
 E :    -50.45591194  G :  0.016009    pred/act E change: -0.140D-02 -0.106D-02
Maxdispl :   0.2604   ||displ|| :   0.4696   Lambda : -0.177D-02
Largest |displ|/coords:  0.2604 (   1)  0.2223 (   3)  0.1321 (   8)
................................................................................
.............................. CYCLE   34 ......................................
................................................................................
   1    -50.7303566 -0.507304E+02  0.240E-01    8.18       0.0  T
   2    -50.7304005 -0.438745E-04  0.177E-01    8.20       1.0  T
   3    -50.7304184 -0.178670E-04  0.413E-02    8.22       1.0  T
   4    -50.7304247 -0.628891E-05  0.111E-02    8.20       1.8  T
   5    -50.7304249 -0.239403E-06  0.398E-03    8.20       4.9  T
   6    -50.7304249 -0.254922E-07  0.237E-03    8.20       8.3  T
   7    -50.7304249 -0.105469E-07  0.675E-04    8.20      29.1  T
speedup  1.04
cpu  time for SCC    0.01 s
wall time for SCC    0.01 s
speedup  0.97
cpu  time for grad    0.01 s
wall time for grad    0.02 s
 E :    -50.45612838  G :  0.029514    pred/act E change: -0.741D-03 -0.216D-03
Maxdispl :   0.1425   ||displ|| :   0.3231   Lambda : -0.278D-02
Largest |displ|/coords:  0.1425 (   7)  0.1163 (  10)  0.1052 (  12)
................................................................................
.............................. CYCLE   35 ......................................
................................................................................
   1    -50.7458286 -0.507458E+02  0.179E-01    8.31       0.0  T
   2    -50.7458700 -0.414398E-04  0.131E-01    8.28       1.0  T
   3    -50.7458855 -0.154745E-04  0.380E-02    8.23       1.0  T
   4    -50.7458900 -0.455154E-05  0.858E-03    8.25       2.3  T
   5    -50.7458902 -0.137297E-06  0.349E-03    8.25       5.6  T
   6    -50.7458902 -0.123761E-07  0.197E-03    8.25       9.9  T
speedup  1.00
cpu  time for SCC    0.01 s
wall time for SCC    0.01 s
speedup  1.02
cpu  time for grad    0.01 s
wall time for grad    0.01 s
 E :    -50.45680155  G :  0.023559    pred/act E change: -0.108D-02 -0.673D-03
Maxdispl :   0.0982   ||displ|| :   0.1602   Lambda : -0.883D-03
Largest |displ|/coords:  0.0982 (   7)  0.0440 (   2)  0.0406 (   3)
................................................................................
.............................. CYCLE   36 ......................................
................................................................................
   1    -50.7438006 -0.507438E+02  0.902E-02    8.25       0.0  T
   2    -50.7438056 -0.499345E-05  0.673E-02    8.26       1.0  T
   3    -50.7438083 -0.266261E-05  0.141E-02    8.27       1.4  T
   4    -50.7438090 -0.728487E-06  0.381E-03    8.27       5.1  T
   5    -50.7438091 -0.247950E-07  0.135E-03    8.27      14.5  T
speedup  1.06
cpu  time for SCC    0.00 s
wall time for SCC    0.00 s
speedup  1.05
cpu  time for grad    0.01 s
wall time for grad    0.01 s
 E :    -50.45727566  G :  0.008660    pred/act E change: -0.153D-02 -0.474D-03
Maxdispl :   0.1157   ||displ|| :   0.1737   Lambda : -0.272D-03
Largest |displ|/coords:  0.1157 (   1)  0.0710 (   6)  0.0654 (   3)
................................................................................
.............................. CYCLE   37 ......................................
................................................................................
   1    -50.7411847 -0.507412E+02  0.819E-02    8.23       0.0  T
   2    -50.7411889 -0.421980E-05  0.612E-02    8.24       1.0  T
   3    -50.7411912 -0.225675E-05  0.129E-02    8.25       1.5  T
   4    -50.7411919 -0.667077E-06  0.393E-03    8.24       5.0  T
   5    -50.7411919 -0.267422E-07  0.147E-03    8.24      13.4  T
   6    -50.7411919 -0.297975E-08  0.745E-04    8.24      26.3  T
speedup  1.03
cpu  time for SCC    0.01 s
wall time for SCC    0.01 s
speedup  0.98
cpu  time for grad    0.01 s
wall time for grad    0.01 s
 E :    -50.45741393  G :  0.007243    pred/act E change: -0.453D-03 -0.138D-03
Maxdispl :   0.1420   ||displ|| :   0.2290   Lambda : -0.206D-03
Largest |displ|/coords:  0.1420 (   6)  0.1247 (   1)  0.0848 (   2)
................................................................................
.............................. CYCLE   38 ......................................
................................................................................
   1    -50.7407865 -0.507408E+02  0.720E-02    8.25       0.0  T
   2    -50.7407880 -0.143939E-05  0.530E-02    8.25       1.0  T
   3    -50.7407889 -0.917339E-06  0.100E-02    8.26       2.0  T
   4    -50.7407891 -0.173756E-06  0.281E-03    8.25       7.0  T
   5    -50.7407891 -0.110930E-07  0.785E-04    8.25      25.0  T
speedup  1.02
cpu  time for SCC    0.01 s
wall time for SCC    0.00 s
speedup  1.03
cpu  time for grad    0.01 s
wall time for grad    0.01 s
 E :    -50.45753430  G :  0.007297    pred/act E change: -0.140D-03 -0.120D-03
Maxdispl :   0.1738   ||displ|| :   0.2407   Lambda : -0.195D-03
Largest |displ|/coords:  0.1738 (   1)  0.0771 (   6)  0.0744 (   2)
................................................................................
.............................. CYCLE   39 ......................................
................................................................................
   1    -50.7423762 -0.507424E+02  0.809E-02    8.28       0.0  T
   2    -50.7423795 -0.322724E-05  0.602E-02    8.28       1.0  T
   3    -50.7423813 -0.187770E-05  0.113E-02    8.28       1.7  T
   4    -50.7423818 -0.482025E-06  0.365E-03    8.28       5.4  T
   5    -50.7423819 -0.229218E-07  0.142E-03    8.28      13.8  T
   6    -50.7423819 -0.325412E-08  0.777E-04    8.28      25.2  T
speedup  1.03
cpu  time for SCC    0.01 s
wall time for SCC    0.01 s
speedup  0.97
cpu  time for grad    0.01 s
wall time for grad    0.01 s
 E :    -50.45760558  G :  0.006308    pred/act E change: -0.108D-03 -0.713D-04
Maxdispl :   0.0355   ||displ|| :   0.0716   Lambda : -0.908D-04
Largest |displ|/coords:  0.0355 (   2)  0.0256 (   7)  0.0248 (   5)
................................................................................
.............................. CYCLE   40 ......................................
................................................................................
   1    -50.7428458 -0.507428E+02  0.370E-02    8.28       0.0  T
   2    -50.7428464 -0.630415E-06  0.274E-02    8.28       1.0  T
   3    -50.7428469 -0.479266E-06  0.501E-03    8.29       3.9  T
   4    -50.7428470 -0.696549E-07  0.172E-03    8.29      11.4  T
   5    -50.7428470 -0.359892E-08  0.536E-04    8.29      36.6  T
speedup  1.00
cpu  time for SCC    0.00 s
wall time for SCC    0.01 s
speedup  0.95
cpu  time for grad    0.01 s
wall time for grad    0.01 s
 E :    -50.45765635  G :  0.002949    pred/act E change: -0.103D-03 -0.508D-04
Maxdispl :   0.0432   ||displ|| :   0.0837   Lambda : -0.638D-04
Largest |displ|/coords:  0.0432 (   1)  0.0361 (   2)  0.0282 (  11)
................................................................................
.............................. CYCLE   41 ......................................
................................................................................
   1    -50.7424861 -0.507425E+02  0.505E-02    8.28       0.0  T
   2    -50.7424866 -0.515019E-06  0.375E-02    8.28       1.0  T
   3    -50.7424871 -0.537867E-06  0.499E-03    8.29       3.9  T
   4    -50.7424872 -0.415205E-07  0.140E-03    8.29      14.0  T
   5    -50.7424872 -0.382252E-08  0.561E-04    8.29      35.0  T
   6    -50.7424872 -0.482132E-09  0.269E-04    8.29      73.0  T
speedup  1.02
cpu  time for SCC    0.01 s
wall time for SCC    0.01 s
speedup  0.99
cpu  time for grad    0.01 s
wall time for grad    0.02 s
 E :    -50.45769607  G :  0.003649    pred/act E change: -0.456D-04 -0.397D-04
Maxdispl :   0.0976   ||displ|| :   0.1436   Lambda : -0.837D-04
Largest |displ|/coords:  0.0976 (   1)  0.0577 (   2)  0.0437 (   3)
................................................................................
.............................. CYCLE   42 ......................................
................................................................................
   1    -50.7410681 -0.507411E+02  0.711E-02    8.27       0.0  T
   2    -50.7410691 -0.968134E-06  0.520E-02    8.28       1.0  T
   3    -50.7410699 -0.777280E-06  0.753E-03    8.29       2.6  T
   4    -50.7410700 -0.778093E-07  0.199E-03    8.29       9.9  T
   5    -50.7410700 -0.567447E-08  0.696E-04    8.29      28.2  T
   6    -50.7410700 -0.676373E-09  0.401E-04    8.29      48.9  T
speedup  1.02
cpu  time for SCC    0.01 s
wall time for SCC    0.01 s
speedup  1.00
cpu  time for grad    0.01 s
wall time for grad    0.01 s
 E :    -50.45774356  G :  0.004784    pred/act E change: -0.321D-04 -0.475D-04
Maxdispl :   0.0916   ||displ|| :   0.1269   Lambda : -0.542D-04
Largest |displ|/coords:  0.0916 (   1)  0.0422 (   3)  0.0419 (   2)
................................................................................
.............................. CYCLE   43 ......................................
................................................................................
   1    -50.7412151 -0.507412E+02  0.557E-02    8.29       0.0  T
   2    -50.7412157 -0.619442E-06  0.411E-02    8.29       1.0  T
   3    -50.7412162 -0.482411E-06  0.655E-03    8.29       3.0  T
   4    -50.7412163 -0.762608E-07  0.182E-03    8.29      10.8  T
   5    -50.7412163 -0.523996E-08  0.634E-04    8.29      30.9  T
speedup  0.98
cpu  time for SCC    0.00 s
wall time for SCC    0.01 s
speedup  1.03
cpu  time for grad    0.01 s
wall time for grad    0.01 s
 E :    -50.45778075  G :  0.003661    pred/act E change: -0.427D-04 -0.372D-04
Maxdispl :   0.0917   ||displ|| :   0.1302   Lambda : -0.537D-04
Largest |displ|/coords:  0.0917 (   1)  0.0407 (   2)  0.0363 (   3)
................................................................................
.............................. CYCLE   44 ......................................
................................................................................
   1    -50.7412893 -0.507413E+02  0.643E-02    8.30       0.0  T
   2    -50.7412899 -0.606544E-06  0.474E-02    8.30       1.0  T
   3    -50.7412905 -0.609443E-06  0.557E-03    8.30       3.5  T
   4    -50.7412906 -0.392595E-07  0.158E-03    8.30      12.4  T
   5    -50.7412906 -0.388878E-08  0.631E-04    8.30      31.1  T
   6    -50.7412906 -0.526349E-09  0.361E-04    8.30      54.3  T
speedup  1.00
cpu  time for SCC    0.01 s
wall time for SCC    0.01 s
speedup  0.99
cpu  time for grad    0.01 s
wall time for grad    0.02 s
 E :    -50.45781483  G :  0.003901    pred/act E change: -0.275D-04 -0.341D-04
Maxdispl :   0.0692   ||displ|| :   0.1184   Lambda : -0.611D-04
Largest |displ|/coords:  0.0692 (   1)  0.0499 (   3)  0.0318 (  11)
................................................................................
.............................. CYCLE   45 ......................................
................................................................................
   1    -50.7409786 -0.507410E+02  0.640E-02    8.30       0.0  T
   2    -50.7409793 -0.697166E-06  0.473E-02    8.30       1.0  T
   3    -50.7409799 -0.556677E-06  0.623E-03    8.30       3.1  T
   4    -50.7409800 -0.717998E-07  0.150E-03    8.30      13.1  T
   5    -50.7409800 -0.393621E-08  0.611E-04    8.30      32.1  T
   6    -50.7409800 -0.641059E-09  0.362E-04    8.30      54.2  T
speedup  0.97
cpu  time for SCC    0.01 s
wall time for SCC    0.01 s
speedup  0.98
cpu  time for grad    0.01 s
wall time for grad    0.02 s
 E :    -50.45785046  G :  0.002754    pred/act E change: -0.273D-04 -0.356D-04
Maxdispl :   0.0495   ||displ|| :   0.1085   Lambda : -0.539D-04
Largest |displ|/coords:  0.0495 (   1)  0.0440 (   2)  0.0350 (  17)
................................................................................
.............................. CYCLE   46 ......................................
................................................................................
   1    -50.7407327 -0.507407E+02  0.677E-02    8.31       0.0  T
   2    -50.7407333 -0.652148E-06  0.504E-02    8.31       1.0  T
   3    -50.7407340 -0.614816E-06  0.468E-03    8.31       4.2  T
   4    -50.7407340 -0.522203E-07  0.154E-03    8.31      12.8  T
   5    -50.7407340 -0.284891E-08  0.617E-04    8.31      31.8  T
   6    -50.7407340 -0.589850E-09  0.313E-04    8.31      62.6  T
speedup  0.88
cpu  time for SCC    0.00 s
wall time for SCC    0.01 s
speedup  0.95
cpu  time for grad    0.01 s
wall time for grad    0.01 s
 E :    -50.45788954  G :  0.003569    pred/act E change: -0.310D-04 -0.391D-04
Maxdispl :   0.0547   ||displ|| :   0.1334   Lambda : -0.756D-04
Largest |displ|/coords:  0.0547 (   3)  0.0521 (   2)  0.0421 (  15)
................................................................................
.............................. CYCLE   47 ......................................
................................................................................
   1    -50.7406356 -0.507406E+02  0.861E-02    8.31       0.0  T
   2    -50.7406366 -0.105827E-05  0.640E-02    8.31       1.0  T
   3    -50.7406375 -0.851336E-06  0.643E-03    8.31       3.1  T
   4    -50.7406376 -0.107681E-06  0.238E-03    8.31       8.3  T
   5    -50.7406376 -0.445468E-08  0.676E-04    8.31      29.0  T
   6    -50.7406376 -0.376978E-09  0.381E-04    8.31      51.5  T
speedup  0.98
cpu  time for SCC    0.01 s
wall time for SCC    0.01 s
speedup  0.98
cpu  time for grad    0.01 s
wall time for grad    0.02 s
 E :    -50.45793774  G :  0.004094    pred/act E change: -0.273D-04 -0.482D-04
Maxdispl :   0.0468   ||displ|| :   0.1025   Lambda : -0.543D-04
Largest |displ|/coords:  0.0468 (   2)  0.0426 (   3)  0.0330 (  17)
................................................................................
.............................. CYCLE   48 ......................................
................................................................................
   1    -50.7413462 -0.507413E+02  0.696E-02    8.31       0.0  T
   2    -50.7413467 -0.537439E-06  0.519E-02    8.31       1.0  T
   3    -50.7413473 -0.622727E-06  0.530E-03    8.31       3.7  T
   4    -50.7413474 -0.291362E-07  0.160E-03    8.31      12.3  T
   5    -50.7413474 -0.352102E-08  0.610E-04    8.31      32.1  T
speedup  1.00
cpu  time for SCC    0.00 s
wall time for SCC    0.01 s
speedup  0.95
cpu  time for grad    0.01 s
wall time for grad    0.01 s
 E :    -50.45796870  G :  0.004337    pred/act E change: -0.385D-04 -0.310D-04
Maxdispl :   0.0794   ||displ|| :   0.1415   Lambda : -0.596D-04
Largest |displ|/coords:  0.0794 (   2)  0.0697 (   3)  0.0620 (   1)
................................................................................
.............................. CYCLE   49 ......................................
................................................................................
   1    -50.7408713 -0.507409E+02  0.732E-02    8.29       0.0  T
   2    -50.7408719 -0.662228E-06  0.544E-02    8.29       1.0  T
   3    -50.7408727 -0.704631E-06  0.572E-03    8.30       3.4  T
   4    -50.7408727 -0.492211E-07  0.129E-03    8.29      15.2  T
   5    -50.7408727 -0.326119E-08  0.728E-04    8.29      26.9  T
speedup  1.15
cpu  time for SCC    0.01 s
wall time for SCC    0.01 s
speedup  1.01
cpu  time for grad    0.01 s
wall time for grad    0.01 s
 E :    -50.45800055  G :  0.003775    pred/act E change: -0.274D-04 -0.319D-04
Maxdispl :   0.0250   ||displ|| :   0.0565   Lambda : -0.455D-04
Largest |displ|/coords:  0.0250 (   3)  0.0220 (  11)  0.0175 (  16)
................................................................................
.............................. CYCLE   50 ......................................
................................................................................
   1    -50.7423623 -0.507424E+02  0.412E-02    8.30       0.0  T
   2    -50.7423632 -0.845201E-06  0.294E-02    8.29       1.0  T
   3    -50.7423636 -0.394194E-06  0.602E-03    8.29       3.3  T
   4    -50.7423636 -0.911308E-07  0.152E-03    8.29      12.9  T
   5    -50.7423636 -0.300462E-08  0.506E-04    8.29      38.8  T
   6    -50.7423636 -0.575739E-09  0.232E-04    8.29      84.4  T
speedup  1.00
cpu  time for SCC    0.01 s
wall time for SCC    0.01 s
speedup  0.97
cpu  time for grad    0.01 s
wall time for grad    0.02 s
 E :    -50.45802231  G :  0.003419    pred/act E change: -0.304D-04 -0.218D-04
Maxdispl :   0.1332   ||displ|| :   0.2000   Lambda : -0.563D-04
Largest |displ|/coords:  0.1332 (   1)  0.0872 (   3)  0.0781 (   2)
................................................................................
.............................. CYCLE   51 ......................................
................................................................................
   1    -50.7408127 -0.507408E+02  0.969E-02    8.28       0.0  T
   2    -50.7408136 -0.936403E-06  0.724E-02    8.28       1.0  T
   3    -50.7408143 -0.728692E-06  0.588E-03    8.28       3.3  T
   4    -50.7408144 -0.116313E-06  0.186E-03    8.28      10.5  T
   5    -50.7408144 -0.343835E-08  0.763E-04    8.28      25.7  T
   6    -50.7408144 -0.816620E-09  0.364E-04    8.28      53.8  T
speedup  0.98
cpu  time for SCC    0.01 s
wall time for SCC    0.01 s
speedup  1.03
cpu  time for grad    0.02 s
wall time for grad    0.02 s
 E :    -50.45803634  G :  0.004401    pred/act E change: -0.228D-04 -0.140D-04
Maxdispl :   0.0418   ||displ|| :   0.0658   Lambda : -0.443D-04
Largest |displ|/coords:  0.0418 (   3)  0.0235 (   1)  0.0231 (   2)
................................................................................
.............................. CYCLE   52 ......................................
................................................................................
   1    -50.7419484 -0.507419E+02  0.349E-02    8.31       0.0  T
   2    -50.7419487 -0.273356E-06  0.259E-02    8.31       1.0  T
   3    -50.7419489 -0.212275E-06  0.336E-03    8.31       5.8  T
   4    -50.7419489 -0.294184E-07  0.110E-03    8.31      17.8  T
   5    -50.7419489 -0.151959E-08  0.353E-04    8.31      55.5  T
speedup  1.02
cpu  time for SCC    0.00 s
wall time for SCC    0.00 s
speedup  0.97
cpu  time for grad    0.01 s
wall time for grad    0.01 s
 E :    -50.45805908  G :  0.002305    pred/act E change: -0.293D-04 -0.227D-04
Maxdispl :   0.0133   ||displ|| :   0.0314   Lambda : -0.146D-04
Largest |displ|/coords:  0.0133 (  12)  0.0115 (  10)  0.0089 (   8)

generating ANC from model Hessian ...
 Shifting diagonal of input Hessian by   4.566777901647338E-003
 Lowest  eigenvalues of input Hessian
   -0.000000   -0.000000   -0.000000   -0.000000   -0.000000    0.000000
    0.005000    0.005175    0.005668    0.006213    0.006678    0.007040
    0.007832    0.008332    0.008657    0.009216    0.009568    0.010343
 Highest eigenvalues
    1.384743    1.398095    1.401201    2.696843    3.217891    3.853169
 
cpu  time for ANC gen    0.02 s
wall time for ANC gen    0.02 s
................................................................................
.............................. CYCLE   53 ......................................
................................................................................
   1    -50.7419748 -0.507420E+02  0.189E-02    8.31       0.0  T
   2    -50.7419749 -0.616339E-07  0.141E-02    8.31       1.4  T
   3    -50.7419749 -0.545436E-07  0.164E-03    8.31      11.9  T
   4    -50.7419749 -0.629547E-08  0.406E-04    8.31      48.3  T
   5    -50.7419749 -0.292744E-09  0.198E-04    8.31      99.1  T
speedup  1.02
cpu  time for SCC    0.00 s
wall time for SCC    0.00 s
speedup  1.01
cpu  time for grad    0.01 s
wall time for grad    0.01 s
 E :    -50.45806967  G :  0.001710    pred/act E change:  0.000D+00 -0.106D-04
Maxdispl :   0.0319   ||displ|| :   0.0426   Lambda : -0.192D-04
Largest |displ|/coords:  0.0319 (   5)  0.0133 (  12)  0.0127 (   3)
................................................................................
.............................. CYCLE   54 ......................................
................................................................................
   1    -50.7418989 -0.507419E+02  0.262E-02    8.31       0.0  T
   2    -50.7418990 -0.746149E-07  0.196E-02    8.31       1.0  T
   3    -50.7418991 -0.727364E-07  0.150E-03    8.30      13.1  T
   4    -50.7418991 -0.646125E-08  0.591E-04    8.31      33.2  T
   5    -50.7418991 -0.288978E-09  0.220E-04    8.31      89.2  T
speedup  0.96
cpu  time for SCC    0.00 s
wall time for SCC    0.01 s
speedup  1.03
cpu  time for grad    0.01 s
wall time for grad    0.01 s
 E :    -50.45808533  G :  0.000991    pred/act E change:  0.000D+00 -0.157D-04
Maxdispl :   0.0774   ||displ|| :   0.1119   Lambda : -0.344D-04
Largest |displ|/coords:  0.0774 (   5)  0.0421 (   1)  0.0360 (   3)
................................................................................
.............................. CYCLE   55 ......................................
................................................................................
   1    -50.7414676 -0.507415E+02  0.706E-02    8.29       0.0  T
   2    -50.7414681 -0.480782E-06  0.527E-02    8.29       1.0  T
   3    -50.7414686 -0.509457E-06  0.386E-03    8.29       5.1  T
   4    -50.7414686 -0.286683E-07  0.147E-03    8.29      13.3  T
   5    -50.7414686 -0.196695E-08  0.549E-04    8.29      35.7  T
   6    -50.7414686 -0.472951E-09  0.287E-04    8.29      68.3  T
speedup  1.13
cpu  time for SCC    0.01 s
wall time for SCC    0.01 s
speedup  1.02
cpu  time for grad    0.02 s
wall time for grad    0.02 s
 E :    -50.45810514  G :  0.001663    pred/act E change: -0.961D-05 -0.198D-04
Maxdispl :   0.0344   ||displ|| :   0.0530   Lambda : -0.911D-05
Largest |displ|/coords:  0.0344 (   1)  0.0223 (   3)  0.0207 (   5)
................................................................................
.............................. CYCLE   56 ......................................
................................................................................
   1    -50.7415281 -0.507415E+02  0.341E-02    8.29       0.0  T
   2    -50.7415282 -0.135624E-06  0.252E-02    8.29       1.0  T
   3    -50.7415284 -0.152306E-06  0.219E-03    8.29       8.9  T
   4    -50.7415284 -0.396236E-08  0.675E-04    8.29      29.0  T
   5    -50.7415284 -0.452388E-09  0.260E-04    8.29      75.3  T
speedup  1.11
cpu  time for SCC    0.01 s
wall time for SCC    0.01 s
speedup  1.01
cpu  time for grad    0.01 s
wall time for grad    0.01 s
 E :    -50.45811117  G :  0.001601    pred/act E change: -0.174D-04 -0.603D-05
Maxdispl :   0.0474   ||displ|| :   0.0630   Lambda : -0.101D-04
Largest |displ|/coords:  0.0474 (   1)  0.0235 (   3)  0.0176 (   5)
................................................................................
.............................. CYCLE   57 ......................................
................................................................................
   1    -50.7419056 -0.507419E+02  0.388E-02    8.29       0.0  T
   2    -50.7419058 -0.189378E-06  0.285E-02    8.29       1.0  T
   3    -50.7419060 -0.191848E-06  0.266E-03    8.28       7.4  T
   4    -50.7419060 -0.874515E-08  0.775E-04    8.28      25.3  T
   5    -50.7419060 -0.686335E-09  0.309E-04    8.28      63.5  T
speedup  0.93
cpu  time for SCC    0.00 s
wall time for SCC    0.01 s
speedup  1.00
cpu  time for grad    0.01 s
wall time for grad    0.01 s
 E :    -50.45811736  G :  0.000829    pred/act E change: -0.457D-05 -0.618D-05
Maxdispl :   0.0275   ||displ|| :   0.0345   Lambda : -0.339D-05
Largest |displ|/coords:  0.0275 (   1)  0.0144 (   3)  0.0063 (   2)
................................................................................
.............................. CYCLE   58 ......................................
................................................................................
   1    -50.7421073 -0.507421E+02  0.193E-02    8.29       0.0  T
   2    -50.7421073 -0.640535E-07  0.143E-02    8.29       1.4  T
   3    -50.7421074 -0.650824E-07  0.164E-03    8.29      12.0  T
   4    -50.7421074 -0.415093E-08  0.548E-04    8.29      35.8  T
   5    -50.7421074 -0.308141E-09  0.147E-04    8.29     133.6  T
speedup  1.20
cpu  time for SCC    0.01 s
wall time for SCC    0.01 s
speedup  1.06
cpu  time for grad    0.01 s
wall time for grad    0.01 s
 E :    -50.45811904  G :  0.000480    pred/act E change: -0.505D-05 -0.168D-05
Maxdispl :   0.0190   ||displ|| :   0.0235   Lambda : -0.174D-05
Largest |displ|/coords:  0.0190 (   1)  0.0056 (   8)  0.0049 (   2)
................................................................................
.............................. CYCLE   59 ......................................
................................................................................
   1    -50.7421321 -0.507421E+02  0.121E-02    8.29       0.0  T
   2    -50.7421321 -0.149605E-07  0.896E-03    8.29       2.2  T
   3    -50.7421322 -0.142403E-07  0.758E-04    8.29      25.9  T
   4    -50.7421322 -0.948518E-09  0.258E-04    8.29      75.9  T
speedup  1.16
cpu  time for SCC    0.00 s
wall time for SCC    0.00 s
speedup  1.04
cpu  time for grad    0.01 s
wall time for grad    0.01 s
 E :    -50.45811985  G :  0.000483    pred/act E change: -0.170D-05 -0.810D-06
Maxdispl :   0.0023   ||displ|| :   0.0055   Lambda : -0.508D-06
Largest |displ|/coords:  0.0023 (   2)  0.0022 (  12)  0.0021 (   3)
................................................................................
.............................. CYCLE   60 ......................................
................................................................................
   1    -50.7420947 -0.507421E+02  0.342E-03    8.29       0.0  T
   2    -50.7420947 -0.315232E-08  0.254E-03    8.29       7.7  T
   3    -50.7420947 -0.221470E-08  0.359E-04    8.29      54.6  T
   4    -50.7420947 -0.408363E-09  0.995E-05    8.29     197.1  T
speedup  0.95
cpu  time for SCC    0.00 s
wall time for SCC    0.00 s
speedup  1.04
cpu  time for grad    0.01 s
wall time for grad    0.01 s
 E :    -50.45812023  G :  0.000287    pred/act E change: -0.871D-06 -0.385D-06
Maxdispl :   0.0055   ||displ|| :   0.0116   Lambda : -0.638D-06
Largest |displ|/coords:  0.0055 (   2)  0.0049 (   1)  0.0043 (  12)
................................................................................
.............................. CYCLE   61 ......................................
................................................................................
   1    -50.7420511 -0.507421E+02  0.672E-03    8.29       0.0  T
   2    -50.7420511 -0.878996E-08  0.505E-03    8.29       3.9  T
   3    -50.7420511 -0.675063E-08  0.594E-04    8.29      33.0  T
   4    -50.7420511 -0.118386E-08  0.168E-04    8.29     116.5  T
speedup  0.98
cpu  time for SCC    0.00 s
wall time for SCC    0.00 s
speedup  1.04
cpu  time for grad    0.01 s
wall time for grad    0.01 s
 E :    -50.45812062  G :  0.000261    pred/act E change: -0.254D-06 -0.392D-06
Maxdispl :   0.0062   ||displ|| :   0.0090   Lambda : -0.261D-06
Largest |displ|/coords:  0.0062 (   1)  0.0031 (   2)  0.0028 (   5)
................................................................................
.............................. CYCLE   62 ......................................
................................................................................
   1    -50.7420396 -0.507420E+02  0.471E-03    8.29       0.0  T
   2    -50.7420396 -0.338171E-08  0.352E-03    8.29       5.6  T
   3    -50.7420396 -0.300769E-08  0.340E-04    8.29      57.8  T
   4    -50.7420396 -0.383992E-09  0.117E-04    8.29     168.2  T
speedup  0.95
cpu  time for SCC    0.00 s
wall time for SCC    0.00 s
speedup  0.98
cpu  time for grad    0.01 s
wall time for grad    0.01 s
 E :    -50.45812082  G :  0.000284    pred/act E change: -0.319D-06 -0.199D-06
Maxdispl :   0.0096   ||displ|| :   0.0136   Lambda : -0.380D-06
Largest |displ|/coords:  0.0096 (   1)  0.0050 (   2)  0.0041 (  15)
................................................................................
.............................. CYCLE   63 ......................................
................................................................................
   1    -50.7420489 -0.507420E+02  0.752E-03    8.29       0.0  T
   2    -50.7420489 -0.928488E-08  0.562E-03    8.28       3.5  T
   3    -50.7420489 -0.862980E-08  0.553E-04    8.28      35.5  T
   4    -50.7420489 -0.939167E-09  0.192E-04    8.28     102.1  T
speedup  1.03
cpu  time for SCC    0.00 s
wall time for SCC    0.00 s
speedup  1.00
cpu  time for grad    0.01 s
wall time for grad    0.01 s
 E :    -50.45812109  G :  0.000240    pred/act E change: -0.130D-06 -0.263D-06
Maxdispl :   0.0067   ||displ|| :   0.0091   Lambda : -0.211D-06
Largest |displ|/coords:  0.0067 (   1)  0.0031 (  15)  0.0030 (   5)
................................................................................
.............................. CYCLE   64 ......................................
................................................................................
   1    -50.7420662 -0.507421E+02  0.518E-03    8.28       0.0  T
   2    -50.7420662 -0.540243E-08  0.385E-03    8.28       5.1  T
   3    -50.7420662 -0.483427E-08  0.408E-04    8.28      48.1  T
   4    -50.7420662 -0.508599E-09  0.141E-04    8.28     138.9  T
speedup  1.03
cpu  time for SCC    0.00 s
wall time for SCC    0.00 s
speedup  1.06
cpu  time for grad    0.01 s
wall time for grad    0.01 s
 E :    -50.45812124  G :  0.000165    pred/act E change: -0.190D-06 -0.155D-06
Maxdispl :   0.0032   ||displ|| :   0.0058   Lambda : -0.156D-06
Largest |displ|/coords:  0.0032 (   1)  0.0027 (  15)  0.0015 (   4)
................................................................................
.............................. CYCLE   65 ......................................
................................................................................
   1    -50.7421142 -0.507421E+02  0.349E-03    8.28       0.0  T
   2    -50.7421142 -0.377226E-08  0.261E-03    8.28       7.5  T
   3    -50.7421142 -0.296799E-08  0.335E-04    8.28      58.5  T
   4    -50.7421142 -0.486054E-09  0.103E-04    8.28     189.5  T
speedup  0.98
cpu  time for SCC    0.00 s
wall time for SCC    0.00 s
speedup  1.06
cpu  time for grad    0.01 s
wall time for grad    0.01 s
 E :    -50.45812135  G :  0.000152    pred/act E change: -0.106D-06 -0.109D-06
Maxdispl :   0.0030   ||displ|| :   0.0062   Lambda : -0.118D-06
Largest |displ|/coords:  0.0030 (   1)  0.0025 (  15)  0.0023 (  14)
................................................................................
.............................. CYCLE   66 ......................................
................................................................................
   1    -50.7421272 -0.507421E+02  0.370E-03    8.28       0.0  T
   2    -50.7421272 -0.280254E-08  0.277E-03    8.28       7.1  T
   3    -50.7421272 -0.295650E-08  0.305E-04    8.28      64.3  T
   4    -50.7421272 -0.213362E-09  0.101E-04    8.28     193.6  T
speedup  0.98
cpu  time for SCC    0.00 s
wall time for SCC    0.00 s
speedup  0.98
cpu  time for grad    0.01 s
wall time for grad    0.01 s
 E :    -50.45812143  G :  0.000153    pred/act E change: -0.779D-07 -0.802D-07
Maxdispl :   0.0025   ||displ|| :   0.0051   Lambda : -0.996D-07
Largest |displ|/coords:  0.0025 (   4)  0.0019 (  14)  0.0018 (   7)

   *** GEOMETRY OPTIMIZATION CONVERGED AFTER 66 ITERATIONS ***

------------------------------------------------------------------------
 total energy gain (kcal):     -0.0325
------------------------------------------------------------------------
================
 final structure:
================
$coord
        2.01044787728870       -1.93603366858643       -1.95158577335441      S 
        0.40258585609267       -3.00167192026901        0.23972223835105      O 
        1.56775078440200       -3.49987034787270       -4.09734334542177      O 
        0.95720872851379        0.74577455684379       -2.38059728059533      O 
        4.58190249372160       -1.60949406650033       -1.13374783319149      O 
        4.92003914917149        0.66217437980999        0.88176548495738      H 
       -1.05403577186693        0.71974500015885       -2.41507219875462      H 
        4.95123185242158        1.93663175088227        2.25479712835570      O 
        6.66661746379819        2.00421811578881        2.83314376446522      H 
       -2.71316396735448        2.71616676177548        2.65390419438499      O 
       -3.80765316675734        3.86862424300473        3.52079425242477      H 
       -3.70444128581019        0.60801960684760       -2.06731751212738      O 
       -3.83828139963456        0.97936584309769       -0.27304733492965      H 
       -3.98508029262657       -1.25424146505711       -2.33953538196552      H 
        0.93693951718623       -0.50493724532303        4.28258291909683      O 
       -0.50506325564564        0.62272334582128        4.04856153521948      H 
        0.69781335219731       -2.10377128229749        1.92985552160873      H 
        2.45071854104675        0.49134042213828        3.93272890002623      H 
        1.14987019392212        5.07917781729101        0.55589290554563      O 
        2.64332001110152        4.38499227687498        1.36656772588556      H 
        1.10804290821637        4.26430417295070       -1.07635729029639      H 
       -1.37214693805529        3.76228444888828        1.85324411408182      H 
       -3.68603796432092       -4.25461290893532       -3.04445936184714      N 
       -3.72651898932091       -5.38235544401014       -1.49960518201079      H 
       -1.86586280188536       -4.24938956303163       -3.68190137844441      H 
       -4.78620291469746       -5.04916483027874       -4.39299077367600      H 
$end
 
 Bond Distances (Angstroems)
 ---------------------------
S1-O2=1.5449         S1-O3=1.4244         S1-O4=1.5415         S1-O5=1.4383         O2-S1=1.5449         O2-H17=1.0247        
O3-S1=1.4244         O4-S1=1.5415         O4-H7=1.0646         O5-S1=1.4383         H6-O8=0.9915         H7-O4=1.0646         
O8-H6=0.9915         O8-H9=0.9586         H9-O8=0.9586         O10-H11=0.9580       O10-H22=0.9948       H11-O10=0.9580       
O12-H13=0.9722       O12-H14=1.0070       H13-O12=0.9722       H14-O12=1.0070       O15-H16=0.9766       O15-H18=0.9767       
H16-O15=0.9766       H17-O2=1.0247        H18-O15=0.9767       O19-H20=0.9714       O19-H21=0.9657       H20-O19=0.9714       
H21-O19=0.9657       H22-O10=0.9948       N23-H24=1.0124       N23-H25=1.0206       N23-H26=1.0124       H24-N23=1.0124       
H25-N23=1.0206       H26-N23=1.0124       
 N  H  Rav=1.0151 sigma=0.0038  Rmin=1.0124  Rmax=1.0206     3
 O  H  Rav=0.9885 sigma=0.0298  Rmin=0.9580  Rmax=1.0646    12
 S  O  Rav=1.4873 sigma=0.0561  Rmin=1.4244  Rmax=1.5449     4
 
 selected bond angles (degree)
 --------------------
O3-S1-O2=107.20                O4-S1-O2=104.33                O4-S1-O3=110.98                O5-S1-O2=109.82                
O5-S1-O3=117.73                O5-S1-O4=106.01                H17-O2-S1=113.70               H7-O4-S1=110.62                
H9-O8-H6=105.97                H22-O10-H11=106.32             
 
 selected dihedral angles (degree)
 ---------------------------------
H17-O2-S1-O3=174.96           H17-O2-S1-O4=292.72           H17-O2-S1-O5= 45.96           H7-O4-S1-O2=313.97            
H7-O4-S1-O3= 69.11            H7-O4-S1-O5=198.04            
 
 CMA Distance (Angstroems)
 ---------------------------
R(CMA):  2.3952

========================================================================
 FINAL SINGLEPOINT CALCULATION ON OPTIMIZED GEOMETRY
========================================================================

 Ncao       : 65
 Nao        : 64
 Nshell     : 38
 Nel        : 80
 T(el)      :   300.0
 intcut     :    25.0
 scfconv/Eh :  0.100E-05
   qconv/e  :  0.100E-03
 intneglect :  0.100E-07
 broydamp   :      0.250
 iter      E             dE          RMSdq      gap      omega  full diag
   1    -50.7421272 -0.507421E+02  0.299E-05    8.28       0.0  T
   2    -50.7421272 -0.162714E-11  0.188E-05    8.28    1045.9  T
   3    -50.7421272 -0.760281E-12  0.515E-06    8.28    3810.9  T
speedup  1.00
cpu  time for SCC    0.00 s
wall time for SCC    0.00 s

   *** convergence criteria satisfied after 3 iterations ***

          eigenvalues
 #    :          28         29         30         31         32         33         34         35
 occ. :        2.000      2.000      2.000      2.000      2.000      2.000      2.000      2.000
 eps  :       -13.773    -13.492    -13.113    -12.719    -12.616    -12.563    -12.504    -12.490
 #    :          36         37         38         39         40         41         42         43
 occ. :        2.000      2.000      2.000      2.000      2.000      0.000      0.000      0.000
 eps  :       -12.262    -12.211    -12.202    -12.032    -11.125     -2.844     -0.814     -0.299
 #    :          44         45         46         47         48         49         50         51
 occ. :        0.000      0.000      0.000      0.000      0.000      0.000      0.000      0.000
 eps  :         0.273      0.807      1.159      1.805      2.861      3.212      4.154      5.625


   #   Z            q   n(s)   n(p)   n(d)      C6AA      α(0)
   1  16 S      1.698  1.576  1.778  0.949    88.820    15.862
   2   8 O     -0.635  1.758  4.877  0.000    26.013     6.885
   3   8 O     -0.676  1.758  4.918  0.000    28.050     7.101
   4   8 O     -0.660  1.764  4.896  0.000    26.664     6.970
   5   8 O     -0.698  1.758  4.939  0.000    28.641     7.175
   6   1 H      0.336  0.664  0.000  0.000     0.623     1.240
   7   1 H      0.393  0.607  0.000  0.000     0.492     1.098
   8   8 O     -0.629  1.743  4.885  0.000    25.885     6.867
   9   1 H      0.293  0.707  0.000  0.000     0.741     1.352
  10   8 O     -0.631  1.752  4.879  0.000    25.953     6.876
  11   1 H      0.287  0.713  0.000  0.000     0.763     1.372
  12   8 O     -0.605  1.758  4.847  0.000    25.260     6.785
  13   1 H      0.329  0.671  0.000  0.000     0.641     1.258
  14   1 H      0.330  0.670  0.000  0.000     0.636     1.252
  15   8 O     -0.615  1.763  4.852  0.000    25.545     6.822
  16   1 H      0.333  0.667  0.000  0.000     0.629     1.246
  17   1 H      0.391  0.609  0.000  0.000     0.499     1.109
  18   1 H      0.330  0.670  0.000  0.000     0.638     1.255
  19   8 O     -0.608  1.748  4.859  0.000    25.369     6.798
  20   1 H      0.322  0.678  0.000  0.000     0.658     1.274
  21   1 H      0.314  0.686  0.000  0.000     0.682     1.297
  22   1 H      0.340  0.660  0.000  0.000     0.613     1.230
  23   7 N     -0.456  1.368  4.088  0.000    31.985     8.399
  24   1 H      0.163  0.837  0.000  0.000     1.314     1.795
  25   1 H      0.194  0.806  0.000  0.000     1.140     1.672
  26   1 H      0.161  0.839  0.000  0.000     1.331     1.807

 Mol. C6AA /au·bohr⁶  :       5455.255528
 Mol. C8AA /au·bohr⁸  :     117829.019473
 Mol. α(0) /au        :        106.797448

 
 Wiberg/Mayer (AO) data. WBOs > 0.1 written file <wbo>
 largest (>0.05) Wiberg bond orders for each atom
           total WBO             WBO to atom ...
     1  S   4.860    O    3 1.440    O    5 1.376    O    4 1.003    O    2 1.002
     2  O   1.957    S    1 1.002    H   17 0.664    O    5 0.089    O    3 0.074    O    4 0.069    O   15 0.052
     3  O   1.788    S    1 1.440    O    5 0.116    O    4 0.092    O    2 0.074
     4  O   1.930    S    1 1.003    H    7 0.597    O    3 0.092    O    5 0.076    O    2 0.069    O   12 0.066
     5  O   1.774    S    1 1.376    O    3 0.116    O    2 0.089    H    6 0.076    O    4 0.076
     6  H   0.887    O    8 0.806    O    5 0.076
     7  H   0.846    O    4 0.597    O   12 0.232
     8  O   1.869    H    9 0.905    H    6 0.806
     9  H   0.914    O    8 0.905
    10  O   1.867    H   11 0.911    H   22 0.797
    11  H   0.918    O   10 0.911
    12  O   2.008    H   13 0.857    H   14 0.770    H    7 0.232    O    4 0.066    N   23 0.052
    13  H   0.892    O   12 0.857
    14  H   0.891    O   12 0.770    N   23 0.119
    15  O   1.956    H   16 0.839    H   18 0.839    H   17 0.164    O    2 0.052
    16  H   0.889    O   15 0.839
    17  H   0.847    O    2 0.664    O   15 0.164
    18  H   0.891    O   15 0.839
    19  O   1.899    H   21 0.882    H   20 0.860    H   22 0.085
    20  H   0.896    O   19 0.860
    21  H   0.902    O   19 0.882
    22  H   0.885    O   10 0.797    O   19 0.085
    23  N   3.064    H   26 0.970    H   24 0.970    H   25 0.930    H   14 0.119    O   12 0.052
    24  H   0.973    N   23 0.970
    25  H   0.963    N   23 0.930
    26  H   0.974    N   23 0.970
 MOs/occ written to file <molden.input>
 
molecular dipole:
                 x           y           z       tot (Debye)
 q only:       -1.050       0.650       1.034
   full:       -0.755       0.396       1.039       3.416
molecular quadrupole (traceless):
                xx          xy          yy          xz          yz          zz
 q only:        6.172       7.352      -2.005       5.721       1.316      -4.167
  q+dip:        7.712       9.140      -1.157       5.225       4.466      -6.555
   full:        8.013       9.152      -1.448       5.173       4.636      -6.565

SCC energy    :     -50.7421272
rep           :       0.2837211
ES            :       0.2312034
AES           :      -0.0562660
AXC           :      -0.0071829
disp          :      -0.0198624
XB            :       0.0000000
fix           :       0.0000000
total E       :     -50.4581214
atomizationE  :       4.9884256     3130.28
(atE without considering molecular charge,
 total energy contains solvation terms)
H-L gap (eV)  :          8.2809
optimized geometry written to: xtbopt.xyz


------------------------------------------------------------------------
 * finished run on 2019/09/16 at 12:10:26.163     
------------------------------------------------------------------------
 total:
 * wall-time:     0 d,  0 h,  0 min,  1.782 sec
 *  cpu-time:     0 d,  0 h,  0 min,  1.764 sec
 * ratio c/w:     0.990 speedup
 SCF:
 * wall-time:     0 d,  0 h,  0 min,  0.157 sec
 *  cpu-time:     0 d,  0 h,  0 min,  0.153 sec
 * ratio c/w:     0.976 speedup
 ANC optimizer:
 * wall-time:     0 d,  0 h,  0 min,  1.597 sec
 *  cpu-time:     0 d,  0 h,  0 min,  1.584 sec
 * ratio c/w:     0.991 speedup

