      -----------------------------------------------------------      
     |                   =====================                   |     
     |                           x T B                           |     
     |                   =====================                   |     
     |                         S. Grimme                         |     
     |          Mulliken Center for Theoretical Chemistry        |     
     |                    University of Bonn                     |     
     |                 Version 6.0.1 (SAW181210)                 |     
      -----------------------------------------------------------      

   This program is distributed in the hope that it will be useful,
   but WITHOUT ANY WARRANTY; without even the implied warranty of
   MERCHANTABILITY or FITNESS FOR A PARTICULAR PURPOSE.
   
   FOR NON-COMMERCIAL, ACADEMIA USE ONLY.
   
   Cite this work as:
   S. Grimme, C. Bannwarth, P. Shushkov, J. Comput. Theory Chem., 2017,
   13, 1989-2009.
   C. Bannwarth, S. Ehlert and S. Grimme., ChemRxiv, 2018, preprint.
   http://doi.org/10.26434/chemrxiv.7246238.v1
   
   for sTDA-xTB:
   S. Grimme and C. Bannwarth, J. Chem. Phys., 2016, 145, 054103.
   
   in the mass-spec context:
   V. Asgeirsson, C. Bauer and S. Grimme, Chem. Sci., 2017, 8, 4879.
   
   if GBSA is used:
   P. Shushkov, F. März and S. Grimme, unpublished.
   
   for ANC optimizer:
   S. Grimme, unpublished.
   Rational Function algorithm used in ANCopt:
   F. Eckert, P. Pulay, H.-J. Werner, J. Comput. Chem., 1997, 18, 1473.
   
   with help from (in alphabetical order)
   C. Bannwarth, F. Bohle, G. Brandenburg, E. Caldeweyher, M. Checinski,
   S. Dohm, S. Ehlert, S. Ehrlich, F. März, H. Neugebauer, J. Pisarek,
   P. Pracht, P. Shushkov, and S. Spicher.
   
 * started run on 2019/09/16 at 11:20:18.078     
========================================================================
 # omp threads = 1
========================================================================
number of atoms            : 26
number of electrons        : 80
charge                     : 0
spin                       : .0
first test random number   : .5697

########################################################################
# WARNING! Please study the warnings concerning your input carefully
#  - XTBPATH is not set, using XTBHOME instead
#  - the use of '-opt' is discouraged, please use '--opt' next time
#  - the use of '-chrg' is discouraged, please use '--chrg' next time
#  - the use of '-uhf' is discouraged, please use '--uhf' next time
########################################################################

           ------------------------------------------------- 
          |                 G F N 2 - x T B                 |
          | Geometry, Frequencies, Noncovalent interactions |
          |            JCTC 2018 parametrisation            |
           ------------------------------------------------- 
      method parameters     
 k(s)        :  1.8500
 k(p)        :  2.2300
 k(d)        :  2.2300
 k(f)        :  2.0000
 kEN (H0ij)  : -2.0000
 D4 a1       :  0.5200
 D4 a2       :  5.0000
 D4 s6       :  1.0000
 D4 s8       :  2.7000
 D4 s9       :  5.0000
 alphaj      :  2.0000


            Z     q(EN)     CN     RAES       Cart. coordinates
     1  S   6.0    0.58    4.28    4.20    -3.20067     2.72970     2.31550
     2  O   6.0   -0.31    1.12    1.80    -1.10308     2.73074     4.09919
     3  O   6.0   -0.30    1.13    1.80    -3.00458     3.74914    -0.20639
     4  O   6.0   -0.24    2.06    1.83    -4.29789    -0.15666     2.21344
     5  O   6.0   -0.22    2.04    1.83    -5.65205     4.05009     3.54635
     6  H   1.0    0.14    1.11    1.45    -5.79487     3.54317     5.30958
     7  H   1.0    0.18    1.30    1.50    -2.87340    -1.28985     2.48377
     8  O   6.0   -0.39    1.67    1.81    -0.52187    -2.83773     2.59456
     9  H   1.0    0.17    0.95    1.42    -0.70471    -4.25963     3.78977
    10  O   6.0   -0.39    1.62    1.81     3.97029     1.45659    -1.27238
    11  H   1.0    0.17    0.95    1.42     5.44762     2.50927    -1.71183
    12  O   6.0   -0.30    2.06    1.83    -1.02378    -4.85198    -1.58476
    13  H   1.0    0.18    1.14    1.45    -0.77630    -4.08712     0.04875
    14  H   1.0    0.15    0.97    1.43    -2.44368    -5.97318    -1.38126
    15  O   6.0   -0.28    1.99    1.82     0.60839     3.43482    -4.02379
    16  H   1.0    0.17    1.10    1.44     1.96367     2.93672    -2.91485
    17  H   1.0    0.18    1.01    1.43    -0.75288     3.93799    -2.92453
    18  O   6.0   -0.23    2.94    2.63     3.01588    -0.02945     2.88547
    19  H   1.0    0.17    1.20    1.47     1.77097    -1.41755     2.77046
    20  H   1.0    0.17    1.22    1.47     3.60292     0.52618     1.20123
    21  H   1.0    0.14    0.99    1.43     2.37903     1.39792     3.90946
    22  N   5.0   -0.15    3.96    2.76     1.87820    -1.61984    -4.22955
    23  H   1.0    0.10    1.00    1.43     0.71648    -0.43900    -5.24958
    24  H   1.0    0.08    0.99    1.43     3.09014    -2.54167    -5.44028
    25  H   1.0    0.12    1.16    1.46     2.90814    -0.57286    -2.95382
    26  H   1.0    0.11    1.07    1.44     0.79803    -2.92582    -3.27451

  Z AO/shell   Hii/eV     exponent
  1     Wed Apr 25 08:07:45 CEST 2018   EN: 2.200 GM2: 0.406  GM3: 0.0800  RAES: 1.40
     1s    -10.707211    1.230000
  7     Wed Apr 25 08:07:45 CEST 2018   EN: 3.040 GM2: 0.461  GM3:-0.0640  RAES: 1.90
     2s    -16.686243    2.339881
     2p    -12.523956    2.014332
  8     Wed Apr 25 08:07:45 CEST 2018   EN: 3.440 GM2: 0.452  GM3:-0.0517  RAES: 1.80
     2s    -20.229985    2.439742
     2p    -15.503117    2.137023
 16     Tue Apr 24 11:44:34 CEST 2018   EN: 2.580 GM2: 0.340  GM3:-0.0502  RAES: 3.10
     3s    -20.029654    1.981333
     3p    -11.377694    2.025643
     3d     -0.420282    1.702555
 no old-style atom pair restraining (fixing) potential

molecular fragmentation (1/2 indicates fragments):
11111112222222222222222222
# atoms in fragment 1/2:     7    19
 fragment masses (1/2) :       98.07      107.11
CMA distance (Bohr)    :   6.683
constraining FC (au)   :  0.0500
           ------------------------------------------------- 
          |        Self-Consistent Charge Iterations        |
           ------------------------------------------------- 

 Ncao       : 65
 Nao        : 64
 Nshell     : 38
 Nel        : 80
 T(el)      :   300.0
 intcut     :    25.0
 scfconv/Eh :  0.100E-05
   qconv/e  :  0.100E-03
 intneglect :  0.100E-07
 broydamp   :      0.250
 iter      E             dE          RMSdq      gap      omega  full diag
   1    -50.5339082 -0.505339E+02  0.712E+00    8.15       0.0  T
   2    -50.5868567 -0.529485E-01  0.502E+00    7.15       1.0  T
   3    -50.6301252 -0.432685E-01  0.121E+00    4.56       1.0  T
   4    -50.6337629 -0.363769E-02  0.679E-01    4.77       1.0  T
   5    -50.6352041 -0.144118E-02  0.278E-01    4.83       1.0  T
   6    -50.6355629 -0.358809E-03  0.162E-01    4.88       1.0  T
   7    -50.6357284 -0.165526E-03  0.481E-02    4.89       1.0  T
   8    -50.6357405 -0.121531E-04  0.263E-02    4.88       1.0  T
   9    -50.6357442 -0.370367E-05  0.899E-03    4.90       2.2  T
  10    -50.6357446 -0.395299E-06  0.271E-03    4.90       7.2  T
  11    -50.6357447 -0.156704E-07  0.129E-03    4.90      15.2  T
  12    -50.6357447 -0.809408E-08  0.365E-04    4.90      53.7  T
  13    -50.6357447 -0.446498E-09  0.187E-04    4.90     105.1  T
speedup  1.02
cpu  time for SCC    0.01 s
wall time for SCC    0.01 s

   *** convergence criteria satisfied after 13 iterations ***

          eigenvalues
 #    :          28         29         30         31         32         33         34         35
 occ. :        2.000      2.000      2.000      2.000      2.000      2.000      2.000      2.000
 eps  :       -12.865    -12.726    -12.598    -12.509    -12.465    -12.323    -12.025    -11.574
 #    :          36         37         38         39         40         41         42         43
 occ. :        2.000      2.000      2.000      2.000      2.000      0.000      0.000      0.000
 eps  :       -10.419    -10.355    -10.118     -9.954     -9.664     -4.766     -2.104     -0.876
 #    :          44         45         46         47         48         49         50         51
 occ. :        0.000      0.000      0.000      0.000      0.000      0.000      0.000      0.000
 eps  :        -0.738      0.454      0.951      2.227      2.775      3.388      3.951      4.031


   #   Z            q   n(s)   n(p)   n(d)      C6AA      α(0)
   1  16 S      1.652  1.629  1.796  0.923    89.864    15.955
   2   8 O     -0.672  1.768  4.904  0.000    27.962     7.090
   3   8 O     -0.621  1.766  4.854  0.000    26.627     6.918
   4   8 O     -0.622  1.773  4.849  0.000    25.683     6.841
   5   8 O     -0.561  1.754  4.806  0.000    24.233     6.646
   6   1 H      0.349  0.651  0.000  0.000     0.588     1.203
   7   1 H      0.385  0.615  0.000  0.000     0.509     1.118
   8   8 O     -0.857  1.844  5.013  0.000    33.333     7.742
   9   1 H      0.212  0.788  0.000  0.000     1.058     1.616
  10   8 O     -0.862  1.828  5.034  0.000    33.466     7.758
  11   1 H      0.204  0.796  0.000  0.000     1.096     1.645
  12   8 O     -0.656  1.740  4.916  0.000    26.576     6.958
  13   1 H      0.336  0.664  0.000  0.000     0.620     1.235
  14   1 H      0.274  0.726  0.000  0.000     0.806     1.410
  15   8 O     -0.673  1.756  4.918  0.000    27.006     7.014
  16   1 H      0.316  0.684  0.000  0.000     0.674     1.289
  17   1 H      0.287  0.713  0.000  0.000     0.760     1.369
  18   8 O     -0.467  1.664  4.803  0.000    22.140     6.355
  19   1 H      0.396  0.604  0.000  0.000     0.485     1.091
  20   1 H      0.397  0.603  0.000  0.000     0.484     1.088
  21   1 H      0.367  0.633  0.000  0.000     0.550     1.165
  22   7 N     -0.304  1.260  4.045  0.000    27.818     7.834
  23   1 H      0.273  0.727  0.000  0.000     0.801     1.402
  24   1 H      0.224  0.776  0.000  0.000     0.990     1.559
  25   1 H      0.323  0.677  0.000  0.000     0.648     1.261
  26   1 H      0.300  0.700  0.000  0.000     0.713     1.323

 Mol. C6AA /au·bohr⁶  :       5486.666938
 Mol. C8AA /au·bohr⁸  :     118731.537453
 Mol. α(0) /au        :        106.885129

 
 Wiberg/Mayer (AO) data. WBOs > 0.1 written file <wbo>
 largest (>0.05) Wiberg bond orders for each atom
           total WBO             WBO to atom ...
     1  S   4.762    O    3 1.463    O    2 1.393    O    4 0.951    O    5 0.923
     2  O   1.760    S    1 1.393    O    3 0.143    O    4 0.106    O    5 0.087
     3  O   1.824    S    1 1.463    O    2 0.143    O    4 0.103    O    5 0.073
     4  O   1.948    S    1 0.951    H    7 0.676    O    2 0.106    O    3 0.103    O    5 0.056    O    8 0.051
     5  O   2.007    S    1 0.923    H    6 0.859    O    2 0.087    O    3 0.073    O    4 0.056
     6  H   0.878    O    5 0.859
     7  H   0.852    O    4 0.676    O    8 0.160
     8  O   1.611    H    9 0.949    H   19 0.190    H    7 0.160    H   13 0.129    O   18 0.061    O   12 0.054    O    4 0.051
     9  H   0.955    O    8 0.949
    10  O   1.580    H   11 0.946    H   20 0.202    H   25 0.155    H   16 0.094    N   22 0.066    O   18 0.063
    11  H   0.958    O   10 0.946
    12  O   1.821    H   14 0.911    H   13 0.757    H   26 0.068    O    8 0.054
    13  H   0.887    O   12 0.757    O    8 0.129
    14  H   0.925    O   12 0.911
    15  O   1.790    H   17 0.893    H   16 0.802
    16  H   0.900    O   15 0.802    O   10 0.094
    17  H   0.917    O   15 0.893
    18  O   2.264    H   21 0.836    H   19 0.647    H   20 0.634    O   10 0.063    O    8 0.061
    19  H   0.843    O   18 0.647    O    8 0.190
    20  H   0.843    O   18 0.634    O   10 0.202
    21  H   0.865    O   18 0.836
    22  N   3.543    H   24 0.945    H   23 0.904    H   26 0.836    H   25 0.733    O   10 0.066
    23  H   0.926    N   22 0.904
    24  H   0.950    N   22 0.945
    25  H   0.896    N   22 0.733    O   10 0.155
    26  H   0.910    N   22 0.836    O   12 0.068
 MOs/occ written to file <molden.input>
 
molecular dipole:
                 x           y           z       tot (Debye)
 q only:        0.848      -1.457      -0.041
   full:        0.575      -1.545       0.576       4.439
molecular quadrupole (traceless):
                xx          xy          yy          xz          yz          zz
 q only:       -3.140      -2.021      -9.214      -8.238      16.111      12.354
  q+dip:       -2.989       0.746      -7.863     -11.863      16.345      10.852
   full:       -2.922       0.762      -7.896     -12.182      16.372      10.818

SCC energy    :     -50.6357447
rep           :       0.2772860
ES            :       0.3118078
AES           :      -0.0583295
AXC           :      -0.0046402
disp          :      -0.0176071
XB            :       0.0000000
fix           :       0.0000000
total E       :     -50.3580557
atomizationE  :       4.8883599     3067.49
(atE without considering molecular charge,
 total energy contains solvation terms)
H-L gap (eV)  :          4.8980
           ------------------------------------------------- 
          |                 ===============                 |
          |                   A N C O P T                   |
          |                 ===============                 |
          |          Approximate Normal Coordinate          |
          |           Rational Function Optimizer           |
           ------------------------------------------------- 
dumping coords to <xtbopt.coord> and <xtbopt.log>
 optlevel               2
 Maxcycle             520
 Maxmicro              25
 Econv         1.000000000000000E-007
 Gconv         2.000000000000000E-004
 Maxdispl       1.00000000000000     
 Hlow          5.000000000000000E-003
 S6             20.0000000000000     
 Nvar               72

generating ANC from model Hessian ...
 Shifting diagonal of input Hessian by   4.986612091022960E-003
 Lowest  eigenvalues of input Hessian
   -0.000000   -0.000000   -0.000000    0.000000    0.000000    0.000000
    0.005000    0.005312    0.005407    0.005954    0.006103    0.007011
    0.007316    0.007481    0.007812    0.008952    0.009861    0.011211
 Highest eigenvalues
    1.448293    1.567148    1.603912    1.953737    2.769918    3.590350
 
cpu  time for ANC gen    0.01 s
wall time for ANC gen    0.02 s
................................................................................
.............................. CYCLE    1 ......................................
................................................................................
   1    -50.6357447 -0.506357E+02  0.458E-05    4.90       0.0  T
   2    -50.6357447 -0.348166E-11  0.346E-05    4.90     566.2  T
   3    -50.6357447 -0.284928E-11  0.140E-05    4.90    1396.3  T
speedup  1.07
cpu  time for SCC    0.00 s
wall time for SCC    0.00 s
speedup  0.99
cpu  time for grad    0.01 s
wall time for grad    0.01 s
 E :    -50.35805568  G :  0.197445    pred/act E change:  0.000D+00  0.237D-07
Maxdispl :   0.1004   ||displ|| :   0.2912   Lambda : -0.366D-01
Largest |displ|/coords:  0.1004 (  28)  0.0985 (  55)  0.0791 (  14)
................................................................................
.............................. CYCLE    2 ......................................
................................................................................
   1    -50.6525128 -0.506525E+02  0.329E-01    5.63       0.0  T
   2    -50.6527534 -0.240596E-03  0.242E-01    5.70       1.0  T
   3    -50.6528629 -0.109473E-03  0.739E-02    5.83       1.0  T
   4    -50.6528801 -0.171564E-04  0.258E-02    5.83       1.0  T
   5    -50.6528813 -0.125497E-05  0.657E-03    5.82       3.0  T
   6    -50.6528814 -0.723374E-07  0.358E-03    5.82       5.5  T
   7    -50.6528814 -0.230068E-07  0.132E-03    5.82      14.8  T
speedup  0.95
cpu  time for SCC    0.01 s
wall time for SCC    0.01 s
speedup  0.95
cpu  time for grad    0.01 s
wall time for grad    0.01 s
 E :    -50.38597800  G :  0.109361    pred/act E change:  0.000D+00 -0.279D-01
Maxdispl :   0.1160   ||displ|| :   0.3361   Lambda : -0.160D-01
Largest |displ|/coords:  0.1160 (  12)  0.1114 (  14)  0.1065 (  23)
................................................................................
.............................. CYCLE    3 ......................................
................................................................................
   1    -50.6610594 -0.506611E+02  0.346E-01    6.42       0.0  T
   2    -50.6613425 -0.283067E-03  0.251E-01    6.51       1.0  T
   3    -50.6614555 -0.112973E-03  0.783E-02    6.68       1.0  T
   4    -50.6614742 -0.187068E-04  0.208E-02    6.67       1.0  T
   5    -50.6614753 -0.113133E-05  0.526E-03    6.66       3.7  T
   6    -50.6614754 -0.419408E-07  0.310E-03    6.66       6.3  T
speedup  0.88
cpu  time for SCC    0.01 s
wall time for SCC    0.01 s
speedup  0.89
cpu  time for grad    0.01 s
wall time for grad    0.01 s
 E :    -50.39916121  G :  0.073889    pred/act E change: -0.198D-01 -0.132D-01
Maxdispl :   0.1497   ||displ|| :   0.3584   Lambda : -0.928D-02
Largest |displ|/coords:  0.1497 (  12)  0.1318 (  15)  0.1166 (  23)
................................................................................
.............................. CYCLE    4 ......................................
................................................................................
   1    -50.6643064 -0.506643E+02  0.337E-01    7.12       0.0  T
   2    -50.6646073 -0.300869E-03  0.241E-01    7.21       1.0  T
   3    -50.6647254 -0.118134E-03  0.792E-02    7.38       1.0  T
   4    -50.6647433 -0.178439E-04  0.174E-02    7.37       1.1  T
   5    -50.6647442 -0.935045E-06  0.540E-03    7.37       3.6  T
   6    -50.6647442 -0.368486E-07  0.312E-03    7.36       6.3  T
speedup  0.94
cpu  time for SCC    0.00 s
wall time for SCC    0.01 s
speedup  1.00
cpu  time for grad    0.01 s
wall time for grad    0.01 s
 E :    -50.40689059  G :  0.055860    pred/act E change: -0.889D-02 -0.773D-02
Maxdispl :   0.1135   ||displ|| :   0.3053   Lambda : -0.552D-02
Largest |displ|/coords:  0.1135 (  15)  0.1058 (   2)  0.0981 (  23)
................................................................................
.............................. CYCLE    5 ......................................
................................................................................
   1    -50.6679826 -0.506680E+02  0.243E-01    7.68       0.0  T
   2    -50.6681935 -0.210816E-03  0.171E-01    7.75       1.0  T
   3    -50.6682776 -0.841448E-04  0.626E-02    7.86       1.0  T
   4    -50.6682865 -0.890976E-05  0.130E-02    7.86       1.5  T
   5    -50.6682870 -0.508101E-06  0.460E-03    7.86       4.3  T
   6    -50.6682870 -0.263811E-07  0.255E-03    7.86       7.7  T
speedup  1.09
cpu  time for SCC    0.01 s
wall time for SCC    0.01 s
speedup  1.05
cpu  time for grad    0.01 s
wall time for grad    0.01 s
 E :    -50.41151552  G :  0.043840    pred/act E change: -0.523D-02 -0.462D-02
Maxdispl :   0.1607   ||displ|| :   0.4932   Lambda : -0.836D-02
Largest |displ|/coords:  0.1607 (  23)  0.1562 (  12)  0.1407 (  15)
................................................................................
.............................. CYCLE    6 ......................................
................................................................................
   1    -50.6711168 -0.506711E+02  0.503E-01    8.38       0.0  T
   2    -50.6718860 -0.769198E-03  0.358E-01    8.47       1.0  T
   3    -50.6722066 -0.320608E-03  0.124E-01    8.61       1.0  T
   4    -50.6722517 -0.450515E-04  0.251E-02    8.64       1.0  T
   5    -50.6722531 -0.146173E-05  0.109E-02    8.63       1.8  T
   6    -50.6722533 -0.134133E-06  0.532E-03    8.63       3.7  T
   7    -50.6722533 -0.551824E-07  0.163E-03    8.63      12.0  T
speedup  0.97
cpu  time for SCC    0.01 s
wall time for SCC    0.01 s
speedup  1.01
cpu  time for grad    0.01 s
wall time for grad    0.01 s
 E :    -50.41635137  G :  0.050851    pred/act E change: -0.302D-02 -0.484D-02
Maxdispl :   0.2141   ||displ|| :   0.4701   Lambda : -0.817D-02
Largest |displ|/coords:  0.2141 (   7)  0.1664 (  13)  0.1529 (  10)
................................................................................
.............................. CYCLE    7 ......................................
................................................................................
   1    -50.6832582 -0.506833E+02  0.662E-01    8.68       0.0  T
   2    -50.6835383 -0.280035E-03  0.496E-01    8.71       1.0  T
   3    -50.6837176 -0.179356E-03  0.933E-02    8.78       1.0  T
   4    -50.6837572 -0.395713E-04  0.200E-02    8.78       1.0  T
   5    -50.6837579 -0.726306E-06  0.991E-03    8.78       2.0  T
   6    -50.6837580 -0.835003E-07  0.417E-03    8.77       4.7  T
   7    -50.6837580 -0.307982E-07  0.104E-03    8.77      18.9  T
speedup  1.13
cpu  time for SCC    0.01 s
wall time for SCC    0.01 s
speedup  1.01
cpu  time for grad    0.01 s
wall time for grad    0.01 s
 E :    -50.41546240  G :  0.091854    pred/act E change: -0.519D-02  0.889D-03
Maxdispl :   0.1239   ||displ|| :   0.2862   Lambda : -0.833D-02
Largest |displ|/coords:  0.1239 (  14)  0.1208 (   8)  0.0810 (   9)
................................................................................
.............................. CYCLE    8 ......................................
................................................................................
   1    -50.6796141 -0.506796E+02  0.395E-01    8.72       0.0  T
   2    -50.6797168 -0.102727E-03  0.295E-01    8.72       1.0  T
   3    -50.6797824 -0.656538E-04  0.580E-02    8.75       1.0  T
   4    -50.6797953 -0.128207E-04  0.181E-02    8.75       1.1  T
   5    -50.6797958 -0.528414E-06  0.518E-03    8.75       3.8  T
   6    -50.6797958 -0.368118E-07  0.315E-03    8.75       6.2  T
speedup  0.93
cpu  time for SCC    0.00 s
wall time for SCC    0.01 s
speedup  0.99
cpu  time for grad    0.01 s
wall time for grad    0.01 s
 E :    -50.42021656  G :  0.043533    pred/act E change: -0.499D-02 -0.475D-02
Maxdispl :   0.2108   ||displ|| :   0.4355   Lambda : -0.529D-02
Largest |displ|/coords:  0.2108 (  12)  0.1894 (  10)  0.1134 (  20)
................................................................................
.............................. CYCLE    9 ......................................
................................................................................
   1    -50.6648944 -0.506649E+02  0.488E-01    8.71       0.0  T
   2    -50.6652307 -0.336245E-03  0.358E-01    8.78       1.0  T
   3    -50.6654062 -0.175524E-03  0.102E-01    8.90       1.0  T
   4    -50.6654402 -0.340303E-04  0.305E-02    8.90       1.0  T
   5    -50.6654421 -0.186325E-05  0.926E-03    8.89       2.1  T
   6    -50.6654423 -0.160795E-06  0.597E-03    8.89       3.3  T
   7    -50.6654423 -0.381727E-07  0.119E-03    8.89      16.5  T
speedup  0.95
cpu  time for SCC    0.01 s
wall time for SCC    0.01 s
speedup  1.00
cpu  time for grad    0.01 s
wall time for grad    0.01 s
 E :    -50.41980787  G :  0.092517    pred/act E change: -0.451D-02  0.409D-03
Maxdispl :   0.1628   ||displ|| :   0.4239   Lambda : -0.177D-01
Largest |displ|/coords:  0.1628 (  10)  0.1593 (  12)  0.1258 (  18)
................................................................................
.............................. CYCLE   10 ......................................
................................................................................
   1    -50.6972166 -0.506972E+02  0.611E-01    9.07       0.0  T
   2    -50.6975352 -0.318623E-03  0.453E-01    9.06       1.0  T
   3    -50.6977592 -0.223980E-03  0.998E-02    9.03       1.0  T
   4    -50.6977933 -0.340958E-04  0.193E-02    9.06       1.0  T
   5    -50.6977940 -0.629383E-06  0.109E-02    9.06       1.8  T
   6    -50.6977940 -0.915127E-07  0.366E-03    9.06       5.4  T
   7    -50.6977941 -0.314019E-07  0.112E-03    9.06      17.4  T
speedup  0.97
cpu  time for SCC    0.01 s
wall time for SCC    0.01 s
speedup  1.00
cpu  time for grad    0.01 s
wall time for grad    0.01 s
 E :    -50.42293486  G :  0.083594    pred/act E change: -0.315D-02 -0.313D-02
Maxdispl :   0.1303   ||displ|| :   0.3471   Lambda : -0.123D-01
Largest |displ|/coords:  0.1303 (  15)  0.0992 (  20)  0.0956 (  12)
................................................................................
.............................. CYCLE   11 ......................................
................................................................................
   1    -50.6850644 -0.506851E+02  0.404E-01    9.01       0.0  T
   2    -50.6853104 -0.245940E-03  0.296E-01    9.07       1.0  T
   3    -50.6854522 -0.141789E-03  0.863E-02    9.17       1.0  T
   4    -50.6854747 -0.225163E-04  0.307E-02    9.16       1.0  T
   5    -50.6854766 -0.190756E-05  0.821E-03    9.16       2.4  T
   6    -50.6854767 -0.131230E-06  0.523E-03    9.16       3.8  T
   7    -50.6854768 -0.305994E-07  0.104E-03    9.16      18.8  T
speedup  0.97
cpu  time for SCC    0.01 s
wall time for SCC    0.01 s
speedup  1.01
cpu  time for grad    0.01 s
wall time for grad    0.01 s
 E :    -50.42866422  G :  0.064782    pred/act E change: -0.104D-01 -0.573D-02
Maxdispl :   0.1032   ||displ|| :   0.2616   Lambda : -0.675D-02
Largest |displ|/coords:  0.1032 (   4)  0.0813 (   8)  0.0682 (   9)
................................................................................
.............................. CYCLE   12 ......................................
................................................................................
   1    -50.7000699 -0.507001E+02  0.255E-01    9.22       0.0  T
   2    -50.7001339 -0.640596E-04  0.190E-01    9.22       1.0  T
   3    -50.7001879 -0.539550E-04  0.484E-02    9.22       1.0  T
   4    -50.7001936 -0.568639E-05  0.192E-02    9.22       1.0  T
   5    -50.7001941 -0.522169E-06  0.523E-03    9.22       3.8  T
   6    -50.7001941 -0.376582E-07  0.301E-03    9.22       6.5  T
speedup  1.11
cpu  time for SCC    0.01 s
wall time for SCC    0.01 s
speedup  1.05
cpu  time for grad    0.01 s
wall time for grad    0.01 s
 E :    -50.43308559  G :  0.054631    pred/act E change: -0.691D-02 -0.442D-02
Maxdispl :   0.0906   ||displ|| :   0.2539   Lambda : -0.554D-02
Largest |displ|/coords:  0.0906 (  22)  0.0884 (   7)  0.0777 (  20)
................................................................................
.............................. CYCLE   13 ......................................
................................................................................
   1    -50.7054428 -0.507054E+02  0.234E-01    9.24       0.0  T
   2    -50.7055074 -0.645266E-04  0.173E-01    9.23       1.0  T
   3    -50.7055500 -0.425923E-04  0.446E-02    9.22       1.0  T
   4    -50.7055572 -0.723714E-05  0.155E-02    9.22       1.3  T
   5    -50.7055575 -0.347759E-06  0.513E-03    9.22       3.8  T
   6    -50.7055576 -0.370741E-07  0.285E-03    9.22       6.9  T
speedup  0.93
cpu  time for SCC    0.01 s
wall time for SCC    0.01 s
speedup  0.99
cpu  time for grad    0.01 s
wall time for grad    0.01 s
 E :    -50.43726994  G :  0.045713    pred/act E change: -0.361D-02 -0.418D-02
Maxdispl :   0.1727   ||displ|| :   0.5390   Lambda : -0.117D-01
Largest |displ|/coords:  0.1727 (  20)  0.1564 (  27)  0.1527 (  69)
................................................................................
.............................. CYCLE   14 ......................................
................................................................................
   1    -50.7329922 -0.507330E+02  0.453E-01    9.24       0.0  T
   2    -50.7332711 -0.278899E-03  0.333E-01    9.22       1.0  T
   3    -50.7334657 -0.194608E-03  0.995E-02    9.17       1.0  T
   4    -50.7334956 -0.299537E-04  0.330E-02    9.16       1.0  T
   5    -50.7334975 -0.189114E-05  0.106E-02    9.17       1.9  T
   6    -50.7334977 -0.166316E-06  0.554E-03    9.17       3.5  T
   7    -50.7334977 -0.365965E-07  0.164E-03    9.17      11.9  T
speedup  1.11
cpu  time for SCC    0.01 s
wall time for SCC    0.01 s
speedup  1.01
cpu  time for grad    0.01 s
wall time for grad    0.01 s
 E :    -50.44122187  G :  0.070004    pred/act E change: -0.295D-02 -0.395D-02
Maxdispl :   0.1780   ||displ|| :   0.4454   Lambda : -0.137D-01
Largest |displ|/coords:  0.1780 (   5)  0.1439 (  16)  0.1348 (  26)
................................................................................
.............................. CYCLE   15 ......................................
................................................................................
   1    -50.7095252 -0.507095E+02  0.493E-01    9.12       0.0  T
   2    -50.7099250 -0.399722E-03  0.366E-01    9.13       1.0  T
   3    -50.7101362 -0.211274E-03  0.107E-01    9.16       1.0  T
   4    -50.7101787 -0.424640E-04  0.266E-02    9.16       1.0  T
   5    -50.7101804 -0.166547E-05  0.981E-03    9.16       2.0  T
   6    -50.7101805 -0.104225E-06  0.518E-03    9.16       3.8  T
   7    -50.7101805 -0.612187E-07  0.148E-03    9.15      13.3  T
speedup  0.97
cpu  time for SCC    0.01 s
wall time for SCC    0.01 s
speedup  1.01
cpu  time for grad    0.01 s
wall time for grad    0.01 s
 E :    -50.44002510  G :  0.071339    pred/act E change: -0.752D-02  0.120D-02
Maxdispl :   0.1705   ||displ|| :   0.4387   Lambda : -0.184D-01
Largest |displ|/coords:  0.1705 (   5)  0.1474 (  26)  0.1413 (   2)
................................................................................
.............................. CYCLE   16 ......................................
................................................................................
   1    -50.7325576 -0.507326E+02  0.526E-01    9.16       0.0  T
   2    -50.7329939 -0.436382E-03  0.392E-01    9.15       1.0  T
   3    -50.7332152 -0.221260E-03  0.116E-01    9.11       1.0  T
   4    -50.7332642 -0.489640E-04  0.281E-02    9.11       1.0  T
   5    -50.7332663 -0.214167E-05  0.112E-02    9.11       1.8  T
   6    -50.7332664 -0.114432E-06  0.511E-03    9.11       3.8  T
   7    -50.7332665 -0.609400E-07  0.147E-03    9.11      13.3  T
speedup  0.95
cpu  time for SCC    0.01 s
wall time for SCC    0.01 s
speedup  1.01
cpu  time for grad    0.01 s
wall time for grad    0.01 s
 E :    -50.44275240  G :  0.069698    pred/act E change: -0.821D-02 -0.273D-02
Maxdispl :   0.1434   ||displ|| :   0.3592   Lambda : -0.120D-01
Largest |displ|/coords:  0.1434 (  25)  0.1157 (   2)  0.1157 (  16)
................................................................................
.............................. CYCLE   17 ......................................
................................................................................
   1    -50.7289079 -0.507289E+02  0.427E-01    9.15       0.0  T
   2    -50.7291480 -0.240115E-03  0.318E-01    9.15       1.0  T
   3    -50.7292726 -0.124572E-03  0.840E-02    9.16       1.0  T
   4    -50.7293008 -0.281949E-04  0.211E-02    9.16       1.0  T
   5    -50.7293017 -0.993217E-06  0.712E-03    9.15       2.8  T
   6    -50.7293018 -0.533881E-07  0.402E-03    9.15       4.9  T
   7    -50.7293018 -0.330122E-07  0.106E-03    9.15      18.5  T
speedup  0.97
cpu  time for SCC    0.01 s
wall time for SCC    0.01 s
speedup  1.01
cpu  time for grad    0.01 s
wall time for grad    0.01 s
 E :    -50.44430510  G :  0.060407    pred/act E change: -0.110D-01 -0.155D-02
Maxdispl :   0.1070   ||displ|| :   0.3072   Lambda : -0.927D-02
Largest |displ|/coords:  0.1070 (  27)  0.1002 (  11)  0.0782 (   1)
................................................................................
.............................. CYCLE   18 ......................................
................................................................................
   1    -50.7182356 -0.507182E+02  0.366E-01    9.07       0.0  T
   2    -50.7183934 -0.157774E-03  0.270E-01    9.07       1.0  T
   3    -50.7184776 -0.841783E-04  0.688E-02    9.08       1.0  T
   4    -50.7184950 -0.174052E-04  0.164E-02    9.08       1.2  T
   5    -50.7184956 -0.631095E-06  0.610E-03    9.08       3.2  T
   6    -50.7184957 -0.378730E-07  0.314E-03    9.08       6.2  T
   7    -50.7184957 -0.204011E-07  0.774E-04    9.08      25.3  T
speedup  1.11
cpu  time for SCC    0.01 s
wall time for SCC    0.01 s
speedup  1.01
cpu  time for grad    0.01 s
wall time for grad    0.01 s
 E :    -50.44470592  G :  0.050022    pred/act E change: -0.680D-02 -0.401D-03
Maxdispl :   0.0732   ||displ|| :   0.2834   Lambda : -0.918D-02
Largest |displ|/coords:  0.0732 (  24)  0.0712 (   2)  0.0698 (   9)
................................................................................
.............................. CYCLE   19 ......................................
................................................................................
   1    -50.7420535 -0.507421E+02  0.333E-01    9.20       0.0  T
   2    -50.7421896 -0.136029E-03  0.245E-01    9.19       1.0  T
   3    -50.7422800 -0.903885E-04  0.634E-02    9.16       1.0  T
   4    -50.7422927 -0.127949E-04  0.169E-02    9.16       1.2  T
   5    -50.7422933 -0.596604E-06  0.623E-03    9.16       3.1  T
   6    -50.7422934 -0.220017E-07  0.300E-03    9.16       6.5  T
   7    -50.7422934 -0.239537E-07  0.732E-04    9.16      26.8  T
speedup  0.95
cpu  time for SCC    0.01 s
wall time for SCC    0.01 s
speedup  1.01
cpu  time for grad    0.01 s
wall time for grad    0.01 s
 E :    -50.44541446  G :  0.055532    pred/act E change: -0.507D-02 -0.709D-03
Maxdispl :   0.0805   ||displ|| :   0.2383   Lambda : -0.889D-02
Largest |displ|/coords:  0.0805 (   9)  0.0672 (  31)  0.0651 (  24)
................................................................................
.............................. CYCLE   20 ......................................
................................................................................
   1    -50.7181456 -0.507181E+02  0.257E-01    9.06       0.0  T
   2    -50.7182347 -0.890766E-04  0.190E-01    9.07       1.0  T
   3    -50.7183085 -0.738509E-04  0.508E-02    9.10       1.0  T
   4    -50.7183156 -0.712763E-05  0.154E-02    9.10       1.3  T
   5    -50.7183160 -0.348638E-06  0.517E-03    9.10       3.8  T
   6    -50.7183160 -0.449998E-07  0.260E-03    9.10       7.5  T
speedup  0.93
cpu  time for SCC    0.00 s
wall time for SCC    0.01 s
speedup  1.00
cpu  time for grad    0.01 s
wall time for grad    0.01 s
 E :    -50.44609484  G :  0.038978    pred/act E change: -0.496D-02 -0.680D-03
Maxdispl :   0.0569   ||displ|| :   0.1384   Lambda : -0.312D-02
Largest |displ|/coords:  0.0569 (   3)  0.0562 (  22)  0.0346 (  19)
................................................................................
.............................. CYCLE   21 ......................................
................................................................................
   1    -50.7279735 -0.507280E+02  0.126E-01    9.11       0.0  T
   2    -50.7279927 -0.192658E-04  0.940E-02    9.11       1.0  T
   3    -50.7280109 -0.181633E-04  0.249E-02    9.10       1.0  T
   4    -50.7280124 -0.151888E-05  0.847E-03    9.10       2.3  T
   5    -50.7280125 -0.108258E-06  0.295E-03    9.10       6.7  T
   6    -50.7280125 -0.123282E-07  0.152E-03    9.10      12.9  T
speedup  1.13
cpu  time for SCC    0.01 s
wall time for SCC    0.01 s
speedup  1.00
cpu  time for grad    0.01 s
wall time for grad    0.01 s
 E :    -50.44802325  G :  0.014904    pred/act E change: -0.470D-02 -0.193D-02
Maxdispl :   0.0698   ||displ|| :   0.1351   Lambda : -0.811D-03
Largest |displ|/coords:  0.0698 (   3)  0.0523 (  20)  0.0312 (   7)
................................................................................
.............................. CYCLE   22 ......................................
................................................................................
   1    -50.7348900 -0.507349E+02  0.941E-02    9.14       0.0  T
   2    -50.7348969 -0.688063E-05  0.692E-02    9.14       1.0  T
   3    -50.7349023 -0.539850E-05  0.156E-02    9.14       1.3  T
   4    -50.7349030 -0.663294E-06  0.461E-03    9.14       4.3  T
   5    -50.7349030 -0.354914E-07  0.179E-03    9.14      11.0  T
   6    -50.7349030 -0.419367E-08  0.792E-04    9.14      24.8  T
speedup  1.13
cpu  time for SCC    0.01 s
wall time for SCC    0.01 s
speedup  1.08
cpu  time for grad    0.01 s
wall time for grad    0.01 s
 E :    -50.44838031  G :  0.016136    pred/act E change: -0.159D-02 -0.357D-03
Maxdispl :   0.1158   ||displ|| :   0.1837   Lambda : -0.600D-03
Largest |displ|/coords:  0.1158 (   3)  0.0858 (   6)  0.0350 (  20)
................................................................................
.............................. CYCLE   23 ......................................
................................................................................
   1    -50.7337739 -0.507338E+02  0.111E-01    9.12       0.0  T
   2    -50.7337790 -0.509856E-05  0.821E-02    9.12       1.0  T
   3    -50.7337824 -0.332260E-05  0.142E-02    9.12       1.4  T
   4    -50.7337830 -0.652377E-06  0.358E-03    9.12       5.5  T
   5    -50.7337830 -0.267118E-07  0.139E-03    9.12      14.1  T
   6    -50.7337830 -0.242382E-08  0.785E-04    9.12      25.0  T
speedup  0.93
cpu  time for SCC    0.00 s
wall time for SCC    0.01 s
speedup  1.00
cpu  time for grad    0.01 s
wall time for grad    0.01 s
 E :    -50.44884068  G :  0.017234    pred/act E change: -0.413D-03 -0.460D-03
Maxdispl :   0.2718   ||displ|| :   0.4254   Lambda : -0.147D-02
Largest |displ|/coords:  0.2718 (   3)  0.1414 (   6)  0.0882 (  20)
................................................................................
.............................. CYCLE   24 ......................................
................................................................................
   1    -50.7345806 -0.507346E+02  0.221E-01    9.14       0.0  T
   2    -50.7345963 -0.157340E-04  0.165E-01    9.13       1.0  T
   3    -50.7346080 -0.117198E-04  0.252E-02    9.13       1.0  T
   4    -50.7346098 -0.179720E-05  0.684E-03    9.14       2.9  T
   5    -50.7346099 -0.663007E-07  0.258E-03    9.14       7.6  T
   6    -50.7346099 -0.694484E-08  0.140E-03    9.14      14.0  T
speedup  1.11
cpu  time for SCC    0.01 s
wall time for SCC    0.01 s
speedup  1.00
cpu  time for grad    0.01 s
wall time for grad    0.01 s
 E :    -50.44959195  G :  0.023191    pred/act E change: -0.310D-03 -0.751D-03
Maxdispl :   0.2388   ||displ|| :   0.3972   Lambda : -0.121D-02
Largest |displ|/coords:  0.2388 (   6)  0.2068 (   3)  0.0809 (   4)
................................................................................
.............................. CYCLE   25 ......................................
................................................................................
   1    -50.7310802 -0.507311E+02  0.192E-01    9.10       0.0  T
   2    -50.7310927 -0.125277E-04  0.143E-01    9.10       1.0  T
   3    -50.7311047 -0.119626E-04  0.231E-02    9.10       1.0  T
   4    -50.7311060 -0.129177E-05  0.630E-03    9.10       3.1  T
   5    -50.7311061 -0.713925E-07  0.274E-03    9.10       7.1  T
   6    -50.7311061 -0.106362E-07  0.137E-03    9.10      14.3  T
speedup  0.93
cpu  time for SCC    0.00 s
wall time for SCC    0.01 s
speedup  0.98
cpu  time for grad    0.01 s
wall time for grad    0.01 s
 E :    -50.45007790  G :  0.018677    pred/act E change: -0.867D-03 -0.486D-03
Maxdispl :   0.1060   ||displ|| :   0.1722   Lambda : -0.689D-03
Largest |displ|/coords:  0.1060 (   3)  0.0524 (  13)  0.0487 (   6)

generating ANC from model Hessian ...
 Shifting diagonal of input Hessian by   4.900496939410427E-003
 Lowest  eigenvalues of input Hessian
   -0.000000   -0.000000   -0.000000    0.000000    0.000000    0.000000
    0.005000    0.005146    0.005217    0.005303    0.005587    0.006024
    0.006717    0.007945    0.008292    0.009740    0.009896    0.010389
 Highest eigenvalues
    1.390929    1.407400    1.423299    2.561947    3.439499    3.633982
 
cpu  time for ANC gen    0.01 s
wall time for ANC gen    0.01 s
................................................................................
.............................. CYCLE   26 ......................................
................................................................................
   1    -50.7348548 -0.507349E+02  0.954E-02    9.18       0.0  T
   2    -50.7348585 -0.369811E-05  0.717E-02    9.18       1.0  T
   3    -50.7348615 -0.302828E-05  0.111E-02    9.17       1.8  T
   4    -50.7348619 -0.463957E-06  0.322E-03    9.17       6.1  T
   5    -50.7348620 -0.131907E-07  0.131E-03    9.17      14.9  T
   6    -50.7348620 -0.237002E-08  0.659E-04    9.18      29.7  T
   7    -50.7348620 -0.922206E-09  0.170E-04    9.18     115.3  T
speedup  1.11
cpu  time for SCC    0.01 s
wall time for SCC    0.01 s
speedup  1.03
cpu  time for grad    0.01 s
wall time for grad    0.01 s
 E :    -50.45050783  G :  0.012695    pred/act E change:  0.000D+00 -0.430D-03
Maxdispl :   0.1336   ||displ|| :   0.2648   Lambda : -0.101D-02
Largest |displ|/coords:  0.1336 (   2)  0.1286 (   5)  0.1026 (  10)
................................................................................
.............................. CYCLE   27 ......................................
................................................................................
   1    -50.7374650 -0.507375E+02  0.183E-01    9.19       0.0  T
   2    -50.7374712 -0.622107E-05  0.138E-01    9.20       1.0  T
   3    -50.7374764 -0.521801E-05  0.132E-02    9.20       1.5  T
   4    -50.7374772 -0.740296E-06  0.522E-03    9.20       3.8  T
   5    -50.7374772 -0.409703E-07  0.150E-03    9.20      13.1  T
   6    -50.7374772 -0.121113E-08  0.873E-04    9.20      22.5  T
speedup  1.11
cpu  time for SCC    0.01 s
wall time for SCC    0.01 s
speedup  0.99
cpu  time for grad    0.01 s
wall time for grad    0.01 s
 E :    -50.45128203  G :  0.008030    pred/act E change:  0.000D+00 -0.774D-03
Maxdispl :   0.2980   ||displ|| :   0.5423   Lambda : -0.129D-02
Largest |displ|/coords:  0.2980 (   5)  0.2651 (   2)  0.1725 (   1)
................................................................................
.............................. CYCLE   28 ......................................
................................................................................
   1    -50.7364316 -0.507364E+02  0.344E-01    9.16       0.0  T
   2    -50.7364488 -0.172932E-04  0.260E-01    9.16       1.0  T
   3    -50.7364674 -0.185772E-04  0.209E-02    9.17       1.0  T
   4    -50.7364688 -0.138000E-05  0.797E-03    9.17       2.5  T
   5    -50.7364689 -0.574214E-07  0.278E-03    9.17       7.1  T
   6    -50.7364689 -0.899147E-08  0.151E-03    9.17      13.0  T
speedup  0.93
cpu  time for SCC    0.00 s
wall time for SCC    0.01 s
speedup  0.99
cpu  time for grad    0.01 s
wall time for grad    0.01 s
 E :    -50.45216851  G :  0.017452    pred/act E change: -0.542D-03 -0.886D-03
Maxdispl :   0.3033   ||displ|| :   0.5012   Lambda : -0.101D-02
Largest |displ|/coords:  0.3033 (   5)  0.1984 (   2)  0.1563 (   4)
................................................................................
.............................. CYCLE   29 ......................................
................................................................................
   1    -50.7350177 -0.507350E+02  0.277E-01    9.05       0.0  T
   2    -50.7350311 -0.133842E-04  0.209E-01    9.05       1.0  T
   3    -50.7350442 -0.130410E-04  0.212E-02    9.06       1.0  T
   4    -50.7350455 -0.129184E-05  0.774E-03    9.06       2.5  T
   5    -50.7350455 -0.750315E-07  0.221E-03    9.06       8.9  T
   6    -50.7350455 -0.489680E-08  0.129E-03    9.05      15.2  T
speedup  1.11
cpu  time for SCC    0.01 s
wall time for SCC    0.01 s
speedup  1.07
cpu  time for grad    0.01 s
wall time for grad    0.01 s
 E :    -50.45284677  G :  0.018721    pred/act E change: -0.834D-03 -0.678D-03
Maxdispl :   0.2959   ||displ|| :   0.4985   Lambda : -0.963D-03
Largest |displ|/coords:  0.2959 (   5)  0.2193 (   2)  0.1773 (   6)
................................................................................
.............................. CYCLE   30 ......................................
................................................................................
   1    -50.7334518 -0.507335E+02  0.234E-01    9.03       0.0  T
   2    -50.7334607 -0.890668E-05  0.177E-01    9.03       1.0  T
   3    -50.7334707 -0.997845E-05  0.172E-02    9.03       1.1  T
   4    -50.7334714 -0.665031E-06  0.484E-03    9.03       4.1  T
   5    -50.7334714 -0.323262E-07  0.218E-03    9.03       9.0  T
   6    -50.7334714 -0.868120E-08  0.106E-03    9.03      18.5  T
speedup  0.93
cpu  time for SCC    0.01 s
wall time for SCC    0.01 s
speedup  0.99
cpu  time for grad    0.01 s
wall time for grad    0.01 s
 E :    -50.45364076  G :  0.021030    pred/act E change: -0.630D-03 -0.794D-03
Maxdispl :   0.2925   ||displ|| :   0.5695   Lambda : -0.195D-02
Largest |displ|/coords:  0.2925 (   5)  0.2409 (   6)  0.2205 (   4)
................................................................................
.............................. CYCLE   31 ......................................
................................................................................
   1    -50.7435183 -0.507435E+02  0.214E-01    9.34       0.0  T
   2    -50.7435441 -0.258028E-04  0.156E-01    9.34       1.0  T
   3    -50.7435583 -0.142206E-04  0.323E-02    9.34       1.0  T
   4    -50.7435611 -0.283171E-05  0.965E-03    9.33       2.0  T
   5    -50.7435613 -0.168941E-06  0.288E-03    9.34       6.8  T
   6    -50.7435613 -0.828418E-08  0.164E-03    9.34      11.9  T
speedup  0.91
cpu  time for SCC    0.00 s
wall time for SCC    0.01 s
speedup  0.98
cpu  time for grad    0.01 s
wall time for grad    0.01 s
 E :    -50.45445986  G :  0.023048    pred/act E change: -0.601D-03 -0.819D-03
Maxdispl :   0.3642   ||displ|| :   0.6308   Lambda : -0.173D-02
Largest |displ|/coords:  0.3642 (   5)  0.3059 (   2)  0.2519 (   1)
................................................................................
.............................. CYCLE   32 ......................................
................................................................................
   1    -50.7342191 -0.507342E+02  0.332E-01    9.20       0.0  T
   2    -50.7342385 -0.193490E-04  0.250E-01    9.20       1.0  T
   3    -50.7342576 -0.190818E-04  0.262E-02    9.20       1.0  T
   4    -50.7342595 -0.192399E-05  0.779E-03    9.20       2.5  T
   5    -50.7342595 -0.664011E-07  0.329E-03    9.20       6.0  T
   6    -50.7342596 -0.128673E-07  0.161E-03    9.20      12.2  T
speedup  1.11
cpu  time for SCC    0.01 s
wall time for SCC    0.01 s
speedup  1.07
cpu  time for grad    0.01 s
wall time for grad    0.01 s
 E :    -50.45561355  G :  0.025521    pred/act E change: -0.129D-02 -0.115D-02
Maxdispl :   0.2982   ||displ|| :   0.5221   Lambda : -0.149D-02
Largest |displ|/coords:  0.2982 (   5)  0.2046 (   1)  0.1830 (   2)
................................................................................
.............................. CYCLE   33 ......................................
................................................................................
   1    -50.7315700 -0.507316E+02  0.274E-01    8.93       0.0  T
   2    -50.7315877 -0.176717E-04  0.205E-01    8.93       1.0  T
   3    -50.7316005 -0.127857E-04  0.288E-02    8.94       1.0  T
   4    -50.7316028 -0.232932E-05  0.889E-03    8.94       2.2  T
   5    -50.7316029 -0.108188E-06  0.224E-03    8.94       8.8  T
   6    -50.7316029 -0.559415E-08  0.121E-03    8.94      16.3  T
speedup  0.93
cpu  time for SCC    0.00 s
wall time for SCC    0.01 s
speedup  0.98
cpu  time for grad    0.01 s
wall time for grad    0.01 s
 E :    -50.45638676  G :  0.031789    pred/act E change: -0.121D-02 -0.773D-03
Maxdispl :   0.2060   ||displ|| :   0.3922   Lambda : -0.181D-02
Largest |displ|/coords:  0.2060 (   1)  0.1654 (   5)  0.1178 (   2)
................................................................................
.............................. CYCLE   34 ......................................
................................................................................
   1    -50.7416309 -0.507416E+02  0.145E-01    9.21       0.0  T
   2    -50.7416387 -0.784948E-05  0.106E-01    9.21       1.0  T
   3    -50.7416434 -0.471337E-05  0.222E-02    9.21       1.0  T
   4    -50.7416444 -0.983100E-06  0.565E-03    9.21       3.5  T
   5    -50.7416445 -0.636058E-07  0.215E-03    9.21       9.1  T
speedup  0.89
cpu  time for SCC    0.00 s
wall time for SCC    0.00 s
speedup  0.98
cpu  time for grad    0.01 s
wall time for grad    0.01 s
 E :    -50.45773290  G :  0.018504    pred/act E change: -0.950D-03 -0.135D-02
Maxdispl :   0.3588   ||displ|| :   0.7234   Lambda : -0.247D-02
Largest |displ|/coords:  0.3588 (   1)  0.3316 (   5)  0.2600 (   4)
................................................................................
.............................. CYCLE   35 ......................................
................................................................................
   1    -50.7428563 -0.507429E+02  0.342E-01    9.39       0.0  T
   2    -50.7428767 -0.203731E-04  0.257E-01    9.39       1.0  T
   3    -50.7428964 -0.197425E-04  0.278E-02    9.39       1.0  T
   4    -50.7428986 -0.218300E-05  0.997E-03    9.39       2.0  T
   5    -50.7428987 -0.123335E-06  0.376E-03    9.39       5.2  T
   6    -50.7428987 -0.117508E-07  0.165E-03    9.39      11.9  T
   7    -50.7428987 -0.617474E-08  0.353E-04    9.39      55.6  T
speedup  1.11
cpu  time for SCC    0.01 s
wall time for SCC    0.01 s
speedup  1.06
cpu  time for grad    0.01 s
wall time for grad    0.01 s
 E :    -50.45936662  G :  0.025375    pred/act E change: -0.105D-02 -0.163D-02
Maxdispl :   0.3157   ||displ|| :   0.6726   Lambda : -0.271D-02
Largest |displ|/coords:  0.3157 (   5)  0.2880 (   1)  0.2144 (   2)
................................................................................
.............................. CYCLE   36 ......................................
................................................................................
   1    -50.7495360 -0.507495E+02  0.339E-01    9.43       0.0  T
   2    -50.7495639 -0.278368E-04  0.255E-01    9.43       1.0  T
   3    -50.7495887 -0.248271E-04  0.312E-02    9.43       1.0  T
   4    -50.7495919 -0.317865E-05  0.106E-02    9.43       1.9  T
   5    -50.7495920 -0.158721E-06  0.382E-03    9.43       5.1  T
   6    -50.7495920 -0.103252E-07  0.201E-03    9.43       9.8  T
speedup  1.09
cpu  time for SCC    0.01 s
wall time for SCC    0.01 s
speedup  0.98
cpu  time for grad    0.01 s
wall time for grad    0.01 s
 E :    -50.46127341  G :  0.028769    pred/act E change: -0.188D-02 -0.191D-02
Maxdispl :   0.3089   ||displ|| :   0.6930   Lambda : -0.314D-02
Largest |displ|/coords:  0.3089 (   5)  0.2988 (   1)  0.2194 (   8)
................................................................................
.............................. CYCLE   37 ......................................
................................................................................
   1    -50.7516034 -0.507516E+02  0.374E-01    9.09       0.0  T
   2    -50.7516264 -0.230266E-04  0.281E-01    9.09       1.0  T
   3    -50.7516475 -0.211000E-04  0.297E-02    9.10       1.0  T
   4    -50.7516500 -0.249398E-05  0.996E-03    9.10       2.0  T
   5    -50.7516502 -0.130138E-06  0.325E-03    9.10       6.0  T
   6    -50.7516502 -0.116369E-07  0.176E-03    9.10      11.2  T
speedup  0.94
cpu  time for SCC    0.00 s
wall time for SCC    0.01 s
speedup  0.98
cpu  time for grad    0.01 s
wall time for grad    0.01 s
 E :    -50.46326990  G :  0.032002    pred/act E change: -0.197D-02 -0.200D-02
Maxdispl :   0.2398   ||displ|| :   0.5930   Lambda : -0.316D-02
Largest |displ|/coords:  0.2398 (   2)  0.2340 (   1)  0.2309 (   8)
................................................................................
.............................. CYCLE   38 ......................................
................................................................................
   1    -50.7533328 -0.507533E+02  0.317E-01    9.12       0.0  T
   2    -50.7533761 -0.433361E-04  0.238E-01    9.12       1.0  T
   3    -50.7533950 -0.188931E-04  0.467E-02    9.11       1.0  T
   4    -50.7534021 -0.709044E-05  0.124E-02    9.11       1.6  T
   5    -50.7534024 -0.325406E-06  0.372E-03    9.11       5.3  T
   6    -50.7534024 -0.107197E-07  0.219E-03    9.11       9.0  T
speedup  0.89
cpu  time for SCC    0.00 s
wall time for SCC    0.01 s
speedup  0.96
cpu  time for grad    0.01 s
wall time for grad    0.01 s
 E :    -50.46468880  G :  0.042118    pred/act E change: -0.232D-02 -0.142D-02
Maxdispl :   0.2234   ||displ|| :   0.4524   Lambda : -0.456D-02
Largest |displ|/coords:  0.2234 (   1)  0.1760 (   4)  0.1565 (  11)
................................................................................
.............................. CYCLE   39 ......................................
................................................................................
   1    -50.7520654 -0.507521E+02  0.327E-01    9.56       0.0  T
   2    -50.7521152 -0.497987E-04  0.243E-01    9.56       1.0  T
   3    -50.7521441 -0.289765E-04  0.507E-02    9.55       1.0  T
   4    -50.7521505 -0.640163E-05  0.158E-02    9.55       1.2  T
   5    -50.7521510 -0.470830E-06  0.421E-03    9.55       4.7  T
   6    -50.7521510 -0.146653E-07  0.265E-03    9.55       7.4  T
speedup  0.94
cpu  time for SCC    0.00 s
wall time for SCC    0.01 s
speedup  0.98
cpu  time for grad    0.01 s
wall time for grad    0.01 s
 E :    -50.46663361  G :  0.031678    pred/act E change: -0.214D-02 -0.194D-02
Maxdispl :   0.1812   ||displ|| :   0.4707   Lambda : -0.292D-02
Largest |displ|/coords:  0.1812 (   8)  0.1685 (  10)  0.1394 (   1)
................................................................................
.............................. CYCLE   40 ......................................
................................................................................
   1    -50.7587611 -0.507588E+02  0.281E-01    9.42       0.0  T
   2    -50.7587809 -0.197943E-04  0.210E-01    9.42       1.0  T
   3    -50.7587941 -0.131623E-04  0.286E-02    9.42       1.0  T
   4    -50.7587968 -0.271178E-05  0.722E-03    9.42       2.7  T
   5    -50.7587969 -0.138207E-06  0.309E-03    9.42       6.3  T
   6    -50.7587969 -0.119212E-07  0.175E-03    9.42      11.2  T
speedup  0.93
cpu  time for SCC    0.00 s
wall time for SCC    0.01 s
speedup  0.97
cpu  time for grad    0.01 s
wall time for grad    0.01 s
 E :    -50.46835865  G :  0.022826    pred/act E change: -0.275D-02 -0.173D-02
Maxdispl :   0.2116   ||displ|| :   0.4249   Lambda : -0.196D-02
Largest |displ|/coords:  0.2116 (   8)  0.1889 (   3)  0.1577 (   4)
................................................................................
.............................. CYCLE   41 ......................................
................................................................................
   1    -50.7593179 -0.507593E+02  0.261E-01    9.33       0.0  T
   2    -50.7593360 -0.181146E-04  0.195E-01    9.33       1.0  T
   3    -50.7593531 -0.170459E-04  0.291E-02    9.32       1.0  T
   4    -50.7593550 -0.191084E-05  0.937E-03    9.32       2.1  T
   5    -50.7593551 -0.126075E-06  0.322E-03    9.32       6.1  T
   6    -50.7593551 -0.105762E-07  0.169E-03    9.32      11.6  T
speedup  0.91
cpu  time for SCC    0.00 s
wall time for SCC    0.01 s
speedup  0.97
cpu  time for grad    0.01 s
wall time for grad    0.01 s
 E :    -50.46915230  G :  0.028929    pred/act E change: -0.178D-02 -0.794D-03
Maxdispl :   0.2470   ||displ|| :   0.4527   Lambda : -0.237D-02
Largest |displ|/coords:  0.2470 (   3)  0.2142 (   5)  0.1950 (   2)
................................................................................
.............................. CYCLE   42 ......................................
................................................................................
   1    -50.7787440 -0.507787E+02  0.265E-01    9.85       0.0  T
   2    -50.7787850 -0.409767E-04  0.192E-01    9.86       1.0  T
   3    -50.7788155 -0.305115E-04  0.466E-02    9.86       1.0  T
   4    -50.7788195 -0.395603E-05  0.189E-02    9.86       1.0  T
   5    -50.7788199 -0.456578E-06  0.467E-03    9.86       4.2  T
   6    -50.7788199 -0.200225E-07  0.284E-03    9.86       6.9  T
speedup  0.94
cpu  time for SCC    0.00 s
wall time for SCC    0.01 s
speedup  0.98
cpu  time for grad    0.01 s
wall time for grad    0.01 s
 E :    -50.46674079  G :  0.065404    pred/act E change: -0.115D-02  0.241D-02
Maxdispl :   0.1842   ||displ|| :   0.4135   Lambda : -0.152D-01
Largest |displ|/coords:  0.1842 (   5)  0.1517 (   1)  0.1488 (   2)
................................................................................
.............................. CYCLE   43 ......................................
................................................................................
   1    -50.7238376 -0.507238E+02  0.444E-01    8.77       0.0  T
   2    -50.7239801 -0.142506E-03  0.321E-01    8.76       1.0  T
   3    -50.7241124 -0.132340E-03  0.796E-02    8.73       1.0  T
   4    -50.7241234 -0.110131E-04  0.270E-02    8.72       1.0  T
   5    -50.7241246 -0.120510E-05  0.829E-03    8.71       2.4  T
   6    -50.7241247 -0.814135E-07  0.450E-03    8.71       4.4  T
   7    -50.7241247 -0.314314E-07  0.123E-03    8.72      16.0  T
speedup  0.95
cpu  time for SCC    0.01 s
wall time for SCC    0.01 s
speedup  0.99
cpu  time for grad    0.01 s
wall time for grad    0.01 s
 E :    -50.46368486  G :  0.083607    pred/act E change: -0.142D-02  0.306D-02
Maxdispl :   0.1224   ||displ|| :   0.3724   Lambda : -0.199D-01
Largest |displ|/coords:  0.1224 (   7)  0.0998 (  19)  0.0952 (   1)
................................................................................
.............................. CYCLE   44 ......................................
................................................................................
   1    -50.7820917 -0.507821E+02  0.461E-01    9.83       0.0  T
   2    -50.7822575 -0.165796E-03  0.334E-01    9.84       1.0  T
   3    -50.7823974 -0.139893E-03  0.850E-02    9.84       1.0  T
   4    -50.7824106 -0.131776E-04  0.282E-02    9.83       1.0  T
   5    -50.7824117 -0.113402E-05  0.819E-03    9.84       2.4  T
   6    -50.7824118 -0.530029E-07  0.422E-03    9.84       4.7  T
   7    -50.7824118 -0.356600E-07  0.107E-03    9.84      18.3  T
speedup  1.11
cpu  time for SCC    0.01 s
wall time for SCC    0.01 s
speedup  1.03
cpu  time for grad    0.01 s
wall time for grad    0.01 s
 E :    -50.46608586  G :  0.077932    pred/act E change: -0.888D-02 -0.240D-02
Maxdispl :   0.1446   ||displ|| :   0.3703   Lambda : -0.153D-01
Largest |displ|/coords:  0.1446 (   7)  0.1151 (  21)  0.1068 (   8)
................................................................................
.............................. CYCLE   45 ......................................
................................................................................
   1    -50.7443691 -0.507444E+02  0.396E-01    9.21       0.0  T
   2    -50.7444880 -0.118913E-03  0.291E-01    9.21       1.0  T
   3    -50.7445859 -0.979033E-04  0.683E-02    9.19       1.0  T
   4    -50.7445959 -0.997649E-05  0.206E-02    9.17       1.0  T
   5    -50.7445965 -0.595618E-06  0.623E-03    9.17       3.1  T
   6    -50.7445966 -0.633943E-07  0.332E-03    9.17       5.9  T
   7    -50.7445966 -0.254405E-07  0.952E-04    9.17      20.6  T
speedup  1.11
cpu  time for SCC    0.01 s
wall time for SCC    0.01 s
speedup  1.04
cpu  time for grad    0.01 s
wall time for grad    0.01 s
 E :    -50.46682588  G :  0.063940    pred/act E change: -0.114D-01 -0.740D-03
Maxdispl :   0.1316   ||displ|| :   0.3558   Lambda : -0.110D-01
Largest |displ|/coords:  0.1316 (  21)  0.1270 (  15)  0.1236 (   8)
................................................................................
.............................. CYCLE   46 ......................................
................................................................................
   1    -50.7621641 -0.507622E+02  0.329E-01    9.41       0.0  T
   2    -50.7622365 -0.724358E-04  0.245E-01    9.41       1.0  T
   3    -50.7622991 -0.626168E-04  0.519E-02    9.41       1.0  T
   4    -50.7623052 -0.613078E-05  0.178E-02    9.42       1.1  T
   5    -50.7623057 -0.456850E-06  0.537E-03    9.42       3.7  T
   6    -50.7623057 -0.328910E-07  0.258E-03    9.42       7.6  T
speedup  0.93
cpu  time for SCC    0.00 s
wall time for SCC    0.01 s
speedup  0.97
cpu  time for grad    0.01 s
wall time for grad    0.01 s
 E :    -50.46835769  G :  0.049329    pred/act E change: -0.869D-02 -0.153D-02
Maxdispl :   0.0860   ||displ|| :   0.1939   Lambda : -0.416D-02
Largest |displ|/coords:  0.0860 (  21)  0.0832 (  15)  0.0763 (   3)
................................................................................
.............................. CYCLE   47 ......................................
................................................................................
   1    -50.7666863 -0.507667E+02  0.134E-01    9.46       0.0  T
   2    -50.7667042 -0.179258E-04  0.100E-01    9.46       1.0  T
   3    -50.7667197 -0.155290E-04  0.261E-02    9.47       1.0  T
   4    -50.7667211 -0.141342E-05  0.989E-03    9.47       2.0  T
   5    -50.7667212 -0.122419E-06  0.215E-03    9.47       9.1  T
   6    -50.7667212 -0.650123E-08  0.122E-03    9.47      16.1  T
speedup  0.93
cpu  time for SCC    0.01 s
wall time for SCC    0.01 s
speedup  0.97
cpu  time for grad    0.01 s
wall time for grad    0.01 s
 E :    -50.46964134  G :  0.029777    pred/act E change: -0.617D-02 -0.128D-02
Maxdispl :   0.0926   ||displ|| :   0.2167   Lambda : -0.268D-02
Largest |displ|/coords:  0.0926 (  19)  0.0848 (   9)  0.0811 (   7)
................................................................................
.............................. CYCLE   48 ......................................
................................................................................
   1    -50.7552452 -0.507552E+02  0.187E-01    9.48       0.0  T
   2    -50.7552690 -0.237818E-04  0.140E-01    9.47       1.0  T
   3    -50.7552893 -0.202999E-04  0.288E-02    9.45       1.0  T
   4    -50.7552913 -0.204739E-05  0.936E-03    9.45       2.1  T
   5    -50.7552914 -0.122285E-06  0.298E-03    9.45       6.6  T
   6    -50.7552915 -0.144627E-07  0.164E-03    9.45      12.0  T
speedup  0.94
cpu  time for SCC    0.00 s
wall time for SCC    0.01 s
speedup  0.98
cpu  time for grad    0.01 s
wall time for grad    0.01 s
 E :    -50.46905991  G :  0.040346    pred/act E change: -0.216D-02  0.581D-03
Maxdispl :   0.0550   ||displ|| :   0.1404   Lambda : -0.258D-02
Largest |displ|/coords:  0.0550 (  19)  0.0496 (   6)  0.0475 (   9)
................................................................................
.............................. CYCLE   49 ......................................
................................................................................
   1    -50.7587832 -0.507588E+02  0.136E-01    9.35       0.0  T
   2    -50.7587950 -0.117497E-04  0.102E-01    9.36       1.0  T
   3    -50.7588042 -0.918512E-05  0.216E-02    9.36       1.0  T
   4    -50.7588053 -0.113098E-05  0.643E-03    9.37       3.0  T
   5    -50.7588054 -0.728833E-07  0.220E-03    9.37       8.9  T
   6    -50.7588054 -0.486411E-08  0.111E-03    9.36      17.7  T
speedup  0.91
cpu  time for SCC    0.00 s
wall time for SCC    0.01 s
speedup  0.96
cpu  time for grad    0.01 s
wall time for grad    0.01 s
 E :    -50.47034648  G :  0.008938    pred/act E change: -0.141D-02 -0.129D-02
Maxdispl :   0.0323   ||displ|| :   0.0629   Lambda : -0.201D-03
Largest |displ|/coords:  0.0323 (   3)  0.0215 (  14)  0.0173 (  21)
................................................................................
.............................. CYCLE   50 ......................................
................................................................................
   1    -50.7631775 -0.507632E+02  0.470E-02    9.46       0.0  T
   2    -50.7631789 -0.145795E-05  0.341E-02    9.46       1.0  T
   3    -50.7631799 -0.101815E-05  0.825E-03    9.47       2.4  T
   4    -50.7631801 -0.127398E-06  0.275E-03    9.47       7.1  T
   5    -50.7631801 -0.106958E-07  0.709E-04    9.47      27.6  T
speedup  0.89
cpu  time for SCC    0.00 s
wall time for SCC    0.00 s
speedup  0.96
cpu  time for grad    0.01 s
wall time for grad    0.01 s
 E :    -50.47041619  G :  0.006457    pred/act E change: -0.131D-02 -0.697D-04
Maxdispl :   0.0325   ||displ|| :   0.0798   Lambda : -0.145D-03
Largest |displ|/coords:  0.0325 (   5)  0.0305 (   6)  0.0275 (   8)
................................................................................
.............................. CYCLE   51 ......................................
................................................................................
   1    -50.7627950 -0.507628E+02  0.454E-02    9.45       0.0  T
   2    -50.7627955 -0.490496E-06  0.341E-02    9.45       1.0  T
   3    -50.7627960 -0.517166E-06  0.422E-03    9.44       4.6  T
   4    -50.7627961 -0.364492E-07  0.910E-04    9.44      21.5  T
   5    -50.7627961 -0.127879E-08  0.486E-04    9.44      40.3  T
speedup  1.06
cpu  time for SCC    0.00 s
wall time for SCC    0.00 s
speedup  1.02
cpu  time for grad    0.01 s
wall time for grad    0.01 s
 E :    -50.47052499  G :  0.005374    pred/act E change: -0.101D-03 -0.109D-03
Maxdispl :   0.1215   ||displ|| :   0.2835   Lambda : -0.384D-03
Largest |displ|/coords:  0.1215 (   5)  0.1034 (   6)  0.0870 (   4)
................................................................................
.............................. CYCLE   52 ......................................
................................................................................
   1    -50.7578870 -0.507579E+02  0.152E-01    9.33       0.0  T
   2    -50.7578920 -0.502054E-05  0.113E-01    9.33       1.0  T
   3    -50.7578966 -0.457190E-05  0.159E-02    9.32       1.2  T
   4    -50.7578972 -0.547763E-06  0.503E-03    9.32       3.9  T
   5    -50.7578972 -0.367185E-07  0.166E-03    9.32      11.8  T
   6    -50.7578972 -0.296119E-08  0.968E-04    9.32      20.3  T
speedup  1.11
cpu  time for SCC    0.01 s
wall time for SCC    0.01 s
speedup  1.04
cpu  time for grad    0.01 s
wall time for grad    0.01 s
 E :    -50.47069346  G :  0.011663    pred/act E change: -0.727D-04 -0.168D-03
Maxdispl :   0.0637   ||displ|| :   0.1227   Lambda : -0.179D-03
Largest |displ|/coords:  0.0637 (   6)  0.0449 (   5)  0.0415 (   3)

generating ANC from model Hessian ...
 Shifting diagonal of input Hessian by   5.018800846004787E-003
 Lowest  eigenvalues of input Hessian
    0.005000   -0.000000   -0.000000   -0.000000    0.000000    0.000000
    0.000000    0.005338    0.005731    0.006409    0.006617    0.007300
    0.007616    0.010062    0.010755    0.011091    0.011667    0.012172
 Highest eigenvalues
    1.406053    1.411802    1.443200    2.586826    3.520380    3.579565
 
cpu  time for ANC gen    0.02 s
wall time for ANC gen    0.02 s
................................................................................
.............................. CYCLE   53 ......................................
................................................................................
   1    -50.7602273 -0.507602E+02  0.509E-02    9.36       0.0  T
   2    -50.7602281 -0.812866E-06  0.376E-02    9.36       1.0  T
   3    -50.7602287 -0.542612E-06  0.674E-03    9.36       2.9  T
   4    -50.7602288 -0.953700E-07  0.211E-03    9.36       9.3  T
   5    -50.7602288 -0.468409E-08  0.473E-04    9.36      41.4  T
   6    -50.7602288 -0.191896E-09  0.280E-04    9.36      70.0  T
speedup  1.09
cpu  time for SCC    0.01 s
wall time for SCC    0.01 s
speedup  1.00
cpu  time for grad    0.01 s
wall time for grad    0.01 s
 E :    -50.47081577  G :  0.007806    pred/act E change:  0.000D+00 -0.122D-03
Maxdispl :   0.0648   ||displ|| :   0.1496   Lambda : -0.360D-03
Largest |displ|/coords:  0.0648 (   5)  0.0579 (   2)  0.0502 (  14)
................................................................................
.............................. CYCLE   54 ......................................
................................................................................
   1    -50.7605936 -0.507606E+02  0.128E-01    9.37       0.0  T
   2    -50.7605960 -0.244506E-05  0.971E-02    9.37       1.0  T
   3    -50.7605985 -0.245383E-05  0.765E-03    9.38       2.6  T
   4    -50.7605987 -0.233142E-06  0.376E-03    9.38       5.2  T
   5    -50.7605987 -0.103412E-07  0.837E-04    9.38      23.4  T
   6    -50.7605987 -0.640718E-09  0.490E-04    9.38      40.1  T
speedup  1.09
cpu  time for SCC    0.01 s
wall time for SCC    0.01 s
speedup  1.04
cpu  time for grad    0.01 s
wall time for grad    0.01 s
 E :    -50.47106079  G :  0.004220    pred/act E change:  0.000D+00 -0.245D-03
Maxdispl :   0.1035   ||displ|| :   0.2148   Lambda : -0.254D-03
Largest |displ|/coords:  0.1035 (   2)  0.0918 (   5)  0.0720 (   6)
................................................................................
.............................. CYCLE   55 ......................................
................................................................................
   1    -50.7602053 -0.507602E+02  0.167E-01    9.40       0.0  T
   2    -50.7602100 -0.466517E-05  0.127E-01    9.40       1.0  T
   3    -50.7602145 -0.450798E-05  0.120E-02    9.41       1.6  T
   4    -50.7602150 -0.479465E-06  0.391E-03    9.41       5.0  T
   5    -50.7602150 -0.176917E-07  0.130E-03    9.41      15.1  T
   6    -50.7602150 -0.235732E-08  0.699E-04    9.41      28.0  T
speedup  1.11
cpu  time for SCC    0.01 s
wall time for SCC    0.01 s
speedup  1.04
cpu  time for grad    0.01 s
wall time for grad    0.01 s
 E :    -50.47123410  G :  0.006488    pred/act E change: -0.184D-03 -0.173D-03
Maxdispl :   0.1321   ||displ|| :   0.2435   Lambda : -0.207D-03
Largest |displ|/coords:  0.1321 (   2)  0.0855 (   5)  0.0848 (  10)
................................................................................
.............................. CYCLE   56 ......................................
................................................................................
   1    -50.7599864 -0.507600E+02  0.148E-01    9.41       0.0  T
   2    -50.7599898 -0.335337E-05  0.112E-01    9.41       1.0  T
   3    -50.7599932 -0.337416E-05  0.115E-02    9.42       1.7  T
   4    -50.7599935 -0.316035E-06  0.360E-03    9.42       5.4  T
   5    -50.7599935 -0.173654E-07  0.120E-03    9.42      16.3  T
   6    -50.7599935 -0.224455E-08  0.687E-04    9.42      28.5  T
speedup  0.94
cpu  time for SCC    0.00 s
wall time for SCC    0.01 s
speedup  1.04
cpu  time for grad    0.01 s
wall time for grad    0.01 s
 E :    -50.47137705  G :  0.008378    pred/act E change: -0.133D-03 -0.143D-03
Maxdispl :   0.1400   ||displ|| :   0.2775   Lambda : -0.247D-03
Largest |displ|/coords:  0.1400 (   2)  0.1081 (   4)  0.0807 (  18)
................................................................................
.............................. CYCLE   57 ......................................
................................................................................
   1    -50.7606165 -0.507606E+02  0.145E-01    9.41       0.0  T
   2    -50.7606198 -0.331618E-05  0.109E-01    9.41       1.0  T
   3    -50.7606240 -0.418086E-05  0.134E-02    9.41       1.5  T
   4    -50.7606241 -0.176749E-06  0.294E-03    9.41       6.7  T
   5    -50.7606242 -0.156864E-07  0.146E-03    9.41      13.4  T
speedup  1.09
cpu  time for SCC    0.00 s
wall time for SCC    0.00 s
speedup  1.03
cpu  time for grad    0.01 s
wall time for grad    0.01 s
 E :    -50.47151341  G :  0.005765    pred/act E change: -0.110D-03 -0.136D-03
Maxdispl :   0.1195   ||displ|| :   0.2609   Lambda : -0.188D-03
Largest |displ|/coords:  0.1195 (   5)  0.0940 (  18)  0.0905 (   2)
................................................................................
.............................. CYCLE   58 ......................................
................................................................................
   1    -50.7585990 -0.507586E+02  0.199E-01    9.39       0.0  T
   2    -50.7586068 -0.787117E-05  0.150E-01    9.40       1.0  T
   3    -50.7586140 -0.717461E-05  0.156E-02    9.40       1.3  T
   4    -50.7586149 -0.939845E-06  0.398E-03    9.40       4.9  T
   5    -50.7586150 -0.162965E-07  0.204E-03    9.40       9.6  T
   6    -50.7586150 -0.672104E-08  0.800E-04    9.40      24.5  T
speedup  0.93
cpu  time for SCC    0.00 s
wall time for SCC    0.01 s
speedup  0.97
cpu  time for grad    0.01 s
wall time for grad    0.01 s
 E :    -50.47156201  G :  0.012598    pred/act E change: -0.133D-03 -0.486D-04
Maxdispl :   0.0444   ||displ|| :   0.0901   Lambda : -0.206D-03
Largest |displ|/coords:  0.0444 (   2)  0.0349 (   6)  0.0313 (   5)
................................................................................
.............................. CYCLE   59 ......................................
................................................................................
   1    -50.7614676 -0.507615E+02  0.811E-02    9.41       0.0  T
   2    -50.7614705 -0.289140E-05  0.609E-02    9.41       1.0  T
   3    -50.7614724 -0.191075E-05  0.969E-03    9.40       2.0  T
   4    -50.7614728 -0.417005E-06  0.203E-03    9.41       9.6  T
   5    -50.7614728 -0.474713E-08  0.101E-03    9.41      19.3  T
speedup  0.89
cpu  time for SCC    0.00 s
wall time for SCC    0.00 s
speedup  0.95
cpu  time for grad    0.01 s
wall time for grad    0.01 s
 E :    -50.47164370  G :  0.004601    pred/act E change: -0.100D-03 -0.817D-04
Maxdispl :   0.0298   ||displ|| :   0.0627   Lambda : -0.682D-04
Largest |displ|/coords:  0.0298 (   1)  0.0284 (   4)  0.0228 (  11)
................................................................................
.............................. CYCLE   60 ......................................
................................................................................
   1    -50.7609611 -0.507610E+02  0.440E-02    9.40       0.0  T
   2    -50.7609614 -0.251364E-06  0.333E-02    9.40       1.0  T
   3    -50.7609617 -0.288999E-06  0.251E-03    9.41       7.8  T
   4    -50.7609617 -0.182797E-07  0.113E-03    9.40      17.4  T
speedup  1.08
cpu  time for SCC    0.00 s
wall time for SCC    0.00 s
speedup  1.02
cpu  time for grad    0.01 s
wall time for grad    0.01 s
 E :    -50.47169255  G :  0.002748    pred/act E change: -0.104D-03 -0.489D-04
Maxdispl :   0.0973   ||displ|| :   0.1795   Lambda : -0.861D-04
Largest |displ|/coords:  0.0973 (   4)  0.0810 (   1)  0.0534 (  14)
................................................................................
.............................. CYCLE   61 ......................................
................................................................................
   1    -50.7597649 -0.507598E+02  0.117E-01    9.39       0.0  T
   2    -50.7597667 -0.180523E-05  0.885E-02    9.39       1.0  T
   3    -50.7597687 -0.203381E-05  0.711E-03    9.40       2.8  T
   4    -50.7597688 -0.137953E-06  0.217E-03    9.40       9.0  T
   5    -50.7597688 -0.419990E-08  0.105E-03    9.40      18.7  T
   6    -50.7597688 -0.185363E-08  0.447E-04    9.40      43.9  T
   7    -50.7597688 -0.348479E-09  0.111E-04    9.40     177.5  T
speedup  0.97
cpu  time for SCC    0.01 s
wall time for SCC    0.01 s
speedup  1.01
cpu  time for grad    0.01 s
wall time for grad    0.01 s
 E :    -50.47174727  G :  0.004926    pred/act E change: -0.342D-04 -0.547D-04
Maxdispl :   0.0664   ||displ|| :   0.1167   Lambda : -0.457D-04
Largest |displ|/coords:  0.0664 (   4)  0.0609 (   1)  0.0308 (   6)
................................................................................
.............................. CYCLE   62 ......................................
................................................................................
   1    -50.7600900 -0.507601E+02  0.607E-02    9.40       0.0  T
   2    -50.7600904 -0.382886E-06  0.458E-02    9.40       1.0  T
   3    -50.7600909 -0.469348E-06  0.363E-03    9.40       5.4  T
   4    -50.7600909 -0.203471E-07  0.133E-03    9.40      14.7  T
   5    -50.7600909 -0.187582E-08  0.489E-04    9.40      40.1  T
speedup  1.09
cpu  time for SCC    0.00 s
wall time for SCC    0.00 s
speedup  1.03
cpu  time for grad    0.01 s
wall time for grad    0.01 s
 E :    -50.47178045  G :  0.004418    pred/act E change: -0.444D-04 -0.332D-04
Maxdispl :   0.0714   ||displ|| :   0.1362   Lambda : -0.480D-04
Largest |displ|/coords:  0.0714 (   1)  0.0713 (   4)  0.0360 (  14)
................................................................................
.............................. CYCLE   63 ......................................
................................................................................
   1    -50.7605396 -0.507605E+02  0.757E-02    9.40       0.0  T
   2    -50.7605404 -0.788645E-06  0.571E-02    9.41       1.0  T
   3    -50.7605413 -0.900932E-06  0.588E-03    9.42       3.3  T
   4    -50.7605413 -0.623841E-07  0.234E-03    9.41       8.4  T
   5    -50.7605413 -0.540603E-08  0.706E-04    9.41      27.8  T
speedup  0.83
cpu  time for SCC    0.00 s
wall time for SCC    0.00 s
speedup  0.94
cpu  time for grad    0.01 s
wall time for grad    0.01 s
 E :    -50.47181260  G :  0.003088    pred/act E change: -0.232D-04 -0.322D-04
Maxdispl :   0.0711   ||displ|| :   0.1181   Lambda : -0.332D-04
Largest |displ|/coords:  0.0711 (   1)  0.0442 (   4)  0.0295 (   5)
................................................................................
.............................. CYCLE   64 ......................................
................................................................................
   1    -50.7610604 -0.507611E+02  0.778E-02    9.42       0.0  T
   2    -50.7610612 -0.739860E-06  0.585E-02    9.42       1.0  T
   3    -50.7610619 -0.697098E-06  0.616E-03    9.43       3.2  T
   4    -50.7610619 -0.827746E-07  0.230E-03    9.43       8.5  T
   5    -50.7610619 -0.512100E-08  0.684E-04    9.43      28.7  T
   6    -50.7610619 -0.531905E-09  0.429E-04    9.43      45.8  T
speedup  1.09
cpu  time for SCC    0.01 s
wall time for SCC    0.01 s
speedup  0.99
cpu  time for grad    0.01 s
wall time for grad    0.01 s
 E :    -50.47183427  G :  0.002603    pred/act E change: -0.244D-04 -0.217D-04
Maxdispl :   0.0480   ||displ|| :   0.0789   Lambda : -0.264D-04
Largest |displ|/coords:  0.0480 (   1)  0.0266 (   8)  0.0211 (  12)
................................................................................
.............................. CYCLE   65 ......................................
................................................................................
   1    -50.7616153 -0.507616E+02  0.569E-02    9.43       0.0  T
[...]
   5    -50.7609320 -0.568882E-09  0.188E-04    9.41     104.3  T
speedup  1.11
cpu  time for SCC    0.00 s
wall time for SCC    0.00 s
speedup  1.00
cpu  time for grad    0.01 s
wall time for grad    0.01 s
 E :    -50.47193485  G :  0.000734    pred/act E change: -0.117D-05 -0.170D-05
Maxdispl :   0.0124   ||displ|| :   0.0252   Lambda : -0.197D-05
Largest |displ|/coords:  0.0124 (   3)  0.0090 (   8)  0.0084 (   1)
................................................................................
.............................. CYCLE   80 ......................................
................................................................................
   1    -50.7608687 -0.507609E+02  0.182E-02    9.41       0.0  T
   2    -50.7608687 -0.579642E-07  0.134E-02    9.41       1.5  T
   3    -50.7608688 -0.340743E-07  0.217E-03    9.41       9.0  T
   4    -50.7608688 -0.880248E-08  0.696E-04    9.41      28.2  T
   5    -50.7608688 -0.438078E-09  0.159E-04    9.41     123.5  T
speedup  1.11
cpu  time for SCC    0.00 s
wall time for SCC    0.00 s
speedup  0.99
cpu  time for grad    0.01 s
wall time for grad    0.01 s
 E :    -50.47193630  G :  0.000713    pred/act E change: -0.121D-05 -0.145D-05
Maxdispl :   0.0136   ||displ|| :   0.0278   Lambda : -0.226D-05
Largest |displ|/coords:  0.0136 (   3)  0.0101 (   8)  0.0091 (  14)
................................................................................
.............................. CYCLE   81 ......................................
................................................................................
   1    -50.7608683 -0.507609E+02  0.187E-02    9.42       0.0  T
   2    -50.7608683 -0.571196E-07  0.139E-02    9.42       1.4  T
   3    -50.7608684 -0.507353E-07  0.193E-03    9.42      10.2  T
   4    -50.7608684 -0.754187E-08  0.696E-04    9.42      28.2  T
   5    -50.7608684 -0.517588E-09  0.189E-04    9.42     103.9  T
speedup  0.89
cpu  time for SCC    0.00 s
wall time for SCC    0.00 s
speedup  1.00
cpu  time for grad    0.01 s
wall time for grad    0.01 s
 E :    -50.47193790  G :  0.000751    pred/act E change: -0.984D-06 -0.160D-05
Maxdispl :   0.0150   ||displ|| :   0.0295   Lambda : -0.207D-05
Largest |displ|/coords:  0.0150 (   1)  0.0129 (   3)  0.0092 (  37)

generating ANC from model Hessian ...
 Shifting diagonal of input Hessian by   5.064441071468423E-003
 Lowest  eigenvalues of input Hessian
    0.005000   -0.000000   -0.000000   -0.000000    0.000000    0.000000
    0.000000    0.005397    0.005806    0.006593    0.007097    0.007240
    0.007774    0.010168    0.011105    0.011990    0.012160    0.012954
 Highest eigenvalues
    1.397838    1.412864    1.428600    2.592613    3.493876    3.628014
 
cpu  time for ANC gen    0.02 s
wall time for ANC gen    0.02 s
................................................................................
.............................. CYCLE   82 ......................................
................................................................................
   1    -50.7607523 -0.507608E+02  0.217E-02    9.41       0.0  T
   2    -50.7607524 -0.509435E-07  0.162E-02    9.42       1.2  T
   3    -50.7607524 -0.463425E-07  0.196E-03    9.42      10.0  T
   4    -50.7607524 -0.620158E-08  0.694E-04    9.42      28.2  T
   5    -50.7607524 -0.395836E-09  0.166E-04    9.42     118.2  T
speedup  1.11
cpu  time for SCC    0.01 s
wall time for SCC    0.00 s
speedup  1.00
cpu  time for grad    0.01 s
wall time for grad    0.01 s
 E :    -50.47193932  G :  0.000898    pred/act E change:  0.000D+00 -0.142D-05
Maxdispl :   0.0024   ||displ|| :   0.0058   Lambda : -0.112D-05
Largest |displ|/coords:  0.0024 (   4)  0.0022 (  14)  0.0017 (  11)
................................................................................
.............................. CYCLE   83 ......................................
................................................................................
   1    -50.7608225 -0.507608E+02  0.461E-03    9.42       0.0  T
   2    -50.7608225 -0.684835E-08  0.345E-03    9.42       5.7  T
   3    -50.7608225 -0.503983E-08  0.565E-04    9.42      34.7  T
   4    -50.7608225 -0.913062E-09  0.179E-04    9.42     109.6  T
speedup  1.08
cpu  time for SCC    0.00 s
wall time for SCC    0.00 s
speedup  0.98
cpu  time for grad    0.01 s
wall time for grad    0.01 s
 E :    -50.47194019  G :  0.000536    pred/act E change:  0.000D+00 -0.871D-06
Maxdispl :   0.0078   ||displ|| :   0.0152   Lambda : -0.177D-05
Largest |displ|/coords:  0.0078 (   4)  0.0047 (   1)  0.0046 (   3)
................................................................................
.............................. CYCLE   84 ......................................
................................................................................
   1    -50.7609121 -0.507609E+02  0.108E-02    9.41       0.0  T
   2    -50.7609121 -0.349543E-07  0.798E-03    9.41       2.5  T
   3    -50.7609122 -0.196974E-07  0.139E-03    9.41      14.1  T
   4    -50.7609122 -0.506272E-08  0.456E-04    9.41      43.0  T
   5    -50.7609122 -0.255653E-09  0.106E-04    9.41     185.8  T
speedup  1.09
cpu  time for SCC    0.00 s
wall time for SCC    0.00 s
speedup  0.99
cpu  time for grad    0.01 s
wall time for grad    0.01 s
 E :    -50.47194107  G :  0.000450    pred/act E change: -0.558D-06 -0.885D-06
Maxdispl :   0.0041   ||displ|| :   0.0088   Lambda : -0.613D-06
Largest |displ|/coords:  0.0041 (   4)  0.0037 (  11)  0.0029 (   1)
................................................................................
.............................. CYCLE   85 ......................................
................................................................................
   1    -50.7608777 -0.507609E+02  0.717E-03    9.41       0.0  T
   2    -50.7608777 -0.841323E-08  0.543E-03    9.41       3.6  T
   3    -50.7608777 -0.100713E-07  0.570E-04    9.41      34.4  T
   4    -50.7608777 -0.540695E-09  0.215E-04    9.41      91.4  T
speedup  1.11
cpu  time for SCC    0.00 s
wall time for SCC    0.00 s
speedup  0.99
cpu  time for grad    0.01 s
wall time for grad    0.01 s
 E :    -50.47194137  G :  0.000404    pred/act E change: -0.886D-06 -0.301D-06
Maxdispl :   0.0027   ||displ|| :   0.0057   Lambda : -0.358D-06
Largest |displ|/coords:  0.0027 (   4)  0.0019 (   3)  0.0018 (  12)
................................................................................
.............................. CYCLE   86 ......................................
................................................................................
   1    -50.7608268 -0.507608E+02  0.389E-03    9.41       0.0  T
   2    -50.7608268 -0.395351E-08  0.291E-03    9.41       6.7  T
   3    -50.7608268 -0.256375E-08  0.419E-04    9.41      46.8  T
   4    -50.7608268 -0.627999E-09  0.146E-04    9.41     134.8  T
speedup  0.81
cpu  time for SCC    0.00 s
wall time for SCC    0.00 s
speedup  0.98
cpu  time for grad    0.01 s
wall time for grad    0.01 s
 E :    -50.47194163  G :  0.000254    pred/act E change: -0.307D-06 -0.262D-06
Maxdispl :   0.0044   ||displ|| :   0.0084   Lambda : -0.323D-06
Largest |displ|/coords:  0.0044 (   4)  0.0026 (   3)  0.0025 (  12)
................................................................................
.............................. CYCLE   87 ......................................
................................................................................
   1    -50.7607846 -0.507608E+02  0.578E-03    9.41       0.0  T
   2    -50.7607846 -0.669906E-08  0.434E-03    9.41       4.5  T
   3    -50.7607846 -0.571665E-08  0.553E-04    9.42      35.4  T
   4    -50.7607846 -0.887837E-09  0.191E-04    9.42     102.7  T
speedup  0.83
cpu  time for SCC    0.00 s
wall time for SCC    0.00 s
speedup  0.98
cpu  time for grad    0.01 s
wall time for grad    0.01 s
 E :    -50.47194183  G :  0.000229    pred/act E change: -0.179D-06 -0.195D-06
Maxdispl :   0.0018   ||displ|| :   0.0042   Lambda : -0.987D-07
Largest |displ|/coords:  0.0018 (   4)  0.0015 (  12)  0.0012 (  14)
................................................................................
.............................. CYCLE   88 ......................................
................................................................................
   1    -50.7607911 -0.507608E+02  0.312E-03    9.42       0.0  T
   2    -50.7607911 -0.200737E-08  0.234E-03    9.42       8.4  T
   3    -50.7607911 -0.199879E-08  0.324E-04    9.42      60.5  T
   4    -50.7607911 -0.221689E-09  0.114E-04    9.42     171.3  T
speedup  0.83
cpu  time for SCC    0.00 s
wall time for SCC    0.00 s
speedup  0.98
cpu  time for grad    0.01 s
wall time for grad    0.01 s
 E :    -50.47194191  G :  0.000183    pred/act E change: -0.162D-06 -0.832D-07
Maxdispl :   0.0029   ||displ|| :   0.0075   Lambda : -0.161D-06
Largest |displ|/coords:  0.0029 (   4)  0.0025 (  12)  0.0020 (  14)

   *** GEOMETRY OPTIMIZATION CONVERGED AFTER 88 ITERATIONS ***

------------------------------------------------------------------------
 total energy gain (kcal):     -0.0016
------------------------------------------------------------------------
================
 final structure:
================
$coord
       -3.48991510770943        1.68551525331592        1.56661786497222      S 
       -1.08833765906683        3.03648348881026        1.46720892844901      O 
       -4.13251652137698        0.51852354881162       -0.82669987064585      O 
       -3.60241259369744       -0.03315561090595        3.69763861567368      O 
       -5.59251556068464        3.76150327487398        2.04818269659666      O 
       -5.25416824953404        4.25492973222734        3.74356189008849      H 
       -1.55205361251397       -2.23111727851967        3.59320313180528      H 
       -0.21875784353084       -3.53913713489000        3.38386506786436      O 
       -0.57706198541185       -4.81440301156302        4.61953563823327      H 
        5.90018669899462       -0.08533872101188       -0.95160344832022      O 
        7.03069349671100       -1.42422851983688       -0.49696702736033      H 
       -1.27109842502318       -3.52323206853551       -1.65623194347728      O 
       -0.72344954779970       -3.88800731496403        0.06378202246637      H 
       -2.59261150790024       -2.23953116071775       -1.45810232845794      H 
       -1.01473288639836        3.41835809055368       -3.45805315591123      O 
       -0.63742859496035        3.83084074318262       -1.69653222495921      H 
       -2.60007931317453        2.50834689513286       -3.27370982879963      H 
        3.04089490940026        0.55251591353094        3.02536363019970      O 
        2.23410676281236       -1.05697938098841        3.36724407390609      H 
        4.93936698793946        0.33228130242239        0.61462399874869      H 
        1.65151393197816        1.68294611449138        2.57813610097697      H 
        1.94139597827916       -0.56194281285538       -4.02854518567673      N 
        0.90988440596295        1.16870787416252       -3.96489668067208      H 
        2.33943483945948       -1.04193060670160       -5.83995125540829      H 
        3.60707029603802       -0.37274380456542       -2.96001386089372      H 
        0.75259113898514       -1.93920476768159       -3.15765684939839      H 
$end
 
 Bond Distances (Angstroems)
 ---------------------------
S1-O2=1.4591         S1-O3=1.4495         S1-O4=1.4500         S1-O5=1.5842         O2-S1=1.4591         O3-S1=1.4495         
O4-S1=1.4500         O5-S1=1.5842         O5-H6=0.9514         H6-O5=0.9514         H7-O8=0.9946         O8-H7=0.9946         
O8-H9=0.9586         H9-O8=0.9586         O10-H11=0.9580       O10-H20=0.9971       H11-O10=0.9580       O12-H13=0.9745       
O12-H14=0.9806       H13-O12=0.9745       H14-O12=0.9806       O15-H16=0.9780       O15-H17=0.9722       H16-O15=0.9780       
H17-O15=0.9722       O18-H19=0.9697       O18-H21=0.9769       H19-O18=0.9697       H20-O10=0.9971       H21-O18=0.9769       
N22-H23=1.0667       N22-H24=1.0138       N22-H25=1.0520       N22-H26=1.0674       H23-N22=1.0667       H24-N22=1.0138       
H25-N22=1.0520       H26-N22=1.0674       
 N  H  Rav=1.0500 sigma=0.0218  Rmin=1.0138  Rmax=1.0674     4
 O  H  Rav=0.9738 sigma=0.0137  Rmin=0.9514  Rmax=0.9971    11
 S  O  Rav=1.4857 sigma=0.0570  Rmin=1.4495  Rmax=1.5842     4
 
 selected bond angles (degree)
 --------------------
O3-S1-O2=112.43                O4-S1-O2=111.79                O4-S1-O3=113.75                O5-S1-O2=106.13                
O5-S1-O3=105.74                O5-S1-O4=106.32                H6-O5-S1=102.11                H9-O8-H7=105.88                
H20-O10-H11=105.88             
 
 selected dihedral angles (degree)
 ---------------------------------
H6-O5-S1-O2=290.09            H6-O5-S1-O3=170.48            H6-O5-S1-O4= 49.25            
 
 CMA Distance (Angstroems)
 ---------------------------
R(CMA):  3.1248

========================================================================
 FINAL SINGLEPOINT CALCULATION ON OPTIMIZED GEOMETRY
========================================================================

 Ncao       : 65
 Nao        : 64
 Nshell     : 38
 Nel        : 80
 T(el)      :   300.0
 intcut     :    25.0
 scfconv/Eh :  0.100E-05
   qconv/e  :  0.100E-03
 intneglect :  0.100E-07
 broydamp   :      0.250
 iter      E             dE          RMSdq      gap      omega  full diag
   1    -50.7607911 -0.507608E+02  0.398E-05    9.42       0.0  T
   2    -50.7607911 -0.959233E-12  0.259E-05    9.42     758.1  T
   3    -50.7607911 -0.518696E-12  0.488E-06    9.42    4017.5  T
speedup  1.11
cpu  time for SCC    0.00 s
wall time for SCC    0.00 s

   *** convergence criteria satisfied after 3 iterations ***

          eigenvalues
 #    :          28         29         30         31         32         33         34         35
 occ. :        2.000      2.000      2.000      2.000      2.000      2.000      2.000      2.000
 eps  :       -13.488    -13.295    -12.448    -12.316    -12.252    -12.228    -12.178    -12.082
 #    :          36         37         38         39         40         41         42         43
 occ. :        2.000      2.000      2.000      2.000      2.000      0.000      0.000      0.000
 eps  :       -12.049    -12.008    -11.907    -11.742    -11.692     -2.277     -0.920     -0.382
 #    :          44         45         46         47         48         49         50         51
 occ. :        0.000      0.000      0.000      0.000      0.000      0.000      0.000      0.000
 eps  :         1.152      1.291      1.332      1.909      3.035      3.812      4.013      4.765


   #   Z            q   n(s)   n(p)   n(d)      C6AA      α(0)
   1  16 S      1.689  1.581  1.780  0.950    89.015    15.879
   2   8 O     -0.760  1.774  4.985  0.000    30.392     7.391
   3   8 O     -0.732  1.765  4.968  0.000    29.606     7.295
   4   8 O     -0.743  1.771  4.972  0.000    29.897     7.331
   5   8 O     -0.591  1.753  4.838  0.000    24.948     6.743
   6   1 H      0.343  0.657  0.000  0.000     0.596     1.208
   7   1 H      0.335  0.665  0.000  0.000     0.625     1.242
   8   8 O     -0.634  1.749  4.885  0.000    26.009     6.883
   9   1 H      0.290  0.710  0.000  0.000     0.751     1.361
  10   8 O     -0.616  1.747  4.869  0.000    25.573     6.825
  11   1 H      0.282  0.718  0.000  0.000     0.777     1.384
  12   8 O     -0.621  1.750  4.871  0.000    25.691     6.841
  13   1 H      0.321  0.679  0.000  0.000     0.661     1.277
  14   1 H      0.323  0.677  0.000  0.000     0.655     1.272
  15   8 O     -0.603  1.743  4.859  0.000    25.248     6.782
  16   1 H      0.321  0.679  0.000  0.000     0.661     1.277
  17   1 H      0.313  0.687  0.000  0.000     0.682     1.297
  18   8 O     -0.626  1.752  4.874  0.000    25.826     6.859
  19   1 H      0.313  0.687  0.000  0.000     0.684     1.299
  20   1 H      0.342  0.658  0.000  0.000     0.608     1.226
  21   1 H      0.320  0.680  0.000  0.000     0.665     1.281
  22   7 N     -0.354  1.280  4.074  0.000    29.108     8.013
  23   1 H      0.290  0.710  0.000  0.000     0.744     1.352
  24   1 H      0.221  0.779  0.000  0.000     1.006     1.571
  25   1 H      0.287  0.713  0.000  0.000     0.754     1.361
  26   1 H      0.290  0.710  0.000  0.000     0.745     1.352

 Mol. C6AA /au·bohr⁶  :       5450.827501
 Mol. C8AA /au·bohr⁸  :     117934.935119
 Mol. α(0) /au        :        106.602154

 
 Wiberg/Mayer (AO) data. WBOs > 0.1 written file <wbo>
 largest (>0.05) Wiberg bond orders for each atom
           total WBO             WBO to atom ...
     1  S   4.850    O    3 1.328    O    4 1.316    O    2 1.281    O    5 0.889
     2  O   1.710    S    1 1.281    O    3 0.111    O    4 0.108    O    5 0.073
     3  O   1.739    S    1 1.328    O    2 0.111    O    4 0.109    O    5 0.061    H   14 0.054
     4  O   1.728    S    1 1.316    O    3 0.109    O    2 0.108    H    7 0.084    O    5 0.073
     5  O   1.969    S    1 0.889    H    6 0.866    O    4 0.073    O    2 0.073    O    3 0.061
     6  H   0.882    O    5 0.866
     7  H   0.888    O    8 0.798    O    4 0.084
     8  O   1.863    H    9 0.908    H    7 0.798
     9  H   0.916    O    8 0.908
    10  O   1.894    H   11 0.914    H   20 0.791    H   25 0.098
    11  H   0.920    O   10 0.914
    12  O   1.927    H   13 0.848    H   14 0.837    H   26 0.126    N   22 0.061
    13  H   0.897    O   12 0.848
    14  H   0.896    O   12 0.837    O    3 0.054
    15  O   1.938    H   17 0.866    H   16 0.845    H   23 0.123    N   22 0.061
    16  H   0.897    O   15 0.845
    17  H   0.902    O   15 0.866
    18  O   1.888    H   19 0.865    H   21 0.845    H   20 0.091
    19  H   0.902    O   18 0.865
    20  H   0.883    O   10 0.791    O   18 0.091
    21  H   0.898    O   18 0.845
    22  N   3.518    H   24 0.948    H   25 0.816    H   23 0.789    H   26 0.786    O   15 0.061    O   12 0.061
    23  H   0.916    N   22 0.789    O   15 0.123
    24  H   0.951    N   22 0.948
    25  H   0.918    N   22 0.816    O   10 0.098
    26  H   0.916    N   22 0.786    O   12 0.126
 MOs/occ written to file <molden.input>
 
molecular dipole:
                 x           y           z       tot (Debye)
 q only:        1.607      -1.046      -1.182
   full:        0.841      -0.991      -0.264       3.371
molecular quadrupole (traceless):
                xx          xy          yy          xz          yz          zz
 q only:       -7.385      -5.921      -1.705      -8.332       2.080       9.089
  q+dip:       -6.279      -9.309      -2.262     -10.793       2.580       8.541
   full:       -6.374      -9.924      -2.203     -10.981       2.562       8.577

SCC energy    :     -50.7607911
rep           :       0.2884888
ES            :       0.2638459
AES           :      -0.0786836
AXC           :      -0.0087536
disp          :      -0.0191255
XB            :       0.0000000
fix           :       0.0000000
total E       :     -50.4719419
atomizationE  :       5.0022461     3138.96
(atE without considering molecular charge,
 total energy contains solvation terms)
H-L gap (eV)  :          9.4159
optimized geometry written to: xtbopt.xyz


------------------------------------------------------------------------
 * finished run on 2019/09/16 at 11:20:20.120     
------------------------------------------------------------------------
 total:
 * wall-time:     0 d,  0 h,  0 min,  2.040 sec
 *  cpu-time:     0 d,  0 h,  0 min,  2.013 sec
 * ratio c/w:     0.986 speedup
 SCF:
 * wall-time:     0 d,  0 h,  0 min,  0.136 sec
 *  cpu-time:     0 d,  0 h,  0 min,  0.133 sec
 * ratio c/w:     0.976 speedup
 ANC optimizer:
 * wall-time:     0 d,  0 h,  0 min,  1.882 sec
 *  cpu-time:     0 d,  0 h,  0 min,  1.859 sec
 * ratio c/w:     0.988 speedup

