      -----------------------------------------------------------      
     |                   =====================                   |     
     |                           x T B                           |     
     |                   =====================                   |     
     |                         S. Grimme                         |     
     |          Mulliken Center for Theoretical Chemistry        |     
     |                    University of Bonn                     |     
     |                 Version 6.0.1 (SAW181210)                 |     
      -----------------------------------------------------------      

   This program is distributed in the hope that it will be useful,
   but WITHOUT ANY WARRANTY; without even the implied warranty of
   MERCHANTABILITY or FITNESS FOR A PARTICULAR PURPOSE.
   
   FOR NON-COMMERCIAL, ACADEMIA USE ONLY.
   
   Cite this work as:
   S. Grimme, C. Bannwarth, P. Shushkov, J. Comput. Theory Chem., 2017,
   13, 1989-2009.
   C. Bannwarth, S. Ehlert and S. Grimme., ChemRxiv, 2018, preprint.
   http://doi.org/10.26434/chemrxiv.7246238.v1
   
   for sTDA-xTB:
   S. Grimme and C. Bannwarth, J. Chem. Phys., 2016, 145, 054103.
   
   in the mass-spec context:
   V. Asgeirsson, C. Bauer and S. Grimme, Chem. Sci., 2017, 8, 4879.
   
   if GBSA is used:
   P. Shushkov, F. März and S. Grimme, unpublished.
   
   for ANC optimizer:
   S. Grimme, unpublished.
   Rational Function algorithm used in ANCopt:
   F. Eckert, P. Pulay, H.-J. Werner, J. Comput. Chem., 1997, 18, 1473.
   
   with help from (in alphabetical order)
   C. Bannwarth, F. Bohle, G. Brandenburg, E. Caldeweyher, M. Checinski,
   S. Dohm, S. Ehlert, S. Ehrlich, F. März, H. Neugebauer, J. Pisarek,
   P. Pracht, P. Shushkov, and S. Spicher.
   
 * started run on 2019/09/16 at 12:54:38.038     
========================================================================
 # omp threads = 1
========================================================================
number of atoms            : 26
number of electrons        : 80
charge                     : 0
spin                       : .0
first test random number   : .9789

########################################################################
# WARNING! Please study the warnings concerning your input carefully
#  - XTBPATH is not set, using XTBHOME instead
#  - the use of '-opt' is discouraged, please use '--opt' next time
#  - the use of '-chrg' is discouraged, please use '--chrg' next time
#  - the use of '-uhf' is discouraged, please use '--uhf' next time
########################################################################

           ------------------------------------------------- 
          |                 G F N 2 - x T B                 |
          | Geometry, Frequencies, Noncovalent interactions |
          |            JCTC 2018 parametrisation            |
           ------------------------------------------------- 
      method parameters     
 k(s)        :  1.8500
 k(p)        :  2.2300
 k(d)        :  2.2300
 k(f)        :  2.0000
 kEN (H0ij)  : -2.0000
 D4 a1       :  0.5200
 D4 a2       :  5.0000
 D4 s6       :  1.0000
 D4 s8       :  2.7000
 D4 s9       :  5.0000
 alphaj      :  2.0000


            Z     q(EN)     CN     RAES       Cart. coordinates
     1  S   6.0    0.58    4.27    4.19    -1.49150     5.48047     0.96021
     2  O   6.0   -0.31    1.11    1.80     0.39516     4.90683    -0.96148
     3  O   6.0   -0.28    1.09    1.80    -1.02235     7.18224     3.03903
     4  O   6.0   -0.23    2.02    1.83    -4.07268     6.30258    -0.52540
     5  O   6.0   -0.25    2.11    1.84    -2.54906     2.91844     2.21929
     6  H   1.0    0.18    1.31    1.50    -2.76126     1.64100     0.91182
     7  H   1.0    0.14    1.12    1.45    -3.56094     7.14468    -2.07953
     8  O   6.0   -0.39    1.66    1.81    -2.71010    -0.21579    -1.16546
     9  H   1.0    0.18    0.94    1.42    -4.24167    -0.36063    -2.22237
    10  O   6.0   -0.39    1.63    1.81     3.47448    -3.29038     0.14001
    11  H   1.0    0.18    0.94    1.42     5.03978    -3.55380     1.12196
    12  O   6.0   -0.29    2.03    1.83    -1.75250    -1.04809     5.68686
    13  H   1.0    0.16    1.00    1.43    -2.25724     0.54046     4.95449
    14  H   1.0    0.15    0.97    1.43    -1.83391    -0.79537     7.48800
    15  O   6.0   -0.28    1.97    1.82     4.25602    -4.47269    -4.33549
    16  H   1.0    0.14    0.97    1.43     4.96218    -6.14909    -4.41051
    17  H   1.0    0.17    1.13    1.45     4.01302    -4.13147    -2.56373
    18  O   6.0   -0.23    2.94    2.63    -0.85490    -3.44333     1.46257
    19  H   1.0    0.16    1.19    1.46    -1.78605    -2.32677     0.28949
    20  H   1.0    0.16    1.21    1.47     0.94556    -3.60784     0.99217
    21  H   1.0    0.14    1.04    1.43    -1.06674    -2.91887     3.24346
    22  N   5.0   -0.14    3.98    2.82     1.77494     0.03949    -2.84908
    23  H   1.0    0.13    1.14    1.45    -0.13563    -0.04290    -2.49222
    24  H   1.0    0.11    1.00    1.43     2.39482     1.87182    -2.64229
    25  H   1.0    0.12    1.15    1.45     2.71897    -1.10984    -1.59516
    26  H   1.0    0.09    0.99    1.43     2.12162    -0.56113    -4.66663

  Z AO/shell   Hii/eV     exponent
  1     Wed Apr 25 08:07:45 CEST 2018   EN: 2.200 GM2: 0.406  GM3: 0.0800  RAES: 1.40
     1s    -10.707211    1.230000
  7     Wed Apr 25 08:07:45 CEST 2018   EN: 3.040 GM2: 0.461  GM3:-0.0640  RAES: 1.90
     2s    -16.686243    2.339881
     2p    -12.523956    2.014332
  8     Wed Apr 25 08:07:45 CEST 2018   EN: 3.440 GM2: 0.452  GM3:-0.0517  RAES: 1.80
     2s    -20.229985    2.439742
     2p    -15.503117    2.137023
 16     Tue Apr 24 11:44:34 CEST 2018   EN: 2.580 GM2: 0.340  GM3:-0.0502  RAES: 3.10
     3s    -20.029654    1.981333
     3p    -11.377694    2.025643
     3d     -0.420282    1.702555
 no old-style atom pair restraining (fixing) potential

molecular fragmentation (1/2 indicates fragments):
11111112222222222222222222
# atoms in fragment 1/2:     7    19
 fragment masses (1/2) :       98.07      107.11
CMA distance (Bohr)    :   7.890
constraining FC (au)   :  0.0500
           ------------------------------------------------- 
          |        Self-Consistent Charge Iterations        |
           ------------------------------------------------- 

 Ncao       : 65
 Nao        : 64
 Nshell     : 38
 Nel        : 80
 T(el)      :   300.0
 intcut     :    25.0
 scfconv/Eh :  0.100E-05
   qconv/e  :  0.100E-03
 intneglect :  0.100E-07
 broydamp   :      0.250
 iter      E             dE          RMSdq      gap      omega  full diag
   1    -50.5394314 -0.505394E+02  0.707E+00    8.12       0.0  T
   2    -50.5910863 -0.516549E-01  0.499E+00    7.08       1.0  T
   3    -50.6331961 -0.421097E-01  0.118E+00    4.20       1.0  T
   4    -50.6366396 -0.344358E-02  0.704E-01    4.38       1.0  T
   5    -50.6383649 -0.172523E-02  0.243E-01    4.46       1.0  T
   6    -50.6386310 -0.266096E-03  0.143E-01    4.48       1.0  T
   7    -50.6387612 -0.130235E-03  0.433E-02    4.50       1.0  T
   8    -50.6387698 -0.863209E-05  0.251E-02    4.49       1.0  T
   9    -50.6387735 -0.367566E-05  0.773E-03    4.50       2.5  T
  10    -50.6387737 -0.239141E-06  0.261E-03    4.51       7.5  T
  11    -50.6387738 -0.189322E-07  0.112E-03    4.50      17.5  T
  12    -50.6387738 -0.530945E-08  0.390E-04    4.50      50.3  T
  13    -50.6387738 -0.610413E-09  0.150E-04    4.50     130.6  T
speedup  0.97
cpu  time for SCC    0.01 s
wall time for SCC    0.02 s

   *** convergence criteria satisfied after 13 iterations ***

          eigenvalues
 #    :          28         29         30         31         32         33         34         35
 occ. :        2.000      2.000      2.000      2.000      2.000      2.000      2.000      2.000
 eps  :       -12.943    -12.877    -12.847    -12.716    -12.693    -12.632    -12.497    -12.214
 #    :          36         37         38         39         40         41         42         43
 occ. :        2.000      2.000      2.000      2.000      2.000      0.000      0.000      0.000
 eps  :       -10.661    -10.543    -10.488     -9.776     -9.505     -5.000     -2.278     -1.410
 #    :          44         45         46         47         48         49         50         51
 occ. :        0.000      0.000      0.000      0.000      0.000      0.000      0.000      0.000
 eps  :        -0.608      0.426      0.717      2.514      2.792      3.180      4.301      4.534


   #   Z            q   n(s)   n(p)   n(d)      C6AA      α(0)
   1  16 S      1.628  1.629  1.811  0.932    90.425    16.005
   2   8 O     -0.665  1.769  4.896  0.000    27.773     7.066
   3   8 O     -0.619  1.771  4.848  0.000    26.577     6.912
   4   8 O     -0.568  1.760  4.808  0.000    24.411     6.670
   5   8 O     -0.612  1.757  4.855  0.000    25.448     6.810
   6   1 H      0.392  0.608  0.000  0.000     0.495     1.102
   7   1 H      0.344  0.656  0.000  0.000     0.600     1.216
   8   8 O     -0.854  1.829  5.025  0.000    33.227     7.730
   9   1 H      0.213  0.787  0.000  0.000     1.056     1.615
  10   8 O     -0.864  1.823  5.041  0.000    33.563     7.769
  11   1 H      0.198  0.802  0.000  0.000     1.130     1.670
  12   8 O     -0.593  1.725  4.868  0.000    25.013     6.750
  13   1 H      0.324  0.676  0.000  0.000     0.652     1.268
  14   1 H      0.292  0.708  0.000  0.000     0.745     1.356
  15   8 O     -0.662  1.756  4.906  0.000    26.723     6.977
  16   1 H      0.251  0.749  0.000  0.000     0.889     1.481
  17   1 H      0.326  0.674  0.000  0.000     0.647     1.262
  18   8 O     -0.485  1.672  4.813  0.000    22.515     6.409
  19   1 H      0.395  0.605  0.000  0.000     0.489     1.096
  20   1 H      0.400  0.600  0.000  0.000     0.478     1.082
  21   1 H      0.380  0.620  0.000  0.000     0.523     1.136
  22   7 N     -0.323  1.267  4.055  0.000    28.280     7.898
  23   1 H      0.300  0.700  0.000  0.000     0.711     1.320
  24   1 H      0.241  0.759  0.000  0.000     0.918     1.501
  25   1 H      0.316  0.684  0.000  0.000     0.667     1.279
  26   1 H      0.245  0.755  0.000  0.000     0.903     1.488

 Mol. C6AA /au·bohr⁶  :       5481.309169
 Mol. C8AA /au·bohr⁸  :     118633.785766
 Mol. α(0) /au        :        106.866738

 
 Wiberg/Mayer (AO) data. WBOs > 0.1 written file <wbo>
 largest (>0.05) Wiberg bond orders for each atom
           total WBO             WBO to atom ...
     1  S   4.790    O    3 1.487    O    2 1.407    O    5 0.982    O    4 0.885
     2  O   1.763    S    1 1.407    O    3 0.144    O    5 0.101    O    4 0.092
     3  O   1.823    S    1 1.487    O    2 0.144    O    4 0.091    O    5 0.089
     4  O   1.985    S    1 0.885    H    7 0.863    O    2 0.092    O    3 0.091    O    5 0.052
     5  O   1.980    S    1 0.982    H    6 0.662    O    2 0.101    O    3 0.089    O    4 0.052    O    8 0.052
     6  H   0.846    O    5 0.662    O    8 0.170
     7  H   0.882    O    4 0.863
     8  O   1.614    H    9 0.942    H   19 0.179    H    6 0.170    H   23 0.135    N   22 0.061    O   18 0.059    O    5 0.052
     9  H   0.955    O    8 0.942
    10  O   1.563    H   11 0.943    H   20 0.190    H   25 0.136    H   17 0.116    N   22 0.060    O   18 0.059    O   15 0.051
    11  H   0.961    O   10 0.943
    12  O   1.864    H   14 0.903    H   13 0.869    H   21 0.058
    13  H   0.895    O   12 0.869
    14  H   0.915    O   12 0.903
    15  O   1.770    H   16 0.934    H   17 0.774    O   10 0.051
    16  H   0.937    O   15 0.934
    17  H   0.894    O   15 0.774    O   10 0.116
    18  O   2.255    H   21 0.789    H   19 0.661    H   20 0.643    O    8 0.059    O   10 0.059
    19  H   0.844    O   18 0.661    O    8 0.179
    20  H   0.840    O   18 0.643    O   10 0.190
    21  H   0.856    O   18 0.789    O   12 0.058
    22  N   3.531    H   26 0.932    H   24 0.925    H   23 0.770    H   25 0.755    O    8 0.061    O   10 0.060
    23  H   0.910    N   22 0.770    O    8 0.135
    24  H   0.942    N   22 0.925
    25  H   0.900    N   22 0.755    O   10 0.136
    26  H   0.940    N   22 0.932
 MOs/occ written to file <molden.input>
 
molecular dipole:
                 x           y           z       tot (Debye)
 q only:       -0.552      -0.030      -0.200
   full:       -0.573       0.190      -0.168       1.594
molecular quadrupole (traceless):
                xx          xy          yy          xz          yz          zz
 q only:       -3.609       4.584      -6.935       1.753     -17.305      10.544
  q+dip:       -1.600      -0.045      -8.034       3.861     -18.697       9.634
   full:       -1.884      -0.379      -8.088       4.199     -18.969       9.972

SCC energy    :     -50.6387738
rep           :       0.2772762
ES            :       0.3003259
AES           :      -0.0524577
AXC           :      -0.0049148
disp          :      -0.0168656
XB            :       0.0000000
fix           :       0.0000000
total E       :     -50.3612785
atomizationE  :       4.8915827     3069.51
(atE without considering molecular charge,
 total energy contains solvation terms)
H-L gap (eV)  :          4.5049
           ------------------------------------------------- 
          |                 ===============                 |
          |                   A N C O P T                   |
          |                 ===============                 |
          |          Approximate Normal Coordinate          |
          |           Rational Function Optimizer           |
           ------------------------------------------------- 
dumping coords to <xtbopt.coord> and <xtbopt.log>
 optlevel               2
 Maxcycle             520
 Maxmicro              25
 Econv         1.000000000000000E-007
 Gconv         2.000000000000000E-004
 Maxdispl       1.00000000000000     
 Hlow          5.000000000000000E-003
 S6             20.0000000000000     
 Nvar               72

generating ANC from model Hessian ...
 Shifting diagonal of input Hessian by   5.326281262332064E-003
 Lowest  eigenvalues of input Hessian
    0.005000    0.005222   -0.000000    0.000000    0.000000    0.000000
    0.000000    0.000000    0.005398    0.005503    0.005623    0.005743
    0.006028    0.006135    0.006465    0.006819    0.007107    0.007982
 Highest eigenvalues
    1.445809    1.576397    1.604880    1.951911    2.766404    3.588073
 
cpu  time for ANC gen    0.01 s
wall time for ANC gen    0.01 s
................................................................................
.............................. CYCLE    1 ......................................
................................................................................
   1    -50.6387738 -0.506388E+02  0.549E-05    4.50       0.0  T
   2    -50.6387738 -0.584066E-11  0.413E-05    4.50     475.0  T
   3    -50.6387738 -0.591172E-11  0.175E-05    4.50    1118.7  T
speedup  0.97
cpu  time for SCC    0.00 s
wall time for SCC    0.00 s
speedup  0.96
cpu  time for grad    0.01 s
wall time for grad    0.01 s
 E :    -50.36127850  G :  0.183214    pred/act E change:  0.000D+00  0.259D-07
Maxdispl :   0.0896   ||displ|| :   0.2551   Lambda : -0.306D-01
Largest |displ|/coords:  0.0896 (  55)  0.0849 (  19)  0.0644 (   9)
................................................................................
.............................. CYCLE    2 ......................................
................................................................................
   1    -50.6536453 -0.506536E+02  0.278E-01    5.25       0.0  T
   2    -50.6538207 -0.175424E-03  0.200E-01    5.32       1.0  T
   3    -50.6539146 -0.939145E-04  0.552E-02    5.46       1.0  T
   4    -50.6539262 -0.115636E-04  0.194E-02    5.45       1.0  T
   5    -50.6539268 -0.601289E-06  0.617E-03    5.45       3.2  T
   6    -50.6539268 -0.771938E-07  0.315E-03    5.45       6.2  T
   7    -50.6539269 -0.200281E-07  0.135E-03    5.45      14.5  T
speedup  0.94
cpu  time for SCC    0.01 s
wall time for SCC    0.01 s
speedup  0.94
cpu  time for grad    0.01 s
wall time for grad    0.01 s
 E :    -50.38428374  G :  0.097628    pred/act E change:  0.000D+00 -0.230D-01
Maxdispl :   0.1203   ||displ|| :   0.2842   Lambda : -0.123D-01
Largest |displ|/coords:  0.1203 (  19)  0.1015 (   9)  0.0907 (  16)
................................................................................
.............................. CYCLE    3 ......................................
................................................................................
   1    -50.6618596 -0.506619E+02  0.251E-01    6.04       0.0  T
   2    -50.6620497 -0.190124E-03  0.178E-01    6.13       1.0  T
   3    -50.6621378 -0.880996E-04  0.576E-02    6.31       1.0  T
   4    -50.6621473 -0.948818E-05  0.144E-02    6.31       1.4  T
   5    -50.6621478 -0.533537E-06  0.462E-03    6.30       4.2  T
   6    -50.6621479 -0.361759E-07  0.276E-03    6.30       7.1  T
speedup  1.00
cpu  time for SCC    0.01 s
wall time for SCC    0.01 s
speedup  1.03
cpu  time for grad    0.01 s
wall time for grad    0.01 s
 E :    -50.39429831  G :  0.066138    pred/act E change: -0.163D-01 -0.100D-01
Maxdispl :   0.1219   ||displ|| :   0.2858   Lambda : -0.711D-02
Largest |displ|/coords:  0.1219 (  19)  0.0788 (   9)  0.0730 (  16)
................................................................................
.............................. CYCLE    4 ......................................
................................................................................
   1    -50.6662470 -0.506662E+02  0.249E-01    6.74       0.0  T
   2    -50.6664338 -0.186791E-03  0.177E-01    6.84       1.0  T
   3    -50.6665188 -0.849902E-04  0.598E-02    7.03       1.0  T
   4    -50.6665288 -0.100136E-04  0.128E-02    7.03       1.5  T
   5    -50.6665293 -0.490657E-06  0.460E-03    7.02       4.3  T
   6    -50.6665293 -0.296843E-07  0.276E-03    7.02       7.1  T
speedup  1.07
cpu  time for SCC    0.01 s
wall time for SCC    0.01 s
speedup  0.99
cpu  time for grad    0.01 s
wall time for grad    0.01 s
 E :    -50.40042579  G :  0.052259    pred/act E change: -0.662D-02 -0.613D-02
Maxdispl :   0.1029   ||displ|| :   0.2871   Lambda : -0.509D-02
Largest |displ|/coords:  0.1029 (  19)  0.0891 (   9)  0.0850 (  16)
................................................................................
.............................. CYCLE    5 ......................................
................................................................................
   1    -50.6690524 -0.506691E+02  0.240E-01    7.33       0.0  T
   2    -50.6692182 -0.165851E-03  0.173E-01    7.43       1.0  T
   3    -50.6692942 -0.759601E-04  0.591E-02    7.61       1.0  T
   4    -50.6693045 -0.103355E-04  0.120E-02    7.61       1.6  T
   5    -50.6693049 -0.406343E-06  0.470E-03    7.60       4.2  T
   6    -50.6693049 -0.272897E-07  0.278E-03    7.60       7.1  T
speedup  1.07
cpu  time for SCC    0.01 s
wall time for SCC    0.01 s
speedup  0.99
cpu  time for grad    0.01 s
wall time for grad    0.01 s
 E :    -50.40497170  G :  0.047490    pred/act E change: -0.385D-02 -0.455D-02
Maxdispl :   0.1737   ||displ|| :   0.6074   Lambda : -0.129D-01
Largest |displ|/coords:  0.1737 (  16)  0.1621 (  27)  0.1610 (  21)
................................................................................
.............................. CYCLE    6 ......................................
................................................................................
   1    -50.6822742 -0.506823E+02  0.597E-01    8.43       0.0  T
   2    -50.6837675 -0.149323E-02  0.421E-01    8.72       1.0  T
   3    -50.6844465 -0.679095E-03  0.169E-01    8.99       1.0  T
   4    -50.6845102 -0.637041E-04  0.377E-02    9.06       1.0  T
   5    -50.6845141 -0.381383E-05  0.161E-02    9.05       1.2  T
   6    -50.6845144 -0.335906E-06  0.916E-03    9.05       2.1  T
   7    -50.6845145 -0.101142E-06  0.233E-03    9.04       8.4  T
   8    -50.6845145 -0.111532E-07  0.683E-04    9.04      28.7  T
speedup  1.11
cpu  time for SCC    0.01 s
wall time for SCC    0.01 s
speedup  1.02
cpu  time for grad    0.01 s
wall time for grad    0.01 s
 E :    -50.41384096  G :  0.056696    pred/act E change: -0.276D-02 -0.887D-02
Maxdispl :   0.1720   ||displ|| :   0.4979   Lambda : -0.723D-02
Largest |displ|/coords:  0.1720 (  19)  0.1627 (   7)  0.1431 (  10)
................................................................................
.............................. CYCLE    7 ......................................
................................................................................
   1    -50.6856657 -0.506857E+02  0.471E-01    9.12       0.0  T
   2    -50.6859333 -0.267586E-03  0.353E-01    9.16       1.0  T
   3    -50.6860689 -0.135569E-03  0.895E-02    9.13       1.0  T
   4    -50.6861040 -0.351730E-04  0.235E-02    9.13       1.0  T
   5    -50.6861055 -0.146582E-05  0.810E-03    9.13       2.4  T
   6    -50.6861056 -0.697093E-07  0.505E-03    9.13       3.9  T
   7    -50.6861056 -0.300944E-07  0.130E-03    9.13      15.1  T
speedup  1.09
cpu  time for SCC    0.01 s
wall time for SCC    0.01 s
speedup  1.00
cpu  time for grad    0.01 s
wall time for grad    0.01 s
 E :    -50.41950859  G :  0.069367    pred/act E change: -0.881D-02 -0.567D-02
Maxdispl :   0.1604   ||displ|| :   0.3695   Lambda : -0.684D-02
Largest |displ|/coords:  0.1604 (   9)  0.1194 (  10)  0.1001 (  16)
................................................................................
.............................. CYCLE    8 ......................................
................................................................................
   1    -50.7032715 -0.507033E+02  0.265E-01    9.14       0.0  T
   2    -50.7033715 -0.100017E-03  0.201E-01    9.13       1.0  T
   3    -50.7034324 -0.608991E-04  0.565E-02    9.10       1.0  T
   4    -50.7034447 -0.123251E-04  0.191E-02    9.09       1.0  T
   5    -50.7034454 -0.713361E-06  0.619E-03    9.09       3.2  T
   6    -50.7034455 -0.399004E-07  0.322E-03    9.09       6.1  T
   7    -50.7034455 -0.156497E-07  0.941E-04    9.09      20.8  T
speedup  0.91
cpu  time for SCC    0.01 s
wall time for SCC    0.01 s
speedup  0.99
cpu  time for grad    0.01 s
wall time for grad    0.01 s
 E :    -50.42508312  G :  0.066061    pred/act E change: -0.451D-02 -0.557D-02
Maxdispl :   0.1325   ||displ|| :   0.3572   Lambda : -0.765D-02
Largest |displ|/coords:  0.1325 (  19)  0.1294 (   6)  0.0984 (   9)
................................................................................
.............................. CYCLE    9 ......................................
................................................................................
   1    -50.7076815 -0.507077E+02  0.271E-01    9.04       0.0  T
   2    -50.7077786 -0.971222E-04  0.203E-01    9.03       1.0  T
   3    -50.7078413 -0.626741E-04  0.586E-02    9.00       1.0  T
   4    -50.7078528 -0.114458E-04  0.193E-02    8.99       1.0  T
   5    -50.7078535 -0.778496E-06  0.608E-03    9.00       3.2  T
   6    -50.7078536 -0.532927E-07  0.350E-03    9.00       5.6  T
   7    -50.7078536 -0.166982E-07  0.802E-04    9.00      24.4  T
speedup  1.11
cpu  time for SCC    0.01 s
wall time for SCC    0.01 s
speedup  1.01
cpu  time for grad    0.01 s
wall time for grad    0.01 s
 E :    -50.43102163  G :  0.065006    pred/act E change: -0.388D-02 -0.594D-02
Maxdispl :   0.1566   ||displ|| :   0.3233   Lambda : -0.822D-02
Largest |displ|/coords:  0.1566 (  10)  0.0940 (  15)  0.0896 (   3)
................................................................................
.............................. CYCLE   10 ......................................
................................................................................
   1    -50.7222530 -0.507223E+02  0.278E-01    8.92       0.0  T
   2    -50.7223321 -0.791671E-04  0.210E-01    8.92       1.0  T
   3    -50.7223845 -0.523377E-04  0.526E-02    8.92       1.0  T
   4    -50.7223941 -0.962349E-05  0.175E-02    8.92       1.1  T
   5    -50.7223947 -0.568687E-06  0.527E-03    8.92       3.7  T
   6    -50.7223947 -0.235601E-07  0.278E-03    8.92       7.1  T
speedup  1.05
cpu  time for SCC    0.01 s
wall time for SCC    0.01 s
speedup  0.97
cpu  time for grad    0.01 s
wall time for grad    0.01 s
 E :    -50.43575992  G :  0.049030    pred/act E change: -0.431D-02 -0.474D-02
Maxdispl :   0.1835   ||displ|| :   0.4895   Lambda : -0.946D-02
Largest |displ|/coords:  0.1835 (   9)  0.1346 (  16)  0.1303 (  69)
................................................................................
.............................. CYCLE   11 ......................................
................................................................................
   1    -50.7446712 -0.507447E+02  0.400E-01    8.84       0.0  T
   2    -50.7448019 -0.130657E-03  0.304E-01    8.84       1.0  T
   3    -50.7448999 -0.980351E-04  0.663E-02    8.82       1.0  T
   4    -50.7449179 -0.179471E-04  0.231E-02    8.82       1.0  T
   5    -50.7449188 -0.895508E-06  0.798E-03    8.82       2.5  T
   6    -50.7449188 -0.637828E-07  0.417E-03    8.82       4.7  T
   7    -50.7449188 -0.304253E-07  0.922E-04    8.82      21.3  T
speedup  0.91
cpu  time for SCC    0.01 s
wall time for SCC    0.01 s
speedup  0.99
cpu  time for grad    0.01 s
wall time for grad    0.01 s
 E :    -50.44001626  G :  0.054224    pred/act E change: -0.454D-02 -0.426D-02
Maxdispl :   0.1519   ||displ|| :   0.3861   Lambda : -0.843D-02
Largest |displ|/coords:  0.1519 (  30)  0.1163 (  21)  0.1002 (  31)
................................................................................
.............................. CYCLE   12 ......................................
................................................................................
   1    -50.7159039 -0.507159E+02  0.363E-01    8.60       0.0  T
   2    -50.7161495 -0.245635E-03  0.271E-01    8.62       1.0  T
   3    -50.7163081 -0.158568E-03  0.838E-02    8.67       1.0  T
   4    -50.7163315 -0.234127E-04  0.273E-02    8.66       1.0  T
   5    -50.7163330 -0.148065E-05  0.874E-03    8.66       2.2  T
   6    -50.7163331 -0.128977E-06  0.453E-03    8.66       4.3  T
   7    -50.7163331 -0.310408E-07  0.153E-03    8.66      12.8  T
speedup  1.08
cpu  time for SCC    0.01 s
wall time for SCC    0.01 s
speedup  1.00
cpu  time for grad    0.01 s
wall time for grad    0.01 s
 E :    -50.43857923  G :  0.059085    pred/act E change: -0.586D-02  0.144D-02
Maxdispl :   0.1497   ||displ|| :   0.4200   Lambda : -0.162D-01
Largest |displ|/coords:  0.1497 (  26)  0.1158 (   5)  0.1099 (  30)
................................................................................
.............................. CYCLE   13 ......................................
................................................................................
   1    -50.7476283 -0.507476E+02  0.426E-01    8.98       0.0  T
   2    -50.7479125 -0.284202E-03  0.324E-01    8.95       1.0  T
   3    -50.7481515 -0.238983E-03  0.904E-02    8.89       1.0  T
   4    -50.7481798 -0.283274E-04  0.354E-02    8.90       1.0  T
   5    -50.7481818 -0.200041E-05  0.110E-02    8.90       1.8  T
   6    -50.7481820 -0.127894E-06  0.501E-03    8.90       3.9  T
   7    -50.7481820 -0.430128E-07  0.165E-03    8.90      11.9  T
speedup  0.92
cpu  time for SCC    0.01 s
wall time for SCC    0.01 s
speedup  0.99
cpu  time for grad    0.01 s
wall time for grad    0.01 s
 E :    -50.43926235  G :  0.081695    pred/act E change: -0.484D-02 -0.683D-03
Maxdispl :   0.1436   ||displ|| :   0.3784   Lambda : -0.225D-01
Largest |displ|/coords:  0.1436 (  30)  0.1106 (  31)  0.1063 (  21)
................................................................................
.............................. CYCLE   14 ......................................
................................................................................
   1    -50.7213199 -0.507213E+02  0.338E-01    8.60       0.0  T
   2    -50.7216111 -0.291226E-03  0.255E-01    8.64       1.0  T
   3    -50.7218403 -0.229134E-03  0.893E-02    8.69       1.0  T
   4    -50.7218645 -0.242172E-04  0.377E-02    8.68       1.0  T
   5    -50.7218669 -0.245029E-05  0.106E-02    8.68       1.8  T
   6    -50.7218672 -0.245144E-06  0.511E-03    8.68       3.8  T
   7    -50.7218672 -0.346311E-07  0.198E-03    8.68       9.9  T
speedup  1.09
cpu  time for SCC    0.01 s
wall time for SCC    0.01 s
speedup  1.01
cpu  time for grad    0.01 s
wall time for grad    0.01 s
 E :    -50.43918785  G :  0.062347    pred/act E change: -0.952D-02  0.745D-04
Maxdispl :   0.1487   ||displ|| :   0.3756   Lambda : -0.129D-01
Largest |displ|/coords:  0.1487 (   5)  0.1426 (   6)  0.1059 (   3)
................................................................................
.............................. CYCLE   15 ......................................
................................................................................
   1    -50.7330994 -0.507331E+02  0.493E-01    8.93       0.0  T
   2    -50.7332856 -0.186213E-03  0.374E-01    8.91       1.0  T
   3    -50.7334329 -0.147307E-03  0.735E-02    8.86       1.0  T
   4    -50.7334554 -0.224288E-04  0.272E-02    8.87       1.0  T
   5    -50.7334565 -0.114657E-05  0.867E-03    8.87       2.3  T
   6    -50.7334566 -0.960509E-07  0.464E-03    8.87       4.2  T
   7    -50.7334566 -0.412029E-07  0.133E-03    8.87      14.7  T
speedup  0.94
cpu  time for SCC    0.01 s
wall time for SCC    0.01 s
speedup  1.01
cpu  time for grad    0.01 s
wall time for grad    0.01 s
 E :    -50.44270215  G :  0.054833    pred/act E change: -0.128D-01 -0.351D-02
Maxdispl :   0.3336   ||displ|| :   0.5710   Lambda : -0.141D-01
Largest |displ|/coords:  0.3336 (   5)  0.2553 (   6)  0.1881 (   4)
................................................................................
.............................. CYCLE   16 ......................................
................................................................................
   1    -50.7366806 -0.507367E+02  0.865E-01    8.79       0.0  T
   2    -50.7369525 -0.271933E-03  0.660E-01    8.80       1.0  T
   3    -50.7371832 -0.230685E-03  0.858E-02    8.82       1.0  T
   4    -50.7372212 -0.380416E-04  0.197E-02    8.81       1.0  T
   5    -50.7372215 -0.300151E-06  0.121E-02    8.81       1.6  T
   6    -50.7372216 -0.661256E-07  0.359E-03    8.81       5.5  T
   7    -50.7372216 -0.293495E-07  0.788E-04    8.81      24.9  T
speedup  1.06
cpu  time for SCC    0.01 s
wall time for SCC    0.01 s
speedup  0.99
cpu  time for grad    0.01 s
wall time for grad    0.01 s
 E :    -50.44264454  G :  0.056592    pred/act E change: -0.734D-02  0.576D-04
Maxdispl :   0.2236   ||displ|| :   0.3897   Lambda : -0.619D-02
Largest |displ|/coords:  0.2236 (  11)  0.1659 (   8)  0.1532 (   6)
................................................................................
.............................. CYCLE   17 ......................................
................................................................................
   1    -50.7433078 -0.507433E+02  0.378E-01    8.87       0.0  T
   2    -50.7433408 -0.330256E-04  0.287E-01    8.87       1.0  T
   3    -50.7433851 -0.442588E-04  0.287E-02    8.87       1.0  T
   4    -50.7433863 -0.118886E-05  0.113E-02    8.87       1.7  T
   5    -50.7433865 -0.159286E-06  0.392E-03    8.87       5.0  T
   6    -50.7433865 -0.197920E-07  0.178E-03    8.87      11.0  T
speedup  0.88
cpu  time for SCC    0.01 s
wall time for SCC    0.01 s
speedup  0.98
cpu  time for grad    0.01 s
wall time for grad    0.01 s
 E :    -50.44555170  G :  0.013237    pred/act E change: -0.933D-02 -0.291D-02
Maxdispl :   0.1835   ||displ|| :   0.3011   Lambda : -0.135D-02
Largest |displ|/coords:  0.1835 (   9)  0.1160 (   1)  0.0701 (  15)
................................................................................
.............................. CYCLE   18 ......................................
................................................................................
   1    -50.7361461 -0.507361E+02  0.152E-01    8.86       0.0  T
   2    -50.7361756 -0.295602E-04  0.114E-01    8.86       1.0  T
   3    -50.7361892 -0.135394E-04  0.330E-02    8.86       1.0  T
   4    -50.7361930 -0.379923E-05  0.104E-02    8.86       1.9  T
   5    -50.7361932 -0.199048E-06  0.334E-03    8.86       5.9  T
   6    -50.7361932 -0.177286E-07  0.172E-03    8.86      11.4  T
   7    -50.7361932 -0.512615E-08  0.530E-04    8.86      37.0  T
speedup  1.06
cpu  time for SCC    0.01 s
wall time for SCC    0.01 s
speedup  0.99
cpu  time for grad    0.01 s
wall time for grad    0.01 s
 E :    -50.44597620  G :  0.023599    pred/act E change: -0.356D-02 -0.425D-03
Maxdispl :   0.1246   ||displ|| :   0.2436   Lambda : -0.137D-02
Largest |displ|/coords:  0.1246 (   1)  0.0799 (  10)  0.0749 (  13)
................................................................................
.............................. CYCLE   19 ......................................
................................................................................
   1    -50.7414057 -0.507414E+02  0.129E-01    8.88       0.0  T
   2    -50.7414114 -0.571809E-05  0.978E-02    8.88       1.0  T
   3    -50.7414153 -0.391814E-05  0.125E-02    8.88       1.6  T
   4    -50.7414162 -0.892784E-06  0.456E-03    8.88       4.3  T
   5    -50.7414162 -0.373830E-07  0.154E-03    8.88      12.7  T
speedup  1.06
cpu  time for SCC    0.00 s
wall time for SCC    0.00 s
speedup  0.98
cpu  time for grad    0.01 s
wall time for grad    0.01 s
 E :    -50.44689412  G :  0.018474    pred/act E change: -0.737D-03 -0.918D-03
Maxdispl :   0.2072   ||displ|| :   0.5027   Lambda : -0.230D-02
Largest |displ|/coords:  0.2072 (  14)  0.2026 (   1)  0.1631 (  15)
................................................................................
.............................. CYCLE   20 ......................................
................................................................................
   1    -50.7386374 -0.507386E+02  0.282E-01    8.86       0.0  T
   2    -50.7386657 -0.283284E-04  0.212E-01    8.87       1.0  T
   3    -50.7386806 -0.148194E-04  0.390E-02    8.88       1.0  T
   4    -50.7386849 -0.433124E-05  0.115E-02    8.88       1.7  T
   5    -50.7386851 -0.180629E-06  0.290E-03    8.88       6.8  T
   6    -50.7386851 -0.690287E-08  0.171E-03    8.88      11.4  T
speedup  1.09
cpu  time for SCC    0.01 s
wall time for SCC    0.01 s
speedup  1.07
cpu  time for grad    0.01 s
wall time for grad    0.01 s
 E :    -50.44702351  G :  0.032711    pred/act E change: -0.727D-03 -0.129D-03
Maxdispl :   0.0919   ||displ|| :   0.2184   Lambda : -0.248D-02
Largest |displ|/coords:  0.0919 (  13)  0.0733 (   9)  0.0724 (  14)
................................................................................
.............................. CYCLE   21 ......................................
................................................................................
   1    -50.7480509 -0.507481E+02  0.131E-01    8.94       0.0  T
   2    -50.7480582 -0.732603E-05  0.983E-02    8.93       1.0  T
   3    -50.7480637 -0.553577E-05  0.155E-02    8.92       1.3  T
   4    -50.7480645 -0.779446E-06  0.537E-03    8.93       3.7  T
   5    -50.7480646 -0.429060E-07  0.172E-03    8.93      11.4  T
speedup  1.00
cpu  time for SCC    0.00 s
wall time for SCC    0.00 s
speedup  1.03
cpu  time for grad    0.01 s
wall time for grad    0.01 s
 E :    -50.44834607  G :  0.017759    pred/act E change: -0.144D-02 -0.132D-02
Maxdispl :   0.1084   ||displ|| :   0.2477   Lambda : -0.112D-02
Largest |displ|/coords:  0.1084 (   3)  0.0997 (   9)  0.0559 (   7)
................................................................................
.............................. CYCLE   22 ......................................
................................................................................
   1    -50.7448514 -0.507449E+02  0.147E-01    8.95       0.0  T
   2    -50.7448643 -0.129542E-04  0.108E-01    8.95       1.0  T
   3    -50.7448724 -0.807400E-05  0.230E-02    8.94       1.0  T
   4    -50.7448738 -0.141123E-05  0.660E-03    8.95       3.0  T
   5    -50.7448739 -0.829015E-07  0.233E-03    8.95       8.4  T
   6    -50.7448739 -0.484567E-08  0.131E-03    8.95      15.0  T
speedup  1.09
cpu  time for SCC    0.01 s
wall time for SCC    0.01 s
speedup  0.99
cpu  time for grad    0.01 s
wall time for grad    0.01 s
 E :    -50.44877658  G :  0.023139    pred/act E change: -0.130D-02 -0.431D-03
Maxdispl :   0.0721   ||displ|| :   0.2218   Lambda : -0.943D-03
Largest |displ|/coords:  0.0721 (  15)  0.0686 (   9)  0.0609 (   2)
................................................................................
.............................. CYCLE   23 ......................................
................................................................................
   1    -50.7448299 -0.507448E+02  0.150E-01    8.96       0.0  T
   2    -50.7448372 -0.730107E-05  0.111E-01    8.96       1.0  T
   3    -50.7448418 -0.466326E-05  0.201E-02    8.96       1.0  T
   4    -50.7448427 -0.881510E-06  0.562E-03    8.96       3.5  T
   5    -50.7448428 -0.506300E-07  0.164E-03    8.96      12.0  T
speedup  1.06
cpu  time for SCC    0.00 s
wall time for SCC    0.00 s
speedup  0.90
cpu  time for grad    0.01 s
wall time for grad    0.01 s
 E :    -50.44943898  G :  0.014973    pred/act E change: -0.592D-03 -0.662D-03
Maxdispl :   0.1388   ||displ|| :   0.3894   Lambda : -0.132D-02
Largest |displ|/coords:  0.1388 (   2)  0.1364 (   9)  0.1072 (   4)
................................................................................
.............................. CYCLE   24 ......................................
................................................................................
   1    -50.7498833 -0.507499E+02  0.256E-01    8.97       0.0  T
   2    -50.7499160 -0.327138E-04  0.190E-01    8.97       1.0  T
   3    -50.7499301 -0.140486E-04  0.456E-02    8.97       1.0  T
   4    -50.7499342 -0.410515E-05  0.144E-02    8.97       1.4  T
   5    -50.7499344 -0.214956E-06  0.262E-03    8.97       7.5  T
   6    -50.7499344 -0.821471E-08  0.164E-03    8.97      12.0  T
speedup  0.89
cpu  time for SCC    0.00 s
wall time for SCC    0.01 s
speedup  0.98
cpu  time for grad    0.01 s
wall time for grad    0.01 s
 E :    -50.45002113  G :  0.015946    pred/act E change: -0.495D-03 -0.582D-03
Maxdispl :   0.1303   ||displ|| :   0.3770   Lambda : -0.105D-02
Largest |displ|/coords:  0.1303 (   2)  0.1229 (   3)  0.1021 (   1)
................................................................................
.............................. CYCLE   25 ......................................
................................................................................
   1    -50.7424148 -0.507424E+02  0.277E-01    8.96       0.0  T
   2    -50.7424443 -0.295620E-04  0.206E-01    8.95       1.0  T
   3    -50.7424630 -0.186319E-04  0.381E-02    8.95       1.0  T
   4    -50.7424669 -0.394998E-05  0.985E-03    8.95       2.0  T
   5    -50.7424671 -0.162714E-06  0.313E-03    8.95       6.3  T
   6    -50.7424671 -0.151094E-07  0.171E-03    8.95      11.5  T
   7    -50.7424671 -0.440735E-08  0.607E-04    8.95      32.3  T
speedup  1.08
cpu  time for SCC    0.01 s
wall time for SCC    0.01 s
speedup  0.99
cpu  time for grad    0.01 s
wall time for grad    0.01 s
 E :    -50.45033570  G :  0.023978    pred/act E change: -0.762D-03 -0.315D-03
Maxdispl :   0.1156   ||displ|| :   0.2446   Lambda : -0.134D-02
Largest |displ|/coords:  0.1156 (   2)  0.0923 (   5)  0.0805 (  10)

generating ANC from model Hessian ...
 Shifting diagonal of input Hessian by   5.081293818520157E-003
 Lowest  eigenvalues of input Hessian
    0.005000    0.005054   -0.000000   -0.000000    0.000000    0.000000
    0.000000    0.000000    0.005267    0.005415    0.005757    0.005830
    0.006425    0.006506    0.006993    0.007560    0.008644    0.009207
 Highest eigenvalues
    1.407550    1.450637    1.476572    2.411374    3.437962    3.716542
 
cpu  time for ANC gen    0.01 s
wall time for ANC gen    0.02 s
................................................................................
.............................. CYCLE   26 ......................................
................................................................................
   1    -50.7485708 -0.507486E+02  0.218E-01    8.95       0.0  T
   2    -50.7486035 -0.327694E-04  0.162E-01    8.95       1.0  T
   3    -50.7486262 -0.226732E-04  0.346E-02    8.95       1.0  T
   4    -50.7486297 -0.347772E-05  0.800E-03    8.95       2.5  T
   5    -50.7486298 -0.100629E-06  0.352E-03    8.95       5.6  T
   6    -50.7486298 -0.118341E-07  0.168E-03    8.95      11.7  T
   7    -50.7486298 -0.487484E-08  0.453E-04    8.95      43.3  T
   8    -50.7486298 -0.487148E-09  0.122E-04    8.95     161.2  T
speedup  0.95
cpu  time for SCC    0.01 s
wall time for SCC    0.01 s
speedup  0.96
cpu  time for grad    0.01 s
wall time for grad    0.02 s
 E :    -50.45000315  G :  0.037895    pred/act E change:  0.000D+00  0.333D-03
Maxdispl :   0.0832   ||displ|| :   0.1932   Lambda : -0.192D-02
Largest |displ|/coords:  0.0832 (  13)  0.0720 (  32)  0.0646 (  19)
................................................................................
.............................. CYCLE   27 ......................................
................................................................................
   1    -50.7483532 -0.507484E+02  0.144E-01    8.97       0.0  T
   2    -50.7483687 -0.155276E-04  0.108E-01    8.97       1.0  T
   3    -50.7483776 -0.892845E-05  0.222E-02    8.97       1.0  T
   4    -50.7483802 -0.250888E-05  0.557E-03    8.97       3.5  T
   5    -50.7483802 -0.726304E-07  0.207E-03    8.97       9.5  T
speedup  1.06
cpu  time for SCC    0.00 s
wall time for SCC    0.00 s
speedup  0.98
cpu  time for grad    0.01 s
wall time for grad    0.01 s
 E :    -50.45124200  G :  0.009825    pred/act E change:  0.000D+00 -0.124D-02
Maxdispl :   0.1278   ||displ|| :   0.2546   Lambda : -0.772D-03
Largest |displ|/coords:  0.1278 (  13)  0.0947 (   5)  0.0842 (   1)
................................................................................
.............................. CYCLE   28 ......................................
................................................................................
   1    -50.7477017 -0.507477E+02  0.185E-01    8.99       0.0  T
   2    -50.7477164 -0.147383E-04  0.139E-01    8.99       1.0  T
   3    -50.7477238 -0.732821E-05  0.228E-02    8.99       1.0  T
   4    -50.7477265 -0.274901E-05  0.601E-03    8.99       3.3  T
   5    -50.7477266 -0.612801E-07  0.247E-03    8.99       7.9  T
   6    -50.7477266 -0.693766E-08  0.120E-03    8.99      16.3  T
speedup  1.05
cpu  time for SCC    0.01 s
wall time for SCC    0.01 s
speedup  1.03
cpu  time for grad    0.01 s
wall time for grad    0.01 s
 E :    -50.45155812  G :  0.013451    pred/act E change: -0.995D-03 -0.316D-03
Maxdispl :   0.0834   ||displ|| :   0.1927   Lambda : -0.424D-03
Largest |displ|/coords:  0.0834 (   1)  0.0733 (  13)  0.0632 (   4)
................................................................................
.............................. CYCLE   29 ......................................
................................................................................
   1    -50.7482374 -0.507482E+02  0.123E-01    8.99       0.0  T
   2    -50.7482414 -0.395230E-05  0.935E-02    9.00       1.0  T
   3    -50.7482442 -0.286391E-05  0.113E-02    9.00       1.7  T
   4    -50.7482449 -0.646312E-06  0.335E-03    9.00       5.9  T
   5    -50.7482449 -0.104216E-07  0.106E-03    9.00      18.5  T
   6    -50.7482449 -0.119636E-08  0.494E-04    9.00      39.7  T
speedup  1.09
cpu  time for SCC    0.01 s
wall time for SCC    0.01 s
speedup  0.99
cpu  time for grad    0.01 s
wall time for grad    0.01 s
 E :    -50.45186094  G :  0.009971    pred/act E change: -0.411D-03 -0.303D-03
Maxdispl :   0.1546   ||displ|| :   0.3480   Lambda : -0.492D-03
Largest |displ|/coords:  0.1546 (   1)  0.1399 (   3)  0.1365 (   4)
................................................................................
.............................. CYCLE   30 ......................................
................................................................................
   1    -50.7483610 -0.507484E+02  0.178E-01    8.98       0.0  T
   2    -50.7483698 -0.880242E-05  0.134E-01    8.99       1.0  T
   3    -50.7483756 -0.588879E-05  0.190E-02    8.99       1.0  T
   4    -50.7483770 -0.135408E-05  0.608E-03    8.99       3.2  T
   5    -50.7483770 -0.426705E-07  0.178E-03    8.99      11.0  T
   6    -50.7483770 -0.447762E-08  0.969E-04    8.99      20.2  T
speedup  0.91
cpu  time for SCC    0.01 s
wall time for SCC    0.01 s
speedup  0.98
cpu  time for grad    0.01 s
wall time for grad    0.01 s
 E :    -50.45221317  G :  0.007553    pred/act E change: -0.220D-03 -0.352D-03
Maxdispl :   0.1955   ||displ|| :   0.4259   Lambda : -0.421D-03
Largest |displ|/coords:  0.1955 (   1)  0.1866 (  13)  0.1587 (   3)
................................................................................
.............................. CYCLE   31 ......................................
................................................................................
   1    -50.7474814 -0.507475E+02  0.205E-01    8.95       0.0  T
   2    -50.7474919 -0.105195E-04  0.153E-01    8.95       1.0  T
   3    -50.7474996 -0.764784E-05  0.241E-02    8.96       1.0  T
   4    -50.7475009 -0.135484E-05  0.787E-03    8.96       2.5  T
   5    -50.7475010 -0.668346E-07  0.179E-03    8.96      11.0  T
   6    -50.7475010 -0.555959E-08  0.106E-03    8.96      18.4  T
speedup  0.91
cpu  time for SCC    0.00 s
wall time for SCC    0.01 s
speedup  0.98
cpu  time for grad    0.01 s
wall time for grad    0.01 s
 E :    -50.45252048  G :  0.012479    pred/act E change: -0.276D-03 -0.307D-03
Maxdispl :   0.1984   ||displ|| :   0.4443   Lambda : -0.493D-03
Largest |displ|/coords:  0.1984 (   1)  0.1859 (   3)  0.1762 (  13)
................................................................................
.............................. CYCLE   32 ......................................
................................................................................
   1    -50.7490558 -0.507491E+02  0.212E-01    8.90       0.0  T
   2    -50.7490661 -0.102950E-04  0.157E-01    8.91       1.0  T
   3    -50.7490746 -0.852330E-05  0.276E-02    8.91       1.0  T
   4    -50.7490756 -0.982741E-06  0.952E-03    8.91       2.1  T
   5    -50.7490757 -0.872796E-07  0.155E-03    8.91      12.6  T
   6    -50.7490757 -0.238035E-08  0.101E-03    8.91      19.5  T
speedup  0.91
cpu  time for SCC    0.01 s
wall time for SCC    0.01 s
speedup  0.98
cpu  time for grad    0.01 s
wall time for grad    0.01 s
 E :    -50.45288111  G :  0.013836    pred/act E change: -0.249D-03 -0.361D-03
Maxdispl :   0.2120   ||displ|| :   0.4576   Lambda : -0.534D-03
Largest |displ|/coords:  0.2120 (   1)  0.1843 (   3)  0.1788 (   2)
................................................................................
.............................. CYCLE   33 ......................................
................................................................................
   1    -50.7508306 -0.507508E+02  0.201E-01    8.90       0.0  T
   2    -50.7508427 -0.121803E-04  0.146E-01    8.91       1.0  T
   3    -50.7508508 -0.808453E-05  0.301E-02    8.91       1.0  T
   4    -50.7508522 -0.135928E-05  0.108E-02    8.91       1.8  T
   5    -50.7508523 -0.114522E-06  0.200E-03    8.91       9.8  T
   6    -50.7508523 -0.373149E-08  0.134E-03    8.91      14.6  T
speedup  0.89
cpu  time for SCC    0.00 s
wall time for SCC    0.01 s
speedup  0.97
cpu  time for grad    0.01 s
wall time for grad    0.01 s
 E :    -50.45329863  G :  0.011755    pred/act E change: -0.295D-03 -0.418D-03
Maxdispl :   0.2256   ||displ|| :   0.5189   Lambda : -0.674D-03
Largest |displ|/coords:  0.2256 (   2)  0.2233 (   1)  0.2041 (   3)
................................................................................
.............................. CYCLE   34 ......................................
................................................................................
   1    -50.7513404 -0.507513E+02  0.272E-01    8.94       0.0  T
   2    -50.7513587 -0.183414E-04  0.201E-01    8.94       1.0  T
   3    -50.7513733 -0.145964E-04  0.372E-02    8.94       1.0  T
   4    -50.7513752 -0.186216E-05  0.131E-02    8.94       1.5  T
   5    -50.7513754 -0.163022E-06  0.250E-03    8.94       7.9  T
   6    -50.7513754 -0.513560E-08  0.162E-03    8.94      12.1  T
speedup  1.05
cpu  time for SCC    0.01 s
wall time for SCC    0.01 s
speedup  1.04
cpu  time for grad    0.01 s
wall time for grad    0.01 s
 E :    -50.45374111  G :  0.011096    pred/act E change: -0.323D-03 -0.442D-03
Maxdispl :   0.2528   ||displ|| :   0.4865   Lambda : -0.625D-03
Largest |displ|/coords:  0.2528 (   3)  0.2273 (   2)  0.1634 (   1)
................................................................................
.............................. CYCLE   35 ......................................
................................................................................
   1    -50.7530613 -0.507531E+02  0.258E-01    8.94       0.0  T
   2    -50.7530786 -0.172630E-04  0.190E-01    8.94       1.0  T
   3    -50.7530925 -0.138483E-04  0.355E-02    8.94       1.0  T
   4    -50.7530941 -0.166551E-05  0.120E-02    8.94       1.6  T
   5    -50.7530943 -0.159047E-06  0.256E-03    8.94       7.7  T
   6    -50.7530943 -0.666414E-08  0.164E-03    8.94      12.0  T
speedup  1.05
cpu  time for SCC    0.01 s
wall time for SCC    0.01 s
speedup  1.04
cpu  time for grad    0.01 s
wall time for grad    0.01 s
 E :    -50.45405463  G :  0.015004    pred/act E change: -0.428D-03 -0.314D-03
Maxdispl :   0.1665   ||displ|| :   0.2645   Lambda : -0.410D-03
Largest |displ|/coords:  0.1665 (   3)  0.1029 (   2)  0.0714 (  10)
................................................................................
.............................. CYCLE   36 ......................................
................................................................................
   1    -50.7526314 -0.507526E+02  0.181E-01    8.94       0.0  T
   2    -50.7526367 -0.524459E-05  0.135E-01    8.94       1.0  T
   3    -50.7526427 -0.602207E-05  0.170E-02    8.94       1.2  T
   4    -50.7526430 -0.343856E-06  0.497E-03    8.94       3.9  T
   5    -50.7526431 -0.330028E-07  0.180E-03    8.94      10.9  T
   6    -50.7526431 -0.346706E-08  0.105E-03    8.94      18.7  T
speedup  1.09
cpu  time for SCC    0.01 s
wall time for SCC    0.01 s
speedup  1.06
cpu  time for grad    0.01 s
wall time for grad    0.01 s
 E :    -50.45434128  G :  0.012026    pred/act E change: -0.387D-03 -0.287D-03
Maxdispl :   0.1972   ||displ|| :   0.3015   Lambda : -0.500D-03
Largest |displ|/coords:  0.1972 (   3)  0.0985 (   2)  0.0920 (   7)
................................................................................
.............................. CYCLE   37 ......................................
................................................................................
   1    -50.7528388 -0.507528E+02  0.224E-01    8.98       0.0  T
   2    -50.7528488 -0.100037E-04  0.169E-01    8.98       1.0  T
   3    -50.7528574 -0.857077E-05  0.228E-02    8.98       1.0  T
   4    -50.7528586 -0.116394E-05  0.772E-03    8.98       2.5  T
   5    -50.7528586 -0.605174E-07  0.193E-03    8.98      10.1  T
   6    -50.7528586 -0.286826E-08  0.115E-03    8.98      17.0  T
speedup  1.05
cpu  time for SCC    0.01 s
wall time for SCC    0.01 s
speedup  1.04
cpu  time for grad    0.01 s
wall time for grad    0.01 s
 E :    -50.45448531  G :  0.018111    pred/act E change: -0.219D-03 -0.144D-03
Maxdispl :   0.1850   ||displ|| :   0.2731   Lambda : -0.618D-03
Largest |displ|/coords:  0.1850 (   3)  0.0813 (   8)  0.0725 (   2)
................................................................................
.............................. CYCLE   38 ......................................
................................................................................
   1    -50.7520992 -0.507521E+02  0.184E-01    8.93       0.0  T
   2    -50.7521099 -0.106928E-04  0.138E-01    8.93       1.0  T
   3    -50.7521179 -0.797358E-05  0.225E-02    8.93       1.0  T
   4    -50.7521191 -0.126677E-05  0.616E-03    8.93       3.2  T
   5    -50.7521192 -0.504769E-07  0.197E-03    8.93      10.0  T
   6    -50.7521192 -0.434241E-08  0.107E-03    8.93      18.2  T
speedup  1.07
cpu  time for SCC    0.01 s
wall time for SCC    0.01 s
speedup  1.05
cpu  time for grad    0.01 s
wall time for grad    0.01 s
 E :    -50.45463365  G :  0.015137    pred/act E change: -0.273D-03 -0.148D-03
Maxdispl :   0.0620   ||displ|| :   0.1453   Lambda : -0.496D-03
Largest |displ|/coords:  0.0620 (  17)  0.0554 (   3)  0.0424 (  10)
................................................................................
.............................. CYCLE   39 ......................................
................................................................................
   1    -50.7518791 -0.507519E+02  0.124E-01    8.97       0.0  T
   2    -50.7518869 -0.777855E-05  0.936E-02    8.98       1.0  T
   3    -50.7518933 -0.645804E-05  0.180E-02    8.98       1.1  T
   4    -50.7518943 -0.936662E-06  0.595E-03    8.98       3.3  T
   5    -50.7518943 -0.618772E-07  0.185E-03    8.98      10.6  T
   6    -50.7518943 -0.326505E-08  0.101E-03    8.98      19.4  T
speedup  1.03
cpu  time for SCC    0.01 s
wall time for SCC    0.01 s
speedup  1.03
cpu  time for grad    0.01 s
wall time for grad    0.01 s
 E :    -50.45463837  G :  0.018193    pred/act E change: -0.332D-03 -0.472D-05
Maxdispl :   0.1042   ||displ|| :   0.2298   Lambda : -0.765D-03
Largest |displ|/coords:  0.1042 (  13)  0.0894 (   6)  0.0845 (  15)
................................................................................
.............................. CYCLE   40 ......................................
................................................................................
   1    -50.7615360 -0.507615E+02  0.202E-01    9.06       0.0  T
   2    -50.7615529 -0.168920E-04  0.152E-01    9.06       1.0  T
   3    -50.7615667 -0.137551E-04  0.263E-02    9.06       1.0  T
   4    -50.7615686 -0.198912E-05  0.736E-03    9.06       2.7  T
   5    -50.7615687 -0.877622E-07  0.272E-03    9.06       7.2  T
   6    -50.7615687 -0.706977E-08  0.139E-03    9.06      14.1  T
speedup  1.11
cpu  time for SCC    0.01 s
wall time for SCC    0.01 s
speedup  1.07
cpu  time for grad    0.01 s
wall time for grad    0.01 s
 E :    -50.45433896  G :  0.027211    pred/act E change: -0.253D-03  0.299D-03
Maxdispl :   0.1422   ||displ|| :   0.3222   Lambda : -0.135D-02
Largest |displ|/coords:  0.1422 (  13)  0.1264 (   7)  0.1218 (   3)
................................................................................
.............................. CYCLE   41 ......................................
................................................................................
   1    -50.7496692 -0.507497E+02  0.263E-01    8.86       0.0  T
   2    -50.7496936 -0.244739E-04  0.196E-01    8.86       1.0  T
   3    -50.7497114 -0.177166E-04  0.359E-02    8.85       1.0  T
   4    -50.7497140 -0.267269E-05  0.128E-02    8.86       1.5  T
   5    -50.7497142 -0.208697E-06  0.250E-03    8.86       7.9  T
   6    -50.7497143 -0.897507E-08  0.158E-03    8.86      12.4  T
speedup  1.09
cpu  time for SCC    0.01 s
wall time for SCC    0.01 s
speedup  0.97
cpu  time for grad    0.01 s
wall time for grad    0.01 s
 E :    -50.45461892  G :  0.022416    pred/act E change: -0.403D-03 -0.280D-03
Maxdispl :   0.1450   ||displ|| :   0.3229   Lambda : -0.113D-02
Largest |displ|/coords:  0.1450 (   6)  0.1093 (   1)  0.0976 (   7)
................................................................................
.............................. CYCLE   42 ......................................
................................................................................
   1    -50.7528324 -0.507528E+02  0.227E-01    9.03       0.0  T
   2    -50.7528571 -0.247404E-04  0.166E-01    9.03       1.0  T
   3    -50.7528680 -0.109220E-04  0.412E-02    9.02       1.0  T
   4    -50.7528707 -0.265175E-05  0.105E-02    9.02       1.9  T
   5    -50.7528709 -0.192358E-06  0.250E-03    9.02       7.8  T
   6    -50.7528709 -0.455324E-08  0.149E-03    9.02      13.2  T
speedup  1.05
cpu  time for SCC    0.01 s
wall time for SCC    0.01 s
speedup  1.04
cpu  time for grad    0.01 s
wall time for grad    0.01 s
 E :    -50.45451797  G :  0.021012    pred/act E change: -0.747D-03  0.101D-03
Maxdispl :   0.0968   ||displ|| :   0.1985   Lambda : -0.905D-03
Largest |displ|/coords:  0.0968 (   3)  0.0772 (   6)  0.0666 (   1)
................................................................................
.............................. CYCLE   43 ......................................
................................................................................
   1    -50.7549516 -0.507550E+02  0.160E-01    8.97       0.0  T
   2    -50.7549627 -0.110530E-04  0.119E-01    8.97       1.0  T
   3    -50.7549692 -0.649662E-05  0.258E-02    8.97       1.0  T
   4    -50.7549706 -0.146436E-05  0.666E-03    8.97       2.9  T
   5    -50.7549707 -0.814069E-07  0.195E-03    8.97      10.1  T
   6    -50.7549707 -0.260256E-08  0.108E-03    8.97      18.1  T
speedup  1.09
cpu  time for SCC    0.01 s
wall time for SCC    0.01 s
speedup  1.06
cpu  time for grad    0.01 s
wall time for grad    0.01 s
 E :    -50.45493852  G :  0.006186    pred/act E change: -0.624D-03 -0.421D-03
Maxdispl :   0.1088   ||displ|| :   0.1657   Lambda : -0.150D-03
Largest |displ|/coords:  0.1088 (   3)  0.0535 (   2)  0.0501 (   7)
................................................................................
.............................. CYCLE   44 ......................................
................................................................................
   1    -50.7539675 -0.507540E+02  0.117E-01    8.97       0.0  T
   2    -50.7539700 -0.245183E-05  0.873E-02    8.96       1.0  T
   3    -50.7539725 -0.252160E-05  0.122E-02    8.96       1.6  T
   4    -50.7539727 -0.196059E-06  0.410E-03    8.96       4.8  T
   5    -50.7539727 -0.179551E-07  0.102E-03    8.96      19.3  T
   6    -50.7539727 -0.814488E-09  0.653E-04    8.96      30.0  T
speedup  1.07
cpu  time for SCC    0.01 s
wall time for SCC    0.01 s
speedup  0.98
cpu  time for grad    0.01 s
wall time for grad    0.01 s
 E :    -50.45498141  G :  0.007306    pred/act E change: -0.470D-03 -0.429D-04
Maxdispl :   0.0229   ||displ|| :   0.0631   Lambda : -0.958D-04
Largest |displ|/coords:  0.0229 (   3)  0.0229 (   2)  0.0196 (   8)
................................................................................
.............................. CYCLE   45 ......................................
................................................................................
   1    -50.7535305 -0.507535E+02  0.629E-02    8.96       0.0  T
   2    -50.7535318 -0.132010E-05  0.474E-02    8.96       1.0  T
   3    -50.7535328 -0.994726E-06  0.754E-03    8.96       2.6  T
   4    -50.7535330 -0.164846E-06  0.182E-03    8.96      10.8  T
   5    -50.7535330 -0.803340E-08  0.649E-04    8.96      30.2  T
speedup  1.06
cpu  time for SCC    0.00 s
wall time for SCC    0.00 s
speedup  0.97
cpu  time for grad    0.01 s
wall time for grad    0.01 s
 E :    -50.45502297  G :  0.006631    pred/act E change: -0.770D-04 -0.416D-04
Maxdispl :   0.1167   ||displ|| :   0.1468   Lambda : -0.856D-04
Largest |displ|/coords:  0.1167 (   3)  0.0320 (   1)  0.0309 (   6)
................................................................................
.............................. CYCLE   46 ......................................
................................................................................
   1    -50.7527106 -0.507527E+02  0.856E-02    8.95       0.0  T
   2    -50.7527120 -0.135909E-05  0.639E-02    8.95       1.0  T
   3    -50.7527135 -0.145945E-05  0.850E-03    8.95       2.3  T
   4    -50.7527136 -0.115241E-06  0.226E-03    8.95       8.7  T
   5    -50.7527136 -0.722286E-08  0.910E-04    8.95      21.6  T
speedup  1.06
cpu  time for SCC    0.00 s
wall time for SCC    0.00 s
speedup  0.96
cpu  time for grad    0.01 s
wall time for grad    0.01 s
 E :    -50.45505311  G :  0.006677    pred/act E change: -0.481D-04 -0.301D-04
Maxdispl :   0.0376   ||displ|| :   0.0920   Lambda : -0.106D-03
Largest |displ|/coords:  0.0376 (   3)  0.0318 (  12)  0.0304 (  17)
................................................................................
.............................. CYCLE   47 ......................................
................................................................................
   1    -50.7557386 -0.507557E+02  0.509E-02    8.98       0.0  T
   2    -50.7557399 -0.127191E-05  0.385E-02    8.98       1.0  T
   3    -50.7557409 -0.106484E-05  0.659E-03    8.97       3.0  T
   4    -50.7557411 -0.157371E-06  0.168E-03    8.97      11.7  T
   5    -50.7557411 -0.398815E-08  0.682E-04    8.97      28.8  T
speedup  1.04
cpu  time for SCC    0.00 s
wall time for SCC    0.00 s
speedup  1.03
cpu  time for grad    0.01 s
wall time for grad    0.01 s
 E :    -50.45508959  G :  0.006309    pred/act E change: -0.437D-04 -0.365D-04
Maxdispl :   0.1287   ||displ|| :   0.1780   Lambda : -0.127D-03
Largest |displ|/coords:  0.1287 (   3)  0.0524 (   5)  0.0394 (  15)
................................................................................
.............................. CYCLE   48 ......................................
................................................................................
   1    -50.7552783 -0.507553E+02  0.121E-01    8.99       0.0  T
   2    -50.7552796 -0.123158E-05  0.906E-02    8.99       1.0  T
   3    -50.7552809 -0.128608E-05  0.762E-03    8.99       2.6  T
   4    -50.7552810 -0.960677E-07  0.277E-03    8.99       7.1  T
   5    -50.7552810 -0.692808E-08  0.847E-04    8.99      23.2  T
speedup  1.06
cpu  time for SCC    0.00 s
wall time for SCC    0.00 s
speedup  1.03
cpu  time for grad    0.01 s
wall time for grad    0.01 s
 E :    -50.45516813  G :  0.004797    pred/act E change: -0.536D-04 -0.785D-04
Maxdispl :   0.1539   ||displ|| :   0.2125   Lambda : -0.752D-04
Largest |displ|/coords:  0.1539 (   3)  0.0556 (  15)  0.0521 (   5)
................................................................................
.............................. CYCLE   49 ......................................
................................................................................
   1    -50.7538845 -0.507539E+02  0.133E-01    8.96       0.0  T
   2    -50.7538866 -0.211202E-05  0.994E-02    8.96       1.0  T
   3    -50.7538888 -0.215695E-05  0.126E-02    8.96       1.6  T
   4    -50.7538889 -0.152024E-06  0.366E-03    8.96       5.4  T
   5    -50.7538890 -0.195634E-07  0.970E-04    8.96      20.2  T
   6    -50.7538890 -0.965066E-09  0.628E-04    8.96      31.2  T
speedup  1.07
cpu  time for SCC    0.01 s
wall time for SCC    0.01 s
speedup  1.05
cpu  time for grad    0.01 s
wall time for grad    0.01 s
 E :    -50.45521561  G :  0.006375    pred/act E change: -0.656D-04 -0.475D-04
Maxdispl :   0.0680   ||displ|| :   0.1544   Lambda : -0.682D-04
Largest |displ|/coords:  0.0680 (   3)  0.0598 (   5)  0.0564 (   2)
................................................................................
.............................. CYCLE   50 ......................................
................................................................................
   1    -50.7544642 -0.507545E+02  0.876E-02    8.96       0.0  T
   2    -50.7544653 -0.108482E-05  0.652E-02    8.96       1.0  T
   3    -50.7544664 -0.114674E-05  0.868E-03    8.96       2.3  T
   4    -50.7544665 -0.844511E-07  0.198E-03    8.96       9.9  T
   5    -50.7544665 -0.734983E-08  0.773E-04    8.96      25.4  T
speedup  1.04
cpu  time for SCC    0.00 s
wall time for SCC    0.00 s
speedup  1.03
cpu  time for grad    0.01 s
wall time for grad    0.01 s
 E :    -50.45526373  G :  0.004702    pred/act E change: -0.393D-04 -0.481D-04
Maxdispl :   0.1185   ||displ|| :   0.2443   Lambda : -0.914D-04
Largest |displ|/coords:  0.1185 (   3)  0.0829 (  15)  0.0780 (   5)
................................................................................
.............................. CYCLE   51 ......................................
................................................................................
   1    -50.7541821 -0.507542E+02  0.146E-01    8.97       0.0  T
   2    -50.7541847 -0.251554E-05  0.109E-01    8.97       1.0  T
   3    -50.7541875 -0.281868E-05  0.142E-02    8.97       1.4  T
   4    -50.7541876 -0.157647E-06  0.373E-03    8.97       5.3  T
   5    -50.7541877 -0.213921E-07  0.116E-03    8.97      16.9  T
   6    -50.7541877 -0.137803E-08  0.744E-04    8.97      26.3  T
speedup  1.07
cpu  time for SCC    0.01 s
wall time for SCC    0.01 s
speedup  1.05
cpu  time for grad    0.01 s
wall time for grad    0.01 s
 E :    -50.45531667  G :  0.003948    pred/act E change: -0.349D-04 -0.529D-04
Maxdispl :   0.0584   ||displ|| :   0.1484   Lambda : -0.716D-04
Largest |displ|/coords:  0.0584 (   5)  0.0545 (  15)  0.0471 (  12)
................................................................................
.............................. CYCLE   52 ......................................
................................................................................
   1    -50.7555438 -0.507555E+02  0.936E-02    8.96       0.0  T
   2    -50.7555454 -0.164324E-05  0.691E-02    8.96       1.0  T
   3    -50.7555469 -0.146750E-05  0.113E-02    8.96       1.7  T
   4    -50.7555470 -0.140577E-06  0.354E-03    8.96       5.5  T
   5    -50.7555471 -0.147504E-07  0.747E-04    8.96      26.3  T
   6    -50.7555471 -0.693397E-09  0.491E-04    8.96      39.9  T
speedup  0.86
cpu  time for SCC    0.00 s
wall time for SCC    0.01 s
speedup  0.99
cpu  time for grad    0.01 s
wall time for grad    0.01 s
 E :    -50.45535368  G :  0.003912    pred/act E change: -0.485D-04 -0.370D-04
Maxdispl :   0.1024   ||displ|| :   0.2124   Lambda : -0.602D-04
Largest |displ|/coords:  0.1024 (   3)  0.0812 (   5)  0.0644 (  15)

generating ANC from model Hessian ...
 Shifting diagonal of input Hessian by   4.926119530886982E-003
 Lowest  eigenvalues of input Hessian
   -0.000000   -0.000000   -0.000000   -0.000000    0.000000    0.000000
    0.005000    0.005220    0.005677    0.005796    0.005869    0.006124
    0.006498    0.006989    0.007194    0.007677    0.008119    0.008786
 Highest eigenvalues
    1.401946    1.424099    1.434575    2.337338    3.459019    3.777618
 
cpu  time for ANC gen    0.02 s
wall time for ANC gen    0.02 s
................................................................................
.............................. CYCLE   53 ......................................
................................................................................
   1    -50.7548751 -0.507549E+02  0.140E-01    8.97       0.0  T
   2    -50.7548771 -0.197418E-05  0.104E-01    8.97       1.0  T
   3    -50.7548793 -0.224309E-05  0.123E-02    8.97       1.6  T
   4    -50.7548795 -0.111202E-06  0.291E-03    8.97       6.7  T
   5    -50.7548795 -0.136851E-07  0.103E-03    8.97      19.0  T
   6    -50.7548795 -0.107924E-08  0.636E-04    8.97      30.8  T
   7    -50.7548795 -0.370179E-09  0.109E-04    8.97     179.8  T
speedup  0.91
cpu  time for SCC    0.01 s
wall time for SCC    0.01 s
speedup  1.00
cpu  time for grad    0.01 s
wall time for grad    0.01 s
 E :    -50.45538309  G :  0.004882    pred/act E change:  0.000D+00 -0.294D-04
Maxdispl :   0.0260   ||displ|| :   0.0570   Lambda : -0.545D-04
Largest |displ|/coords:  0.0260 (  10)  0.0237 (   7)  0.0177 (  12)
................................................................................
.............................. CYCLE   54 ......................................
................................................................................
   1    -50.7551377 -0.507551E+02  0.416E-02    8.98       0.0  T
   2    -50.7551379 -0.224632E-06  0.313E-02    8.98       1.0  T
   3    -50.7551382 -0.261921E-06  0.304E-03    8.98       6.5  T
   4    -50.7551382 -0.130353E-07  0.867E-04    8.98      22.6  T
   5    -50.7551382 -0.106110E-08  0.331E-04    8.98      59.2  T
speedup  1.02
cpu  time for SCC    0.00 s
wall time for SCC    0.00 s
speedup  1.03
cpu  time for grad    0.01 s
wall time for grad    0.01 s
 E :    -50.45542393  G :  0.002223    pred/act E change:  0.000D+00 -0.408D-04
Maxdispl :   0.0574   ||displ|| :   0.1225   Lambda : -0.621D-04
Largest |displ|/coords:  0.0574 (   2)  0.0541 (   7)  0.0507 (  10)
................................................................................
.............................. CYCLE   55 ......................................
................................................................................
   1    -50.7552321 -0.507552E+02  0.796E-02    8.98       0.0  T
   2    -50.7552328 -0.682684E-06  0.598E-02    8.98       1.0  T
   3    -50.7552336 -0.796758E-06  0.553E-03    8.98       3.5  T
   4    -50.7552336 -0.352349E-07  0.144E-03    8.98      13.6  T
   5    -50.7552336 -0.287396E-08  0.604E-04    8.98      32.5  T
   6    -50.7552336 -0.291074E-09  0.265E-04    8.98      73.9  T
speedup  1.09
cpu  time for SCC    0.01 s
wall time for SCC    0.01 s
speedup  1.01
cpu  time for grad    0.01 s
wall time for grad    0.01 s
 E :    -50.45545587  G :  0.002201    pred/act E change: -0.273D-04 -0.319D-04
Maxdispl :   0.0512   ||displ|| :   0.1111   Lambda : -0.391D-04
Largest |displ|/coords:  0.0512 (   4)  0.0512 (   7)  0.0397 (  10)
................................................................................
.............................. CYCLE   56 ......................................
................................................................................
   1    -50.7550531 -0.507551E+02  0.992E-02    8.99       0.0  T
   2    -50.7550544 -0.122827E-05  0.755E-02    8.99       1.0  T
   3    -50.7550559 -0.157317E-05  0.577E-03    8.99       3.4  T
   4    -50.7550560 -0.390742E-07  0.166E-03    8.99      11.8  T
   5    -50.7550560 -0.295243E-08  0.602E-04    8.99      32.6  T
   6    -50.7550560 -0.167688E-09  0.279E-04    8.99      70.4  T
speedup  1.09
cpu  time for SCC    0.01 s
wall time for SCC    0.01 s
speedup  1.01
cpu  time for grad    0.01 s
wall time for grad    0.01 s
 E :    -50.45547212  G :  0.002387    pred/act E change: -0.315D-04 -0.162D-04
Maxdispl :   0.0302   ||displ|| :   0.0643   Lambda : -0.234D-04
Largest |displ|/coords:  0.0302 (   2)  0.0255 (   1)  0.0253 (   7)
................................................................................
.............................. CYCLE   57 ......................................
................................................................................
   1    -50.7551913 -0.507552E+02  0.378E-02    8.99       0.0  T
   2    -50.7551915 -0.179122E-06  0.285E-02    8.99       1.0  T
   3    -50.7551917 -0.192777E-06  0.283E-03    8.99       6.9  T
   4    -50.7551917 -0.131752E-07  0.727E-04    8.99      27.0  T
   5    -50.7551917 -0.587427E-09  0.296E-04    8.99      66.3  T
speedup  1.04
cpu  time for SCC    0.00 s
wall time for SCC    0.00 s
speedup  0.99
cpu  time for grad    0.01 s
wall time for grad    0.01 s
 E :    -50.45548964  G :  0.001711    pred/act E change: -0.198D-04 -0.175D-04
Maxdispl :   0.0719   ||displ|| :   0.1592   Lambda : -0.399D-04
Largest |displ|/coords:  0.0719 (   2)  0.0688 (   1)  0.0616 (   7)
................................................................................
.............................. CYCLE   58 ......................................
................................................................................
   1    -50.7551644 -0.507552E+02  0.787E-02    8.99       0.0  T
   2    -50.7551651 -0.639269E-06  0.587E-02    8.99       1.0  T
   3    -50.7551657 -0.603991E-06  0.602E-03    8.99       3.3  T
   4    -50.7551657 -0.614610E-07  0.151E-03    8.99      13.0  T
   5    -50.7551658 -0.328563E-08  0.584E-04    8.99      33.6  T
   6    -50.7551658 -0.455010E-09  0.326E-04    8.99      60.2  T
speedup  1.09
cpu  time for SCC    0.01 s
wall time for SCC    0.01 s
speedup  1.01
cpu  time for grad    0.01 s
wall time for grad    0.01 s
 E :    -50.45551350  G :  0.001576    pred/act E change: -0.118D-04 -0.239D-04
Maxdispl :   0.0518   ||displ|| :   0.1143   Lambda : -0.168D-04
Largest |displ|/coords:  0.0518 (   2)  0.0511 (   1)  0.0407 (   7)
................................................................................
.............................. CYCLE   59 ......................................
................................................................................
   1    -50.7551457 -0.507551E+02  0.578E-02    8.99       0.0  T
   2    -50.7551460 -0.358181E-06  0.433E-02    8.99       1.0  T
   3    -50.7551464 -0.341997E-06  0.422E-03    9.00       4.6  T
   4    -50.7551464 -0.349739E-07  0.121E-03    9.00      16.2  T
   5    -50.7551464 -0.216873E-08  0.405E-04    9.00      48.4  T
   6    -50.7551464 -0.226329E-09  0.245E-04    9.00      80.2  T
speedup  0.89
cpu  time for SCC    0.00 s
wall time for SCC    0.01 s
speedup  1.01
cpu  time for grad    0.01 s
wall time for grad    0.01 s
 E :    -50.45552514  G :  0.001657    pred/act E change: -0.205D-04 -0.116D-04
Maxdispl :   0.0671   ||displ|| :   0.1497   Lambda : -0.186D-04
Largest |displ|/coords:  0.0671 (   2)  0.0666 (   1)  0.0520 (   7)
................................................................................
.............................. CYCLE   60 ......................................
................................................................................
   1    -50.7550791 -0.507551E+02  0.680E-02    9.00       0.0  T
   2    -50.7550795 -0.455315E-06  0.509E-02    9.00       1.0  T
   3    -50.7550800 -0.454441E-06  0.508E-03    9.00       3.9  T
   4    -50.7550800 -0.406189E-07  0.149E-03    9.00      13.2  T
   5    -50.7550800 -0.305801E-08  0.463E-04    9.00      42.4  T
   6    -50.7550800 -0.273488E-09  0.280E-04    9.00      70.2  T
speedup  0.89
cpu  time for SCC    0.00 s
wall time for SCC    0.01 s
speedup  0.98
cpu  time for grad    0.01 s
wall time for grad    0.01 s
 E :    -50.45553840  G :  0.001790    pred/act E change: -0.851D-05 -0.133D-04
Maxdispl :   0.0831   ||displ|| :   0.1857   Lambda : -0.234D-04
Largest |displ|/coords:  0.0831 (   2)  0.0823 (   1)  0.0665 (   6)
................................................................................
.............................. CYCLE   61 ......................................
................................................................................
   1    -50.7552432 -0.507552E+02  0.809E-02    9.00       0.0  T
   2    -50.7552438 -0.588233E-06  0.607E-02    9.00       1.0  T
   3    -50.7552444 -0.569780E-06  0.565E-03    9.00       3.5  T
   4    -50.7552444 -0.567150E-07  0.197E-03    9.00      10.0  T
   5    -50.7552444 -0.398902E-08  0.519E-04    9.00      37.8  T
   6    -50.7552444 -0.344144E-09  0.329E-04    9.00      59.7  T
speedup  0.91
cpu  time for SCC    0.00 s
wall time for SCC    0.01 s
speedup  1.01
cpu  time for grad    0.01 s
wall time for grad    0.01 s
 E :    -50.45555534  G :  0.001724    pred/act E change: -0.948D-05 -0.169D-04
Maxdispl :   0.1292   ||displ|| :   0.2955   Lambda : -0.322D-04
Largest |displ|/coords:  0.1292 (   2)  0.1276 (   1)  0.1153 (   6)
................................................................................
.............................. CYCLE   62 ......................................
................................................................................
   1    -50.7544960 -0.507545E+02  0.141E-01    9.00       0.0  T
   2    -50.7544974 -0.133401E-05  0.106E-01    9.00       1.0  T
   3    -50.7544988 -0.145410E-05  0.797E-03    9.00       2.5  T
   4    -50.7544989 -0.982287E-07  0.273E-03    9.00       7.2  T
   5    -50.7544989 -0.734467E-08  0.934E-04    9.00      21.0  T
   6    -50.7544989 -0.932658E-09  0.534E-04    9.00      36.7  T
speedup  0.88
cpu  time for SCC    0.01 s
wall time for SCC    0.01 s
speedup  0.99
cpu  time for grad    0.01 s
wall time for grad    0.01 s
 E :    -50.45557543  G :  0.004341    pred/act E change: -0.121D-04 -0.201D-04
Maxdispl :   0.1440   ||displ|| :   0.2580   Lambda : -0.511D-04
Largest |displ|/coords:  0.1440 (   6)  0.0926 (   1)  0.0885 (   2)
................................................................................
.............................. CYCLE   63 ......................................
................................................................................
   1    -50.7555779 -0.507556E+02  0.940E-02    9.02       0.0  T
   2    -50.7555788 -0.898749E-06  0.705E-02    9.02       1.0  T
   3    -50.7555797 -0.859038E-06  0.580E-03    9.02       3.4  T
   4    -50.7555798 -0.990482E-07  0.277E-03    9.02       7.1  T
   5    -50.7555798 -0.846184E-08  0.780E-04    9.02      25.2  T
speedup  0.83
cpu  time for SCC    0.00 s
wall time for SCC    0.00 s
speedup  0.95
cpu  time for grad    0.01 s
wall time for grad    0.01 s
 E :    -50.45559720  G :  0.005318    pred/act E change: -0.175D-04 -0.218D-04
Maxdispl :   0.1119   ||displ|| :   0.2274   Lambda : -0.567D-04
Largest |displ|/coords:  0.1119 (   6)  0.0882 (   1)  0.0812 (   5)
................................................................................
.............................. CYCLE   64 ......................................
................................................................................
   1    -50.7553063 -0.507553E+02  0.121E-01    9.03       0.0  T
   2    -50.7553075 -0.118026E-05  0.913E-02    9.03       1.0  T
   3    -50.7553086 -0.114287E-05  0.607E-03    9.03       3.2  T
   4    -50.7553087 -0.114902E-06  0.251E-03    9.03       7.8  T
   5    -50.7553087 -0.698221E-08  0.842E-04    9.03      23.3  T
speedup  1.04
cpu  time for SCC    0.00 s
wall time for SCC    0.00 s
speedup  0.95
cpu  time for grad    0.01 s
wall time for grad    0.01 s
 E :    -50.45562104  G :  0.004967    pred/act E change: -0.273D-04 -0.238D-04
Maxdispl :   0.0507   ||displ|| :   0.1004   Lambda : -0.556D-04
Largest |displ|/coords:  0.0507 (   5)  0.0401 (   7)  0.0361 (   6)
................................................................................
.............................. CYCLE   65 ......................................
................................................................................
   1    -50.7550294 -0.507550E+02  0.630E-02    9.03       0.0  T
   2    -50.7550299 -0.458991E-06  0.472E-02    9.03       1.0  T
   3    -50.7550302 -0.310272E-06  0.413E-03    9.03       4.7  T
   4    -50.7550303 -0.681718E-07  0.176E-03    9.03      11.2  T
   5    -50.7550303 -0.326908E-08  0.444E-04    9.03      44.2  T
speedup  0.85
cpu  time for SCC    0.00 s
[...]
................................................................................
.............................. CYCLE  123 ......................................
................................................................................
   1    -50.7634469 -0.507634E+02  0.754E-03    9.06       0.0  T
   2    -50.7634469 -0.105346E-07  0.564E-03    9.06       3.5  T
   3    -50.7634469 -0.457091E-08  0.726E-04    9.06      27.0  T
   4    -50.7634469 -0.197500E-08  0.252E-04    9.06      77.9  T
speedup  0.81
cpu  time for SCC    0.00 s
wall time for SCC    0.00 s
speedup  0.98
cpu  time for grad    0.01 s
wall time for grad    0.01 s
 E :    -50.46051411  G :  0.000236    pred/act E change: -0.117D-06 -0.165D-06
Maxdispl :   0.0056   ||displ|| :   0.0128   Lambda : -0.267D-06
Largest |displ|/coords:  0.0056 (   1)  0.0056 (  10)  0.0048 (  37)
................................................................................
.............................. CYCLE  124 ......................................
................................................................................
   1    -50.7634563 -0.507635E+02  0.100E-02    9.06       0.0  T
   2    -50.7634563 -0.206317E-07  0.751E-03    9.06       2.6  T
   3    -50.7634563 -0.739514E-08  0.103E-03    9.06      19.0  T
   4    -50.7634563 -0.410071E-08  0.326E-04    9.06      60.2  T
   5    -50.7634563 -0.106020E-09  0.596E-05    9.06     329.1  T
speedup  0.89
cpu  time for SCC    0.00 s
wall time for SCC    0.00 s
speedup  0.99
cpu  time for grad    0.01 s
wall time for grad    0.01 s
 E :    -50.46051430  G :  0.000258    pred/act E change: -0.107D-06 -0.187D-06
Maxdispl :   0.0057   ||displ|| :   0.0122   Lambda : -0.240D-06
Largest |displ|/coords:  0.0057 (   1)  0.0051 (  10)  0.0049 (  37)
................................................................................
.............................. CYCLE  125 ......................................
................................................................................
   1    -50.7634619 -0.507635E+02  0.977E-03    9.06       0.0  T
   2    -50.7634619 -0.195784E-07  0.733E-03    9.06       2.7  T
   3    -50.7634619 -0.803043E-08  0.964E-04    9.06      20.3  T
   4    -50.7634619 -0.388034E-08  0.317E-04    9.06      61.9  T
speedup  1.08
cpu  time for SCC    0.00 s
wall time for SCC    0.00 s
speedup  0.98
cpu  time for grad    0.01 s
wall time for grad    0.01 s
 E :    -50.46051448  G :  0.000253    pred/act E change: -0.134D-06 -0.177D-06
Maxdispl :   0.0035   ||displ|| :   0.0076   Lambda : -0.199D-06
Largest |displ|/coords:  0.0035 (   6)  0.0033 (   1)  0.0031 (  37)
................................................................................
.............................. CYCLE  126 ......................................
................................................................................
   1    -50.7634677 -0.507635E+02  0.615E-03    9.06       0.0  T
   2    -50.7634677 -0.931727E-08  0.463E-03    9.06       4.2  T
   3    -50.7634677 -0.376109E-08  0.626E-04    9.06      31.4  T
   4    -50.7634677 -0.184447E-08  0.239E-04    9.06      82.2  T
speedup  1.03
cpu  time for SCC    0.00 s
wall time for SCC    0.00 s
speedup  1.04
cpu  time for grad    0.01 s
wall time for grad    0.01 s
 E :    -50.46051463  G :  0.000197    pred/act E change: -0.120D-06 -0.158D-06
Maxdispl :   0.0060   ||displ|| :   0.0128   Lambda : -0.297D-06
Largest |displ|/coords:  0.0060 (  37)  0.0057 (   1)  0.0049 (   6)
................................................................................
.............................. CYCLE  127 ......................................
................................................................................
   1    -50.7634532 -0.507635E+02  0.110E-02    9.06       0.0  T
   2    -50.7634532 -0.282711E-07  0.830E-03    9.06       2.4  T
   3    -50.7634532 -0.102112E-07  0.114E-03    9.06      17.1  T
   4    -50.7634532 -0.578093E-08  0.379E-04    9.06      51.8  T
   5    -50.7634532 -0.144155E-09  0.598E-05    9.06     327.8  T
speedup  0.87
cpu  time for SCC    0.00 s
wall time for SCC    0.00 s
speedup  0.99
cpu  time for grad    0.01 s
wall time for grad    0.01 s
 E :    -50.46051485  G :  0.000191    pred/act E change: -0.993D-07 -0.214D-06
Maxdispl :   0.0056   ||displ|| :   0.0109   Lambda : -0.220D-06
Largest |displ|/coords:  0.0056 (   6)  0.0050 (  37)  0.0038 (   1)
................................................................................
.............................. CYCLE  128 ......................................
................................................................................
   1    -50.7634409 -0.507634E+02  0.965E-03    9.06       0.0  T
   2    -50.7634410 -0.194924E-07  0.724E-03    9.06       2.7  T
   3    -50.7634410 -0.697248E-08  0.102E-03    9.06      19.2  T
   4    -50.7634410 -0.395038E-08  0.304E-04    9.06      64.6  T
   5    -50.7634410 -0.847322E-10  0.527E-05    9.06     372.1  T
speedup  0.87
cpu  time for SCC    0.00 s
wall time for SCC    0.00 s
speedup  0.99
cpu  time for grad    0.01 s
wall time for grad    0.01 s
 E :    -50.46051501  G :  0.000221    pred/act E change: -0.148D-06 -0.164D-06
Maxdispl :   0.0065   ||displ|| :   0.0129   Lambda : -0.247D-06
Largest |displ|/coords:  0.0065 (   6)  0.0058 (  37)  0.0037 (   2)
................................................................................
.............................. CYCLE  129 ......................................
................................................................................
   1    -50.7634291 -0.507634E+02  0.113E-02    9.06       0.0  T
   2    -50.7634291 -0.219789E-07  0.843E-03    9.06       2.3  T
   3    -50.7634291 -0.905797E-08  0.117E-03    9.06      16.7  T
   4    -50.7634291 -0.424697E-08  0.321E-04    9.06      61.1  T
   5    -50.7634291 -0.781313E-10  0.587E-05    9.06     334.0  T
speedup  0.89
cpu  time for SCC    0.00 s
wall time for SCC    0.00 s
speedup  0.93
cpu  time for grad    0.01 s
wall time for grad    0.01 s
 E :    -50.46051519  G :  0.000243    pred/act E change: -0.110D-06 -0.182D-06
Maxdispl :   0.0066   ||displ|| :   0.0142   Lambda : -0.240D-06
Largest |displ|/coords:  0.0066 (   6)  0.0063 (  37)  0.0039 (   3)
................................................................................
.............................. CYCLE  130 ......................................
................................................................................
   1    -50.7634251 -0.507634E+02  0.119E-02    9.06       0.0  T
   2    -50.7634251 -0.221166E-07  0.890E-03    9.06       2.2  T
   3    -50.7634251 -0.980962E-08  0.126E-03    9.06      15.6  T
   4    -50.7634252 -0.410184E-08  0.320E-04    9.06      61.2  T
   5    -50.7634252 -0.716298E-10  0.589E-05    9.06     332.7  T
speedup  1.09
cpu  time for SCC    0.00 s
wall time for SCC    0.00 s
speedup  1.00
cpu  time for grad    0.01 s
wall time for grad    0.01 s
 E :    -50.46051537  G :  0.000223    pred/act E change: -0.123D-06 -0.175D-06
Maxdispl :   0.0065   ||displ|| :   0.0137   Lambda : -0.211D-06
Largest |displ|/coords:  0.0065 (   6)  0.0057 (  37)  0.0046 (   3)
................................................................................
.............................. CYCLE  131 ......................................
................................................................................
   1    -50.7634376 -0.507634E+02  0.107E-02    9.06       0.0  T
   2    -50.7634376 -0.172440E-07  0.801E-03    9.06       2.4  T
   3    -50.7634376 -0.862605E-08  0.118E-03    9.06      16.6  T
   4    -50.7634376 -0.298026E-08  0.296E-04    9.06      66.4  T
   5    -50.7634376 -0.623928E-10  0.565E-05    9.06     347.2  T
speedup  1.14
cpu  time for SCC    0.00 s
wall time for SCC    0.00 s
speedup  1.01
cpu  time for grad    0.01 s
wall time for grad    0.01 s
 E :    -50.46051552  G :  0.000165    pred/act E change: -0.120D-06 -0.151D-06
Maxdispl :   0.0047   ||displ|| :   0.0104   Lambda : -0.143D-06
Largest |displ|/coords:  0.0047 (   6)  0.0044 (  37)  0.0040 (   3)
................................................................................
.............................. CYCLE  132 ......................................
................................................................................
   1    -50.7634530 -0.507635E+02  0.794E-03    9.06       0.0  T
   2    -50.7634530 -0.969822E-08  0.591E-03    9.06       3.3  T
   3    -50.7634530 -0.457076E-08  0.917E-04    9.06      21.4  T
   4    -50.7634530 -0.168611E-08  0.225E-04    9.06      87.2  T
speedup  1.08
cpu  time for SCC    0.00 s
wall time for SCC    0.00 s
speedup  0.99
cpu  time for grad    0.01 s
wall time for grad    0.01 s
 E :    -50.46051562  G :  0.000099    pred/act E change: -0.105D-06 -0.993D-07
Maxdispl :   0.0018   ||displ|| :   0.0046   Lambda : -0.624D-07
Largest |displ|/coords:  0.0018 (   9)  0.0018 (   3)  0.0017 (  17)

   *** GEOMETRY OPTIMIZATION CONVERGED AFTER 132 ITERATIONS ***

------------------------------------------------------------------------
 total energy gain (kcal):     -0.0022
------------------------------------------------------------------------
================
 final structure:
================
$coord
       -1.39204517408592        3.99147395884795        1.40425570729060      S 
        0.66674716079447        3.97566324555316       -0.41524249570073      O 
       -0.88152003919088        5.31343231535660        3.70351111207870      O 
       -3.66586995416186        5.48064914915148        0.03302859009450      O 
       -2.42258711019296        1.43962050290171        1.74133374647576      O 
       -3.59170448147164        0.64399636239975       -1.06018699292158      H 
       -3.76037897710209        7.04835138710004        0.91309014985663      H 
       -3.93691529795079        0.07129021166846       -2.79524513663891      O 
       -4.74031404007014        1.47678108708766       -3.60672184001689      H 
        2.30733559627662       -3.52393633157200        1.21373188291122      O 
        2.66354524964494       -2.24382384359924        2.48395913718371      H 
        2.08441320370474        0.72977355547984        4.10156241276690      O 
        0.38229073125569        1.07013493939734        3.52642270902214      H 
        2.67390269502448        2.30964760324142        4.76593103152475      H 
        5.18654499904191       -3.64944832713572       -3.40131535477856      O 
        6.78412255960766       -4.47269044635471       -3.61218186296804      H 
        4.59761999513755       -4.07385087312643       -1.72357967448401      H 
       -2.74688644265147       -3.74399885905239        1.64443236298401      O 
       -3.72658657288084       -3.87566054931240        0.12258588119504      H 
        0.57771295617661       -4.07780620181221        1.57734952689694      H 
       -2.80652571801098       -1.97069325706020        2.10480362301285      H 
        1.16035525203560       -0.39016581523518       -2.59643068537456      N 
       -0.67528023834845       -0.63818706955350       -3.22588152376349      H 
        1.21963021165275        1.46008506813726       -1.82017262955691      H 
        1.56096992099969       -1.67101151606186       -1.11239585497113      H 
        2.48142349593613       -0.67962627750848       -3.96664382206340      H 
$end
 
 Bond Distances (Angstroems)
 ---------------------------
S1-O2=1.4540         S1-O3=1.4292         S1-O4=1.6110         S1-O5=1.4672         O2-S1=1.4540         O3-S1=1.4292         
O4-S1=1.6110         O4-H7=0.9527         O5-S1=1.4672         H6-O8=0.9840         H7-O4=0.9527         O8-H6=0.9840         
O8-H9=0.9583         H9-O8=0.9583         O10-H11=0.9727       O10-H20=0.9801       H11-O10=0.9727       O12-H13=0.9677       
O12-H14=0.9591       H13-O12=0.9677       H14-O12=0.9591       O15-H16=0.9576       O15-H17=0.9674       H16-O15=0.9576       
H17-O15=0.9674       O18-H19=0.9603       O18-H21=0.9700       H19-O18=0.9603       H20-O10=0.9801       H21-O18=0.9700       
N22-H23=1.0353       N22-H24=1.0623       N22-H25=1.0588       N22-H26=1.0188       H23-N22=1.0353       H24-N22=1.0623       
H25-N22=1.0588       H26-N22=1.0188       
 N  H  Rav=1.0438 sigma=0.0178  Rmin=1.0188  Rmax=1.0623     4
 O  H  Rav=0.9663 sigma=0.0094  Rmin=0.9527  Rmax=0.9840    11
 S  O  Rav=1.4904 sigma=0.0710  Rmin=1.4292  Rmax=1.6110     4
 
 selected bond angles (degree)
 --------------------
O3-S1-O2=115.15                O4-S1-O2=105.32                O4-S1-O3=106.57                O5-S1-O2=110.71                
O5-S1-O3=114.66                O5-S1-O4=103.14                H7-O4-S1=104.18                H9-O8-H6=105.16                
H20-O10-H11=104.69             
 
 selected dihedral angles (degree)
 ---------------------------------
H7-O4-S1-O2=251.07            H7-O4-S1-O3= 13.83            H7-O4-S1-O5=134.93            
 
 CMA Distance (Angstroems)
 ---------------------------
R(CMA):  3.3702

========================================================================
 FINAL SINGLEPOINT CALCULATION ON OPTIMIZED GEOMETRY
========================================================================

 Ncao       : 65
 Nao        : 64
 Nshell     : 38
 Nel        : 80
 T(el)      :   300.0
 intcut     :    25.0
 scfconv/Eh :  0.100E-05
   qconv/e  :  0.100E-03
 intneglect :  0.100E-07
 broydamp   :      0.250
 iter      E             dE          RMSdq      gap      omega  full diag
   1    -50.7634530 -0.507635E+02  0.802E-05    9.06       0.0  T
   2    -50.7634530 -0.319744E-11  0.517E-05    9.06     379.0  T
   3    -50.7634530 -0.189715E-11  0.631E-06    9.06    3107.1  T
speedup  1.11
cpu  time for SCC    0.00 s
wall time for SCC    0.00 s

   *** convergence criteria satisfied after 3 iterations ***

          eigenvalues
 #    :          28         29         30         31         32         33         34         35
 occ. :        2.000      2.000      2.000      2.000      2.000      2.000      2.000      2.000
 eps  :       -13.521    -13.282    -12.547    -12.408    -12.326    -12.229    -12.215    -12.212
 #    :          36         37         38         39         40         41         42         43
 occ. :        2.000      2.000      2.000      2.000      2.000      0.000      0.000      0.000
 eps  :       -12.052    -12.011    -11.968    -11.948    -11.679     -2.619     -0.833     -0.579
 #    :          44         45         46         47         48         49         50         51
 occ. :        0.000      0.000      0.000      0.000      0.000      0.000      0.000      0.000
 eps  :         0.591      1.251      1.620      2.234      3.161      3.669      4.520      4.835


   #   Z            q   n(s)   n(p)   n(d)      C6AA      α(0)
   1  16 S      1.676  1.591  1.775  0.957    89.304    15.905
   2   8 O     -0.728  1.765  4.963  0.000    29.481     7.280
   3   8 O     -0.717  1.767  4.949  0.000    29.166     7.241
   4   8 O     -0.612  1.751  4.861  0.000    25.454     6.811
   5   8 O     -0.773  1.773  5.000  0.000    30.782     7.439
   6   1 H      0.324  0.676  0.000  0.000     0.653     1.269
   7   1 H      0.343  0.657  0.000  0.000     0.599     1.213
   8   8 O     -0.620  1.741  4.879  0.000    25.678     6.839
   9   1 H      0.288  0.712  0.000  0.000     0.759     1.369
  10   8 O     -0.623  1.751  4.872  0.000    25.735     6.847
  11   1 H      0.332  0.668  0.000  0.000     0.632     1.249
  12   8 O     -0.613  1.726  4.887  0.000    25.505     6.816
  13   1 H      0.301  0.699  0.000  0.000     0.714     1.326
  14   1 H      0.300  0.700  0.000  0.000     0.720     1.333
  15   8 O     -0.602  1.737  4.865  0.000    25.238     6.780
  16   1 H      0.279  0.721  0.000  0.000     0.787     1.393
  17   1 H      0.316  0.684  0.000  0.000     0.676     1.291
  18   8 O     -0.602  1.743  4.859  0.000    25.232     6.779
  19   1 H      0.297  0.703  0.000  0.000     0.729     1.341
  20   1 H      0.333  0.667  0.000  0.000     0.631     1.248
  21   1 H      0.324  0.676  0.000  0.000     0.654     1.270
  22   7 N     -0.347  1.272  4.075  0.000    28.913     7.986
  23   1 H      0.274  0.726  0.000  0.000     0.796     1.398
  24   1 H      0.294  0.706  0.000  0.000     0.730     1.338
  25   1 H      0.298  0.702  0.000  0.000     0.720     1.329
  26   1 H      0.258  0.742  0.000  0.000     0.852     1.446

 Mol. C6AA /au·bohr⁶  :       5442.616146
 Mol. C8AA /au·bohr⁸  :     117762.585275
 Mol. α(0) /au        :        106.537947

 
 Wiberg/Mayer (AO) data. WBOs > 0.1 written file <wbo>
 largest (>0.05) Wiberg bond orders for each atom
           total WBO             WBO to atom ...
     1  S   4.851    O    3 1.416    O    2 1.300    O    5 1.239    O    4 0.858
     2  O   1.751    S    1 1.300    O    3 0.112    H   24 0.110    O    5 0.108    O    4 0.071
     3  O   1.735    S    1 1.416    O    2 0.112    O    5 0.106    O    4 0.082
     4  O   1.943    H    7 0.866    S    1 0.858    O    3 0.082    O    2 0.071    O    5 0.062
     5  O   1.706    S    1 1.239    O    2 0.108    O    3 0.106    H    6 0.065    O    4 0.062
     6  H   0.895    O    8 0.824    O    5 0.065
     7  H   0.882    O    4 0.866
     8  O   1.860    H    9 0.913    H    6 0.824    H   23 0.056
     9  H   0.917    O    8 0.913
    10  O   1.928    H   11 0.854    H   20 0.833    H   25 0.111    N   22 0.056
    11  H   0.890    O   10 0.854
    12  O   1.835    H   14 0.898    H   13 0.861
    13  H   0.909    O   12 0.861
    14  H   0.910    O   12 0.898
    15  O   1.824    H   16 0.918    H   17 0.878
    16  H   0.922    O   15 0.918
    17  H   0.900    O   15 0.878
    18  O   1.868    H   19 0.906    H   21 0.864    H   20 0.052
    19  H   0.912    O   18 0.906
    20  H   0.889    O   10 0.833    O   18 0.052
    21  H   0.895    O   18 0.864
    22  N   3.530    H   26 0.920    H   23 0.865    H   24 0.796    H   25 0.792    O   10 0.056
    23  H   0.925    N   22 0.865    O    8 0.056
    24  H   0.913    N   22 0.796    O    2 0.110
    25  H   0.911    N   22 0.792    O   10 0.111
    26  H   0.933    N   22 0.920
 MOs/occ written to file <molden.input>
 
molecular dipole:
                 x           y           z       tot (Debye)
 q only:        0.571      -0.969      -1.777
   full:        0.104      -0.089      -1.492       3.807
molecular quadrupole (traceless):
                xx          xy          yy          xz          yz          zz
 q only:        6.185      -7.100      -3.479       0.561      -2.314      -2.707
  q+dip:        7.835     -11.048      -1.814       0.290      -0.396      -6.021
   full:        7.779     -11.490      -1.580       0.751      -0.232      -6.199

SCC energy    :     -50.7634530
rep           :       0.3026671
ES            :       0.2644615
AES           :      -0.0749792
AXC           :      -0.0076002
disp          :      -0.0190750
XB            :       0.0000000
fix           :       0.0000000
total E       :     -50.4605156
atomizationE  :       4.9908198     3131.79
(atE without considering molecular charge,
 total energy contains solvation terms)
H-L gap (eV)  :          9.0593
optimized geometry written to: xtbopt.xyz


------------------------------------------------------------------------
 * finished run on 2019/09/16 at 12:54:44.182     
------------------------------------------------------------------------
 total:
 * wall-time:     0 d,  0 h,  0 min,  6.141 sec
 *  cpu-time:     0 d,  0 h,  0 min,  3.081 sec
 * ratio c/w:     0.502 speedup
 SCF:
 * wall-time:     0 d,  0 h,  0 min,  2.232 sec
 *  cpu-time:     0 d,  0 h,  0 min,  0.160 sec
 * ratio c/w:     0.072 speedup
 ANC optimizer:
 * wall-time:     0 d,  0 h,  0 min,  3.878 sec
 *  cpu-time:     0 d,  0 h,  0 min,  2.895 sec
 * ratio c/w:     0.746 speedup

