      -----------------------------------------------------------      
     |                   =====================                   |     
     |                           x T B                           |     
     |                   =====================                   |     
     |                         S. Grimme                         |     
     |          Mulliken Center for Theoretical Chemistry        |     
     |                    University of Bonn                     |     
     |                 Version 6.0.1 (SAW181210)                 |     
      -----------------------------------------------------------      

   This program is distributed in the hope that it will be useful,
   but WITHOUT ANY WARRANTY; without even the implied warranty of
   MERCHANTABILITY or FITNESS FOR A PARTICULAR PURPOSE.
   
   FOR NON-COMMERCIAL, ACADEMIA USE ONLY.
   
   Cite this work as:
   S. Grimme, C. Bannwarth, P. Shushkov, J. Comput. Theory Chem., 2017,
   13, 1989-2009.
   C. Bannwarth, S. Ehlert and S. Grimme., ChemRxiv, 2018, preprint.
   http://doi.org/10.26434/chemrxiv.7246238.v1
   
   for sTDA-xTB:
   S. Grimme and C. Bannwarth, J. Chem. Phys., 2016, 145, 054103.
   
   in the mass-spec context:
   V. Asgeirsson, C. Bauer and S. Grimme, Chem. Sci., 2017, 8, 4879.
   
   if GBSA is used:
   P. Shushkov, F. März and S. Grimme, unpublished.
   
   for ANC optimizer:
   S. Grimme, unpublished.
   Rational Function algorithm used in ANCopt:
   F. Eckert, P. Pulay, H.-J. Werner, J. Comput. Chem., 1997, 18, 1473.
   
   with help from (in alphabetical order)
   C. Bannwarth, F. Bohle, G. Brandenburg, E. Caldeweyher, M. Checinski,
   S. Dohm, S. Ehlert, S. Ehrlich, F. März, H. Neugebauer, J. Pisarek,
   P. Pracht, P. Shushkov, and S. Spicher.
   
 * started run on 2019/09/16 at 12:14:24.810     
========================================================================
 # omp threads = 1
========================================================================
number of atoms            : 26
number of electrons        : 80
charge                     : 0
spin                       : .0
first test random number   : .5568

########################################################################
# WARNING! Please study the warnings concerning your input carefully
#  - XTBPATH is not set, using XTBHOME instead
#  - the use of '-opt' is discouraged, please use '--opt' next time
#  - the use of '-chrg' is discouraged, please use '--chrg' next time
#  - the use of '-uhf' is discouraged, please use '--uhf' next time
########################################################################

           ------------------------------------------------- 
          |                 G F N 2 - x T B                 |
          | Geometry, Frequencies, Noncovalent interactions |
          |            JCTC 2018 parametrisation            |
           ------------------------------------------------- 
      method parameters     
 k(s)        :  1.8500
 k(p)        :  2.2300
 k(d)        :  2.2300
 k(f)        :  2.0000
 kEN (H0ij)  : -2.0000
 D4 a1       :  0.5200
 D4 a2       :  5.0000
 D4 s6       :  1.0000
 D4 s8       :  2.7000
 D4 s9       :  5.0000
 alphaj      :  2.0000


            Z     q(EN)     CN     RAES       Cart. coordinates
     1  S   6.0    0.58    4.29    4.22    -3.76487    -1.75498     2.46332
     2  O   6.0   -0.31    1.10    1.80    -1.46315    -0.28493     2.81330
     3  O   6.0   -0.27    1.09    1.80    -5.70697    -1.94713     4.36829
     4  O   6.0   -0.23    2.03    1.83    -4.99898    -0.87335    -0.22836
     5  O   6.0   -0.23    2.07    1.83    -3.09569    -4.62002     1.68136
     6  H   1.0    0.17    1.29    1.49    -1.68391    -4.61421     0.50103
     7  H   1.0    0.16    1.16    1.46    -4.59495     0.90766    -0.45447
     8  O   6.0   -0.39    1.65    1.81     0.29580    -3.88444    -1.40586
     9  H   1.0    0.17    0.95    1.42     0.32756    -5.40444    -2.48861
    10  O   6.0   -0.37    1.52    1.80    -2.67457     3.34524    -2.06362
    11  H   1.0    0.18    0.94    1.42    -4.09111     4.06569    -3.04245
    12  O   6.0   -0.39    1.61    1.81     3.87209     2.06920    -0.45441
    13  H   1.0    0.17    0.95    1.42     5.48107     2.43347    -1.32750
    14  O   6.0   -0.23    2.95    2.67     0.53730     0.24864    -3.18154
    15  H   1.0    0.17    1.23    1.47     0.21058    -1.42954    -2.42866
    16  H   1.0    0.16    1.15    1.45    -0.93715     1.38520    -3.02578
    17  H   1.0    0.15    1.11    1.44     2.09476     1.02771    -2.50415
    18  O   6.0   -0.23    2.92    2.59     0.75168     5.27152     0.20968
    19  H   1.0    0.12    0.96    1.43     0.31765     5.83699     1.93644
    20  H   1.0    0.17    1.21    1.47     2.11557     3.99488     0.21285
    21  H   1.0    0.17    1.21    1.47    -0.75164     4.68566    -0.73281
    22  N   5.0   -0.14    3.96    2.76     3.55179    -2.09177     1.83039
    23  H   1.0    0.08    0.99    1.43     5.12046    -3.22194     1.61492
    24  H   1.0    0.12    1.10    1.44     2.09561    -2.78995     0.74572
    25  H   1.0    0.09    0.99    1.43     3.01679    -2.07473     3.70067
    26  H   1.0    0.12    1.13    1.45     3.97430    -0.28045     1.26026

  Z AO/shell   Hii/eV     exponent
  1     Wed Apr 25 08:07:45 CEST 2018   EN: 2.200 GM2: 0.406  GM3: 0.0800  RAES: 1.40
     1s    -10.707211    1.230000
  7     Wed Apr 25 08:07:45 CEST 2018   EN: 3.040 GM2: 0.461  GM3:-0.0640  RAES: 1.90
     2s    -16.686243    2.339881
     2p    -12.523956    2.014332
  8     Wed Apr 25 08:07:45 CEST 2018   EN: 3.440 GM2: 0.452  GM3:-0.0517  RAES: 1.80
     2s    -20.229985    2.439742
     2p    -15.503117    2.137023
 16     Tue Apr 24 11:44:34 CEST 2018   EN: 2.580 GM2: 0.340  GM3:-0.0502  RAES: 3.10
     3s    -20.029654    1.981333
     3p    -11.377694    2.025643
     3d     -0.420282    1.702555
 no old-style atom pair restraining (fixing) potential

molecular fragmentation (1/2 indicates fragments):
11111112222222222222222222
# atoms in fragment 1/2:     7    19
 fragment masses (1/2) :       98.07      107.11
CMA distance (Bohr)    :   6.348
constraining FC (au)   :  0.0500
           ------------------------------------------------- 
          |        Self-Consistent Charge Iterations        |
           ------------------------------------------------- 

 Ncao       : 65
 Nao        : 64
 Nshell     : 38
 Nel        : 80
 T(el)      :   300.0
 intcut     :    25.0
 scfconv/Eh :  0.100E-05
   qconv/e  :  0.100E-03
 intneglect :  0.100E-07
 broydamp   :      0.250
 iter      E             dE          RMSdq      gap      omega  full diag
   1    -50.4885994 -0.504886E+02  0.711E+00    8.25       0.0  T
   2    -50.5400550 -0.514556E-01  0.501E+00    7.43       1.0  T
   3    -50.5827146 -0.426596E-01  0.116E+00    5.25       1.0  T
   4    -50.5860679 -0.335323E-02  0.693E-01    5.48       1.0  T
   5    -50.5876611 -0.159323E-02  0.249E-01    5.61       1.0  T
   6    -50.5879429 -0.281787E-03  0.147E-01    5.64       1.0  T
   7    -50.5880805 -0.137640E-03  0.412E-02    5.64       1.0  T
   8    -50.5880883 -0.775567E-05  0.244E-02    5.63       1.0  T
   9    -50.5880917 -0.340392E-05  0.712E-03    5.64       2.8  T
  10    -50.5880919 -0.189544E-06  0.233E-03    5.64       8.4  T
  11    -50.5880919 -0.199304E-07  0.111E-03    5.64      17.6  T
  12    -50.5880919 -0.587814E-08  0.365E-04    5.64      53.7  T
  13    -50.5880919 -0.437680E-09  0.164E-04    5.64     119.8  T
speedup  0.98
cpu  time for SCC    0.01 s
wall time for SCC    0.02 s

   *** convergence criteria satisfied after 13 iterations ***

          eigenvalues
 #    :          28         29         30         31         32         33         34         35
 occ. :        2.000      2.000      2.000      2.000      2.000      2.000      2.000      2.000
 eps  :       -12.459    -12.249    -12.210    -11.987    -11.967    -11.790    -11.602    -10.850
 #    :          36         37         38         39         40         41         42         43
 occ. :        2.000      2.000      2.000      2.000      2.000      0.000      0.000      0.000
 eps  :       -10.730    -10.034     -9.864     -9.785     -9.580     -3.937     -1.311     -1.277
 #    :          44         45         46         47         48         49         50         51
 occ. :        0.000      0.000      0.000      0.000      0.000      0.000      0.000      0.000
 eps  :        -0.358     -0.055      1.453      1.936      2.768      3.099      3.298      4.959


   #   Z            q   n(s)   n(p)   n(d)      C6AA      α(0)
   1  16 S      1.597  1.633  1.832  0.938    91.149    16.069
   2   8 O     -0.675  1.762  4.914  0.000    28.040     7.100
   3   8 O     -0.633  1.772  4.861  0.000    26.944     6.959
   4   8 O     -0.584  1.765  4.819  0.000    24.783     6.720
   5   8 O     -0.605  1.762  4.843  0.000    25.277     6.787
   6   1 H      0.374  0.626  0.000  0.000     0.530     1.142
   7   1 H      0.368  0.632  0.000  0.000     0.546     1.160
   8   8 O     -0.865  1.826  5.039  0.000    33.576     7.771
   9   1 H      0.211  0.789  0.000  0.000     1.062     1.619
  10   8 O     -0.875  1.825  5.050  0.000    33.904     7.808
  11   1 H      0.192  0.808  0.000  0.000     1.162     1.694
  12   8 O     -0.846  1.827  5.019  0.000    32.976     7.700
  13   1 H      0.203  0.797  0.000  0.000     1.104     1.651
  14   8 O     -0.508  1.679  4.830  0.000    23.015     6.479
  15   1 H      0.391  0.609  0.000  0.000     0.495     1.100
  16   1 H      0.386  0.614  0.000  0.000     0.508     1.117
  17   1 H      0.375  0.625  0.000  0.000     0.532     1.145
  18   8 O     -0.448  1.668  4.780  0.000    21.751     6.299
  19   1 H      0.340  0.660  0.000  0.000     0.613     1.230
  20   1 H      0.405  0.595  0.000  0.000     0.469     1.072
  21   1 H      0.407  0.593  0.000  0.000     0.466     1.069
  22   7 N     -0.300  1.263  4.036  0.000    27.703     7.817
  23   1 H      0.226  0.774  0.000  0.000     0.983     1.553
  24   1 H      0.319  0.681  0.000  0.000     0.660     1.272
  25   1 H      0.237  0.763  0.000  0.000     0.936     1.516
  26   1 H      0.310  0.690  0.000  0.000     0.683     1.295

 Mol. C6AA /au·bohr⁶  :       5520.305166
 Mol. C8AA /au·bohr⁸  :     119607.444929
 Mol. α(0) /au        :        107.145644

 
 Wiberg/Mayer (AO) data. WBOs > 0.1 written file <wbo>
 largest (>0.05) Wiberg bond orders for each atom
           total WBO             WBO to atom ...
     1  S   4.812    O    3 1.478    O    2 1.401    O    5 0.988    O    4 0.921
     2  O   1.748    S    1 1.401    O    3 0.140    O    5 0.100    O    4 0.098
     3  O   1.810    S    1 1.478    O    2 0.140    O    4 0.095    O    5 0.086
     4  O   1.982    S    1 0.921    H    7 0.784    O    2 0.098    O    3 0.095    O    5 0.057
     5  O   1.980    S    1 0.988    H    6 0.686    O    2 0.100    O    3 0.086    O    4 0.057    O    8 0.054
     6  H   0.860    O    5 0.686    O    8 0.158
     7  H   0.865    O    4 0.784    O   10 0.062
     8  O   1.583    H    9 0.939    H   15 0.187    H    6 0.158    H   24 0.119    O   14 0.060    O    5 0.054    N   22 0.051
     9  H   0.955    O    8 0.939
    10  O   1.535    H   11 0.948    H   21 0.205    H   16 0.162    H    7 0.062    O   18 0.062    O   14 0.055
    11  H   0.963    O   10 0.948
    12  O   1.616    H   13 0.950    H   20 0.194    H   26 0.142    H   17 0.139    N   22 0.064    O   18 0.060    O   14 0.052
    13  H   0.959    O   12 0.950
    14  O   2.237    H   17 0.716    H   16 0.683    H   15 0.654    O    8 0.060    O   10 0.055    O   12 0.052
    15  H   0.847    O   14 0.654    O    8 0.187
    16  H   0.851    O   14 0.683    O   10 0.162
    17  H   0.859    O   14 0.716    O   12 0.139
    18  O   2.270    H   19 0.874    H   20 0.636    H   21 0.623    O   10 0.062    O   12 0.060
    19  H   0.885    O   18 0.874
    20  H   0.836    O   18 0.636    O   12 0.194
    21  H   0.835    O   18 0.623    O   10 0.205
    22  N   3.539    H   23 0.944    H   25 0.937    H   24 0.770    H   26 0.756    O   12 0.064    O    8 0.051
    23  H   0.949    N   22 0.944
    24  H   0.898    N   22 0.770    O    8 0.119
    25  H   0.944    N   22 0.937
    26  H   0.904    N   22 0.756    O   12 0.142
 MOs/occ written to file <molden.input>
 
molecular dipole:
                 x           y           z       tot (Debye)
 q only:        3.530       1.160       0.667
   full:        3.536       1.105       0.521       9.508
molecular quadrupole (traceless):
                xx          xy          yy          xz          yz          zz
 q only:       -5.910     -14.451       7.360      14.102       5.042      -1.450
  q+dip:       -4.103     -17.256       7.714      16.041       6.275      -3.610
   full:       -4.192     -17.641       8.038      16.098       6.261      -3.846

SCC energy    :     -50.5880919
rep           :       0.2636829
ES            :       0.3330973
AES           :      -0.0518720
AXC           :      -0.0049743
disp          :      -0.0193568
XB            :       0.0000000
fix           :       0.0000000
total E       :     -50.3240298
atomizationE  :       4.8543340     3046.14
(atE without considering molecular charge,
 total energy contains solvation terms)
H-L gap (eV)  :          5.6428
           ------------------------------------------------- 
          |                 ===============                 |
          |                   A N C O P T                   |
          |                 ===============                 |
          |          Approximate Normal Coordinate          |
          |           Rational Function Optimizer           |
           ------------------------------------------------- 
dumping coords to <xtbopt.coord> and <xtbopt.log>
 optlevel               2
 Maxcycle             520
 Maxmicro              25
 Econv         1.000000000000000E-007
 Gconv         2.000000000000000E-004
 Maxdispl       1.00000000000000     
 Hlow          5.000000000000000E-003
 S6             20.0000000000000     
 Nvar               72

generating ANC from model Hessian ...
 Shifting diagonal of input Hessian by   4.819890551852687E-003
 Lowest  eigenvalues of input Hessian
   -0.000000   -0.000000   -0.000000    0.000000    0.000000    0.000000
    0.005000    0.005433    0.005871    0.006158    0.006344    0.006809
    0.007259    0.007425    0.008406    0.009995    0.010926    0.012167
 Highest eigenvalues
    1.595193    1.603209    1.605487    1.949842    2.764584    3.587803
 
cpu  time for ANC gen    0.02 s
wall time for ANC gen    0.02 s
................................................................................
.............................. CYCLE    1 ......................................
................................................................................
   1    -50.5880919 -0.505881E+02  0.467E-05    5.64       0.0  T
   2    -50.5880919 -0.626699E-11  0.347E-05    5.64     564.9  T
   3    -50.5880919 -0.332534E-11  0.176E-05    5.64    1112.6  T
speedup  0.97
cpu  time for SCC    0.00 s
wall time for SCC    0.00 s
speedup  1.00
cpu  time for grad    0.01 s
wall time for grad    0.01 s
 E :    -50.32402980  G :  0.221162    pred/act E change:  0.000D+00  0.250D-07
Maxdispl :   0.1895   ||displ|| :   0.3853   Lambda : -0.516D-01
Largest |displ|/coords:  0.1895 (  18)  0.1171 (  16)  0.1004 (  55)
................................................................................
.............................. CYCLE    2 ......................................
................................................................................
   1    -50.6112931 -0.506113E+02  0.441E-01    6.56       0.0  T
   2    -50.6118612 -0.568101E-03  0.317E-01    6.70       1.0  T
   3    -50.6121064 -0.245180E-03  0.102E-01    6.93       1.0  T
   4    -50.6121337 -0.273128E-04  0.281E-02    6.93       1.0  T
   5    -50.6121362 -0.242714E-05  0.817E-03    6.92       2.4  T
   6    -50.6121363 -0.124716E-06  0.441E-03    6.92       4.5  T
   7    -50.6121363 -0.393307E-07  0.171E-03    6.92      11.5  T
speedup  1.06
cpu  time for SCC    0.01 s
wall time for SCC    0.01 s
speedup  1.01
cpu  time for grad    0.01 s
wall time for grad    0.01 s
 E :    -50.36447941  G :  0.125704    pred/act E change:  0.000D+00 -0.404D-01
Maxdispl :   0.1946   ||displ|| :   0.4156   Lambda : -0.251D-01
Largest |displ|/coords:  0.1946 (  18)  0.1361 (  16)  0.1295 (  25)
................................................................................
.............................. CYCLE    3 ......................................
................................................................................
   1    -50.6213138 -0.506213E+02  0.423E-01    7.64       0.0  T
   2    -50.6219421 -0.628251E-03  0.298E-01    7.77       1.0  T
   3    -50.6222032 -0.261073E-03  0.104E-01    7.95       1.0  T
   4    -50.6222256 -0.224539E-04  0.211E-02    7.95       1.0  T
   5    -50.6222271 -0.144728E-05  0.649E-03    7.94       3.0  T
   6    -50.6222272 -0.930360E-07  0.360E-03    7.94       5.4  T
   7    -50.6222272 -0.346886E-07  0.141E-03    7.94      13.9  T
speedup  1.01
cpu  time for SCC    0.01 s
wall time for SCC    0.01 s
speedup  0.99
cpu  time for grad    0.01 s
wall time for grad    0.02 s
 E :    -50.38470026  G :  0.079903    pred/act E change: -0.296D-01 -0.202D-01
Maxdispl :   0.1289   ||displ|| :   0.3856   Lambda : -0.131D-01
Largest |displ|/coords:  0.1289 (  25)  0.1237 (  11)  0.1125 (  18)
................................................................................
.............................. CYCLE    4 ......................................
................................................................................
   1    -50.6254108 -0.506254E+02  0.330E-01    8.34       0.0  T
   2    -50.6258628 -0.452059E-03  0.230E-01    8.41       1.0  T
   3    -50.6260486 -0.185708E-03  0.869E-02    8.52       1.0  T
   4    -50.6260607 -0.121208E-04  0.171E-02    8.52       1.1  T
   5    -50.6260616 -0.891949E-06  0.508E-03    8.52       3.9  T
   6    -50.6260616 -0.490905E-07  0.284E-03    8.52       6.9  T
speedup  1.05
cpu  time for SCC    0.01 s
wall time for SCC    0.01 s
speedup  1.01
cpu  time for grad    0.01 s
wall time for grad    0.01 s
 E :    -50.39496038  G :  0.052534    pred/act E change: -0.147D-01 -0.103D-01
Maxdispl :   0.1471   ||displ|| :   0.3253   Lambda : -0.596D-02
Largest |displ|/coords:  0.1471 (   4)  0.0972 (  17)  0.0962 (  25)
................................................................................
.............................. CYCLE    5 ......................................
................................................................................
   1    -50.6267124 -0.506267E+02  0.257E-01    8.69       0.0  T
   2    -50.6269639 -0.251531E-03  0.181E-01    8.73       1.0  T
   3    -50.6270643 -0.100415E-03  0.675E-02    8.79       1.0  T
   4    -50.6270728 -0.851759E-05  0.135E-02    8.79       1.5  T
   5    -50.6270733 -0.497125E-06  0.391E-03    8.78       5.0  T
   6    -50.6270734 -0.210766E-07  0.217E-03    8.78       9.0  T
speedup  1.03
cpu  time for SCC    0.01 s
wall time for SCC    0.01 s
speedup  1.00
cpu  time for grad    0.01 s
wall time for grad    0.01 s
 E :    -50.39962405  G :  0.039116    pred/act E change: -0.751D-02 -0.466D-02
Maxdispl :   0.2458   ||displ|| :   0.4146   Lambda : -0.605D-02
Largest |displ|/coords:  0.2458 (   4)  0.1330 (  17)  0.1003 (   1)
................................................................................
.............................. CYCLE    6 ......................................
................................................................................
   1    -50.6337504 -0.506338E+02  0.341E-01    8.96       0.0  T
   2    -50.6341931 -0.442660E-03  0.246E-01    8.97       1.0  T
   3    -50.6343621 -0.168964E-03  0.969E-02    8.98       1.0  T
   4    -50.6343781 -0.160196E-04  0.255E-02    8.98       1.0  T
   5    -50.6343795 -0.141271E-05  0.615E-03    8.98       3.2  T
   6    -50.6343796 -0.657765E-07  0.317E-03    8.98       6.2  T
   7    -50.6343796 -0.206403E-07  0.111E-03    8.98      17.6  T
speedup  1.06
cpu  time for SCC    0.01 s
wall time for SCC    0.01 s
speedup  1.01
cpu  time for grad    0.01 s
wall time for grad    0.01 s
 E :    -50.40316686  G :  0.034869    pred/act E change: -0.329D-02 -0.354D-02
Maxdispl :   0.2802   ||displ|| :   0.4704   Lambda : -0.433D-02
Largest |displ|/coords:  0.2802 (   4)  0.1544 (  12)  0.1263 (  23)
................................................................................
.............................. CYCLE    7 ......................................
................................................................................
   1    -50.6282007 -0.506282E+02  0.402E-01    8.95       0.0  T
   2    -50.6286133 -0.412629E-03  0.287E-01    8.94       1.0  T
   3    -50.6287809 -0.167630E-03  0.978E-02    8.94       1.0  T
   4    -50.6288089 -0.280021E-04  0.214E-02    8.95       1.0  T
   5    -50.6288099 -0.939458E-06  0.829E-03    8.95       2.4  T
   6    -50.6288099 -0.746952E-07  0.436E-03    8.95       4.5  T
   7    -50.6288100 -0.302330E-07  0.108E-03    8.95      18.1  T
speedup  1.03
cpu  time for SCC    0.01 s
wall time for SCC    0.01 s
speedup  0.99
cpu  time for grad    0.01 s
wall time for grad    0.02 s
 E :    -50.40348403  G :  0.056483    pred/act E change: -0.354D-02 -0.317D-03
Maxdispl :   0.1786   ||displ|| :   0.3417   Lambda : -0.821D-02
Largest |displ|/coords:  0.1786 (  12)  0.1220 (   4)  0.1206 (  23)
................................................................................
.............................. CYCLE    8 ......................................
................................................................................
   1    -50.6400163 -0.506400E+02  0.417E-01    8.98       0.0  T
   2    -50.6403427 -0.326388E-03  0.302E-01    9.00       1.0  T
   3    -50.6405066 -0.163848E-03  0.931E-02    9.02       1.0  T
   4    -50.6405350 -0.284698E-04  0.211E-02    9.02       1.0  T
   5    -50.6405362 -0.113666E-05  0.886E-03    9.02       2.2  T
   6    -50.6405362 -0.632261E-07  0.402E-03    9.02       4.9  T
   7    -50.6405363 -0.448090E-07  0.118E-03    9.02      16.6  T
speedup  0.91
cpu  time for SCC    0.01 s
wall time for SCC    0.01 s
speedup  1.02
cpu  time for grad    0.01 s
wall time for grad    0.01 s
 E :    -50.40466745  G :  0.055304    pred/act E change: -0.265D-02 -0.118D-02
Maxdispl :   0.1142   ||displ|| :   0.2967   Lambda : -0.498D-02
Largest |displ|/coords:  0.1142 (  11)  0.0999 (   1)  0.0959 (   7)
................................................................................
.............................. CYCLE    9 ......................................
................................................................................
   1    -50.6420861 -0.506421E+02  0.282E-01    9.07       0.0  T
   2    -50.6422394 -0.153230E-03  0.204E-01    9.06       1.0  T
   3    -50.6423123 -0.729771E-04  0.627E-02    9.06       1.0  T
   4    -50.6423270 -0.146789E-04  0.125E-02    9.06       1.6  T
   5    -50.6423273 -0.259710E-06  0.560E-03    9.06       3.5  T
   6    -50.6423273 -0.391262E-07  0.265E-03    9.06       7.4  T
speedup  1.00
cpu  time for SCC    0.01 s
wall time for SCC    0.01 s
speedup  0.98
cpu  time for grad    0.01 s
wall time for grad    0.01 s
 E :    -50.40630038  G :  0.031276    pred/act E change: -0.458D-02 -0.163D-02
Maxdispl :   0.3337   ||displ|| :   0.4630   Lambda : -0.323D-02
Largest |displ|/coords:  0.3337 (   4)  0.1582 (   7)  0.1394 (   9)
................................................................................
.............................. CYCLE   10 ......................................
................................................................................
   1    -50.6273086 -0.506273E+02  0.272E-01    8.95       0.0  T
   2    -50.6273421 -0.334139E-04  0.204E-01    8.96       1.0  T
   3    -50.6273726 -0.305423E-04  0.307E-02    8.95       1.0  T
   4    -50.6273760 -0.338890E-05  0.112E-02    8.95       1.8  T
   5    -50.6273761 -0.149988E-06  0.428E-03    8.95       4.6  T
   6    -50.6273762 -0.292074E-07  0.205E-03    8.95       9.6  T
speedup  0.88
cpu  time for SCC    0.00 s
wall time for SCC    0.01 s
speedup  1.01
cpu  time for grad    0.01 s
wall time for grad    0.01 s
 E :    -50.40587894  G :  0.059010    pred/act E change: -0.271D-02  0.421D-03
Maxdispl :   0.1542   ||displ|| :   0.4091   Lambda : -0.917D-02
Largest |displ|/coords:  0.1542 (   8)  0.1447 (   7)  0.1426 (   6)
................................................................................
.............................. CYCLE   11 ......................................
................................................................................
   1    -50.6520348 -0.506520E+02  0.373E-01    9.04       0.0  T
   2    -50.6521898 -0.154989E-03  0.276E-01    9.03       1.0  T
   3    -50.6522977 -0.107831E-03  0.689E-02    8.97       1.0  T
   4    -50.6523124 -0.147125E-04  0.184E-02    9.00       1.1  T
   5    -50.6523130 -0.646271E-06  0.762E-03    9.00       2.6  T
   6    -50.6523130 -0.247017E-07  0.358E-03    9.00       5.5  T
   7    -50.6523131 -0.264210E-07  0.669E-04    9.00      29.3  T
speedup  0.92
cpu  time for SCC    0.01 s
wall time for SCC    0.01 s
speedup  1.01
cpu  time for grad    0.01 s
wall time for grad    0.01 s
 E :    -50.40557692  G :  0.066613    pred/act E change: -0.196D-02  0.302D-03
Maxdispl :   0.1672   ||displ|| :   0.3760   Lambda : -0.943D-02
Largest |displ|/coords:  0.1672 (   8)  0.1416 (   4)  0.1296 (   2)
................................................................................
.............................. CYCLE   12 ......................................
................................................................................
   1    -50.6393084 -0.506393E+02  0.317E-01    8.96       0.0  T
   2    -50.6394370 -0.128595E-03  0.234E-01    8.99       1.0  T
   3    -50.6395243 -0.873043E-04  0.623E-02    9.04       1.0  T
   4    -50.6395381 -0.137331E-04  0.145E-02    9.02       1.4  T
   5    -50.6395383 -0.263342E-06  0.665E-03    9.02       2.9  T
   6    -50.6395384 -0.712283E-07  0.231E-03    9.02       8.5  T
   7    -50.6395384 -0.182709E-07  0.575E-04    9.02      34.1  T
speedup  0.90
cpu  time for SCC    0.01 s
wall time for SCC    0.01 s
speedup  1.00
cpu  time for grad    0.01 s
wall time for grad    0.01 s
 E :    -50.40719992  G :  0.050982    pred/act E change: -0.535D-02 -0.162D-02
Maxdispl :   0.1657   ||displ|| :   0.3407   Lambda : -0.602D-02
Largest |displ|/coords:  0.1657 (   8)  0.1575 (  11)  0.1291 (  14)
................................................................................
.............................. CYCLE   13 ......................................
................................................................................
   1    -50.6399204 -0.506399E+02  0.247E-01    8.90       0.0  T
   2    -50.6399959 -0.755605E-04  0.181E-01    8.87       1.0  T
   3    -50.6400471 -0.511554E-04  0.464E-02    8.80       1.0  T
   4    -50.6400549 -0.779045E-05  0.111E-02    8.81       1.8  T
   5    -50.6400551 -0.228642E-06  0.574E-03    8.82       3.4  T
   6    -50.6400551 -0.280493E-07  0.203E-03    8.82       9.6  T
speedup  1.00
cpu  time for SCC    0.01 s
wall time for SCC    0.01 s
speedup  0.97
cpu  time for grad    0.01 s
wall time for grad    0.01 s
 E :    -50.40806688  G :  0.043108    pred/act E change: -0.538D-02 -0.867D-03
Maxdispl :   0.1027   ||displ|| :   0.1952   Lambda : -0.289D-02
Largest |displ|/coords:  0.1027 (  11)  0.0851 (   3)  0.0610 (   8)
................................................................................
.............................. CYCLE   14 ......................................
................................................................................
   1    -50.6489495 -0.506489E+02  0.111E-01    8.93       0.0  T
   2    -50.6489587 -0.914338E-05  0.822E-02    8.93       1.0  T
   3    -50.6489640 -0.536147E-05  0.179E-02    8.94       1.1  T
   4    -50.6489651 -0.104848E-05  0.583E-03    8.94       3.4  T
   5    -50.6489652 -0.776650E-07  0.193E-03    8.94      10.1  T
speedup  1.04
cpu  time for SCC    0.01 s
wall time for SCC    0.00 s
speedup  0.98
cpu  time for grad    0.01 s
wall time for grad    0.01 s
 E :    -50.40956128  G :  0.017857    pred/act E change: -0.336D-02 -0.149D-02
Maxdispl :   0.1751   ||displ|| :   0.2703   Lambda : -0.167D-02
Largest |displ|/coords:  0.1751 (   4)  0.0888 (   2)  0.0859 (   1)
................................................................................
.............................. CYCLE   15 ......................................
................................................................................
   1    -50.6444266 -0.506444E+02  0.153E-01    8.89       0.0  T
   2    -50.6444413 -0.146296E-04  0.115E-01    8.89       1.0  T
   3    -50.6444532 -0.119339E-04  0.210E-02    8.87       1.0  T
   4    -50.6444549 -0.173243E-05  0.756E-03    8.87       2.6  T
   5    -50.6444550 -0.106152E-06  0.277E-03    8.87       7.1  T
   6    -50.6444550 -0.100717E-07  0.138E-03    8.87      14.2  T
speedup  1.03
cpu  time for SCC    0.01 s
wall time for SCC    0.01 s
speedup  0.99
cpu  time for grad    0.01 s
wall time for grad    0.01 s
 E :    -50.41043416  G :  0.030929    pred/act E change: -0.150D-02 -0.873D-03
Maxdispl :   0.2050   ||displ|| :   0.3014   Lambda : -0.174D-02
Largest |displ|/coords:  0.2050 (   4)  0.0905 (   5)  0.0834 (   1)
................................................................................
.............................. CYCLE   16 ......................................
................................................................................
   1    -50.6466333 -0.506466E+02  0.149E-01    8.85       0.0  T
   2    -50.6466518 -0.184967E-04  0.111E-01    8.83       1.0  T
   3    -50.6466626 -0.108200E-04  0.239E-02    8.78       1.0  T
   4    -50.6466649 -0.229410E-05  0.619E-03    8.78       3.2  T
   5    -50.6466650 -0.116968E-06  0.271E-03    8.79       7.2  T
   6    -50.6466651 -0.769241E-08  0.127E-03    8.79      15.4  T
speedup  1.05
cpu  time for SCC    0.01 s
wall time for SCC    0.01 s
speedup  1.01
cpu  time for grad    0.01 s
wall time for grad    0.01 s
 E :    -50.41211180  G :  0.033276    pred/act E change: -0.894D-03 -0.168D-02
Maxdispl :   0.5034   ||displ|| :   0.7833   Lambda : -0.679D-02
Largest |displ|/coords:  0.5034 (   4)  0.1972 (  11)  0.1610 (  24)
................................................................................
.............................. CYCLE   17 ......................................
................................................................................
   1    -50.6604371 -0.506604E+02  0.447E-01    8.67       0.0  T
   2    -50.6606700 -0.232893E-03  0.331E-01    8.60       1.0  T
   3    -50.6608214 -0.151425E-03  0.846E-02    8.43       1.0  T
   4    -50.6608461 -0.246955E-04  0.209E-02    8.45       1.0  T
   5    -50.6608472 -0.109361E-05  0.946E-03    8.46       2.1  T
   6    -50.6608473 -0.801061E-07  0.425E-03    8.46       4.6  T
   7    -50.6608473 -0.415067E-07  0.108E-03    8.46      18.2  T
speedup  0.94
cpu  time for SCC    0.01 s
wall time for SCC    0.01 s
speedup  1.01
cpu  time for grad    0.01 s
wall time for grad    0.01 s
 E :    -50.41748838  G :  0.035854    pred/act E change: -0.951D-03 -0.538D-02
Maxdispl :   0.3346   ||displ|| :   0.6423   Lambda : -0.537D-02
Largest |displ|/coords:  0.3346 (   4)  0.2188 (   1)  0.1769 (   5)
................................................................................
.............................. CYCLE   18 ......................................
................................................................................
   1    -50.6708041 -0.506708E+02  0.388E-01    8.33       0.0  T
   2    -50.6710061 -0.201940E-03  0.286E-01    8.32       1.0  T
   3    -50.6711230 -0.116969E-03  0.790E-02    8.27       1.0  T
   4    -50.6711455 -0.224637E-04  0.178E-02    8.26       1.1  T
   5    -50.6711462 -0.685847E-06  0.850E-03    8.27       2.3  T
   6    -50.6711462 -0.706890E-07  0.361E-03    8.27       5.4  T
   7    -50.6711463 -0.289239E-07  0.114E-03    8.27      17.1  T
speedup  1.04
cpu  time for SCC    0.01 s
wall time for SCC    0.01 s
speedup  1.00
cpu  time for grad    0.01 s
wall time for grad    0.01 s
 E :    -50.42129378  G :  0.038228    pred/act E change: -0.548D-02 -0.381D-02
Maxdispl :   0.1733   ||displ|| :   0.4323   Lambda : -0.549D-02
Largest |displ|/coords:  0.1733 (   4)  0.1602 (  24)  0.0969 (  50)
................................................................................
.............................. CYCLE   19 ......................................
................................................................................
   1    -50.6900343 -0.506900E+02  0.326E-01    8.32       0.0  T
   2    -50.6902120 -0.177685E-03  0.240E-01    8.29       1.0  T
   3    -50.6903182 -0.106248E-03  0.696E-02    8.21       1.0  T
   4    -50.6903371 -0.189081E-04  0.174E-02    8.22       1.1  T
   5    -50.6903376 -0.530544E-06  0.671E-03    8.23       2.9  T
   6    -50.6903377 -0.477583E-07  0.276E-03    8.23       7.1  T
   7    -50.6903377 -0.110296E-07  0.980E-04    8.23      20.0  T
speedup  1.03
cpu  time for SCC    0.01 s
wall time for SCC    0.01 s
speedup  0.99
cpu  time for grad    0.01 s
wall time for grad    0.02 s
 E :    -50.42322144  G :  0.050111    pred/act E change: -0.379D-02 -0.193D-02
Maxdispl :   0.2467   ||displ|| :   0.4572   Lambda : -0.804D-02
Largest |displ|/coords:  0.2467 (   4)  0.2042 (   1)  0.1551 (   2)
................................................................................
.............................. CYCLE   20 ......................................
................................................................................
   1    -50.6548386 -0.506548E+02  0.310E-01    8.21       0.0  T
   2    -50.6549360 -0.974954E-04  0.229E-01    8.24       1.0  T
   3    -50.6549940 -0.579751E-04  0.532E-02    8.30       1.0  T
   4    -50.6550045 -0.104456E-04  0.169E-02    8.28       1.2  T
   5    -50.6550050 -0.518070E-06  0.549E-03    8.28       3.6  T
   6    -50.6550050 -0.303217E-07  0.312E-03    8.28       6.3  T
speedup  1.03
cpu  time for SCC    0.01 s
wall time for SCC    0.01 s
speedup  0.99
cpu  time for grad    0.01 s
wall time for grad    0.01 s
 E :    -50.42198750  G :  0.064098    pred/act E change: -0.326D-02  0.123D-02
Maxdispl :   0.1338   ||displ|| :   0.3578   Lambda : -0.136D-01
Largest |displ|/coords:  0.1338 (   4)  0.1176 (   3)  0.0977 (   9)
................................................................................
.............................. CYCLE   21 ......................................
................................................................................
   1    -50.6992208 -0.506992E+02  0.312E-01    8.41       0.0  T
   2    -50.6993947 -0.173887E-03  0.229E-01    8.38       1.0  T
   3    -50.6994916 -0.969280E-04  0.650E-02    8.33       1.0  T
   4    -50.6995079 -0.162326E-04  0.193E-02    8.34       1.0  T
   5    -50.6995084 -0.571097E-06  0.685E-03    8.34       2.9  T
   6    -50.6995085 -0.382963E-07  0.302E-03    8.34       6.5  T
   7    -50.6995085 -0.167869E-07  0.104E-03    8.34      18.8  T
speedup  1.03
cpu  time for SCC    0.01 s
wall time for SCC    0.01 s
speedup  1.00
cpu  time for grad    0.01 s
wall time for grad    0.01 s
 E :    -50.42379484  G :  0.067441    pred/act E change: -0.486D-02 -0.181D-02
Maxdispl :   0.1240   ||displ|| :   0.2811   Lambda : -0.106D-01
Largest |displ|/coords:  0.1240 (   4)  0.0918 (   2)  0.0915 (   5)
................................................................................
.............................. CYCLE   22 ......................................
................................................................................
   1    -50.6695897 -0.506696E+02  0.256E-01    8.33       0.0  T
   2    -50.6696893 -0.996101E-04  0.186E-01    8.35       1.0  T
   3    -50.6697446 -0.552251E-04  0.512E-02    8.39       1.0  T
   4    -50.6697531 -0.857719E-05  0.152E-02    8.39       1.3  T
   5    -50.6697536 -0.417273E-06  0.532E-03    8.39       3.7  T
   6    -50.6697536 -0.404852E-07  0.285E-03    8.39       6.9  T
speedup  1.05
cpu  time for SCC    0.01 s
wall time for SCC    0.01 s
speedup  1.01
cpu  time for grad    0.01 s
wall time for grad    0.01 s
 E :    -50.42553060  G :  0.052023    pred/act E change: -0.769D-02 -0.174D-02
Maxdispl :   0.0737   ||displ|| :   0.2026   Lambda : -0.541D-02
Largest |displ|/coords:  0.0737 (   5)  0.0706 (   1)  0.0630 (   3)
................................................................................
.............................. CYCLE   23 ......................................
................................................................................
   1    -50.6858950 -0.506859E+02  0.190E-01    8.41       0.0  T
   2    -50.6859772 -0.821294E-04  0.137E-01    8.40       1.0  T
   3    -50.6860197 -0.425865E-04  0.435E-02    8.38       1.0  T
   4    -50.6860262 -0.650088E-05  0.121E-02    8.38       1.6  T
   5    -50.6860265 -0.291274E-06  0.451E-03    8.38       4.3  T
   6    -50.6860266 -0.245566E-07  0.204E-03    8.38       9.6  T
speedup  1.02
cpu  time for SCC    0.01 s
wall time for SCC    0.01 s
speedup  0.97
cpu  time for grad    0.01 s
wall time for grad    0.01 s
 E :    -50.42746748  G :  0.036038    pred/act E change: -0.571D-02 -0.194D-02
Maxdispl :   0.1192   ||displ|| :   0.1790   Lambda : -0.163D-02
Largest |displ|/coords:  0.1192 (   5)  0.0668 (  20)  0.0495 (  22)
................................................................................
.............................. CYCLE   24 ......................................
................................................................................
   1    -50.6896509 -0.506897E+02  0.134E-01    8.42       0.0  T
   2    -50.6896693 -0.184535E-04  0.994E-02    8.41       1.0  T
   3    -50.6896823 -0.129576E-04  0.266E-02    8.40       1.0  T
   4    -50.6896842 -0.193680E-05  0.680E-03    8.40       2.9  T
   5    -50.6896843 -0.111806E-06  0.266E-03    8.40       7.4  T
   6    -50.6896843 -0.787318E-08  0.130E-03    8.40      15.1  T
speedup  1.02
cpu  time for SCC    0.01 s
wall time for SCC    0.01 s
speedup  1.05
cpu  time for grad    0.01 s
wall time for grad    0.01 s
 E :    -50.42854945  G :  0.031557    pred/act E change: -0.281D-02 -0.108D-02
Maxdispl :   0.1270   ||displ|| :   0.2943   Lambda : -0.312D-02
Largest |displ|/coords:  0.1270 (   4)  0.1176 (   1)  0.0835 (  15)
................................................................................
.............................. CYCLE   25 ......................................
................................................................................
   1    -50.6865475 -0.506865E+02  0.208E-01    8.44       0.0  T
   2    -50.6865988 -0.513243E-04  0.157E-01    8.44       1.0  T
   3    -50.6866380 -0.391653E-04  0.405E-02    8.44       1.0  T
   4    -50.6866437 -0.574364E-05  0.135E-02    8.44       1.5  T
   5    -50.6866441 -0.411776E-06  0.456E-03    8.44       4.3  T
   6    -50.6866442 -0.264038E-07  0.265E-03    8.44       7.4  T
speedup  0.85
cpu  time for SCC    0.00 s
wall time for SCC    0.01 s
speedup  0.99
cpu  time for grad    0.01 s
wall time for grad    0.01 s
 E :    -50.43084675  G :  0.043911    pred/act E change: -0.843D-03 -0.230D-02
Maxdispl :   0.2025   ||displ|| :   0.5059   Lambda : -0.570D-02
Largest |displ|/coords:  0.2025 (   4)  0.1461 (  15)  0.1338 (  22)

generating ANC from model Hessian ...
 Shifting diagonal of input Hessian by   4.482370294084800E-003
 Lowest  eigenvalues of input Hessian
   -0.000000   -0.000000   -0.000000   -0.000000    0.000000    0.000000
    0.005000    0.005419    0.006213    0.006777    0.007004    0.007591
    0.009044    0.009954    0.010530    0.011377    0.012609    0.014151
 Highest eigenvalues
    1.402906    1.408937    1.431141    2.757488    3.207989    3.816497
 
cpu  time for ANC gen    0.03 s
wall time for ANC gen    0.03 s
................................................................................
.............................. CYCLE   26 ......................................
................................................................................
   1    -50.6910207 -0.506910E+02  0.370E-01    8.53       0.0  T
   2    -50.6912245 -0.203741E-03  0.281E-01    8.55       1.0  T
   3    -50.6913830 -0.158466E-03  0.842E-02    8.59       1.0  T
   4    -50.6914059 -0.229718E-04  0.309E-02    8.59       1.0  T
   5    -50.6914079 -0.201448E-05  0.888E-03    8.59       2.2  T
   6    -50.6914080 -0.887769E-07  0.544E-03    8.59       3.6  T
   7    -50.6914081 -0.484459E-07  0.104E-03    8.59      18.8  T
   8    -50.6914081 -0.337745E-08  0.340E-04    8.59      57.7  T
   9    -50.6914081 -0.275392E-09  0.125E-04    8.59     157.4  T
speedup  0.98
cpu  time for SCC    0.01 s
wall time for SCC    0.01 s
speedup  0.99
cpu  time for grad    0.02 s
wall time for grad    0.02 s
 E :    -50.43547610  G :  0.056166    pred/act E change:  0.000D+00 -0.463D-02
Maxdispl :   0.1593   ||displ|| :   0.3444   Lambda : -0.612D-02
Largest |displ|/coords:  0.1593 (   9)  0.1344 (  15)  0.1318 (   8)
................................................................................
.............................. CYCLE   27 ......................................
................................................................................
   1    -50.7008674 -0.507009E+02  0.231E-01    8.60       0.0  T
   2    -50.7008893 -0.218804E-04  0.174E-01    8.59       1.0  T
   3    -50.7009026 -0.133198E-04  0.262E-02    8.59       1.0  T
   4    -50.7009060 -0.335208E-05  0.731E-03    8.59       2.7  T
   5    -50.7009061 -0.852907E-07  0.305E-03    8.59       6.4  T
   6    -50.7009061 -0.755502E-08  0.161E-03    8.59      12.2  T
speedup  0.88
cpu  time for SCC    0.00 s
wall time for SCC    0.01 s
speedup  0.99
cpu  time for grad    0.01 s
wall time for grad    0.01 s
 E :    -50.43955995  G :  0.032151    pred/act E change:  0.000D+00 -0.408D-02
Maxdispl :   0.1556   ||displ|| :   0.3845   Lambda : -0.447D-02
Largest |displ|/coords:  0.1556 (   7)  0.1467 (  20)  0.1179 (  26)
................................................................................
.............................. CYCLE   28 ......................................
................................................................................
   1    -50.7102812 -0.507103E+02  0.294E-01    8.61       0.0  T
   2    -50.7103141 -0.329298E-04  0.222E-01    8.62       1.0  T
   3    -50.7103410 -0.268853E-04  0.343E-02    8.64       1.0  T
   4    -50.7103455 -0.446169E-05  0.128E-02    8.64       1.5  T
   5    -50.7103457 -0.289104E-06  0.436E-03    8.63       4.5  T
   6    -50.7103458 -0.216186E-07  0.250E-03    8.63       7.8  T
speedup  1.03
cpu  time for SCC    0.01 s
wall time for SCC    0.01 s
speedup  0.99
cpu  time for grad    0.01 s
wall time for grad    0.01 s
 E :    -50.44187345  G :  0.033544    pred/act E change: -0.342D-02 -0.231D-02
Maxdispl :   0.1372   ||displ|| :   0.3800   Lambda : -0.307D-02
Largest |displ|/coords:  0.1372 (  15)  0.1365 (  20)  0.1328 (   7)
................................................................................
.............................. CYCLE   29 ......................................
................................................................................
   1    -50.7128619 -0.507129E+02  0.247E-01    8.62       0.0  T
   2    -50.7129037 -0.417567E-04  0.187E-01    8.64       1.0  T
   3    -50.7129285 -0.248795E-04  0.351E-02    8.70       1.0  T
   4    -50.7129353 -0.672199E-05  0.128E-02    8.69       1.5  T
   5    -50.7129356 -0.382280E-06  0.474E-03    8.68       4.1  T
   6    -50.7129357 -0.273093E-07  0.283E-03    8.68       6.9  T
speedup  1.02
cpu  time for SCC    0.01 s
wall time for SCC    0.01 s
speedup  0.98
cpu  time for grad    0.01 s
wall time for grad    0.01 s
 E :    -50.44418453  G :  0.032779    pred/act E change: -0.256D-02 -0.231D-02
Maxdispl :   0.1733   ||displ|| :   0.4340   Lambda : -0.353D-02
Largest |displ|/coords:  0.1733 (  15)  0.1570 (   8)  0.1434 (  20)
................................................................................
.............................. CYCLE   30 ......................................
................................................................................
   1    -50.7177267 -0.507177E+02  0.266E-01    8.69       0.0  T
   2    -50.7178867 -0.159995E-03  0.197E-01    8.73       1.0  T
   3    -50.7179608 -0.740426E-04  0.669E-02    8.79       1.0  T
   4    -50.7179743 -0.134862E-04  0.206E-02    8.79       1.0  T
   5    -50.7179756 -0.131065E-05  0.709E-03    8.79       2.8  T
   6    -50.7179756 -0.590714E-07  0.443E-03    8.79       4.4  T
   7    -50.7179757 -0.244314E-07  0.872E-04    8.79      22.5  T
speedup  1.04
cpu  time for SCC    0.01 s
wall time for SCC    0.01 s
speedup  1.00
cpu  time for grad    0.01 s
wall time for grad    0.01 s
 E :    -50.44647699  G :  0.027511    pred/act E change: -0.176D-02 -0.229D-02
Maxdispl :   0.1296   ||displ|| :   0.2802   Lambda : -0.196D-02
Largest |displ|/coords:  0.1296 (  27)  0.0972 (   7)  0.0959 (  20)
................................................................................
.............................. CYCLE   31 ......................................
................................................................................
   1    -50.7207576 -0.507208E+02  0.205E-01    8.80       0.0  T
   2    -50.7208574 -0.998189E-04  0.153E-01    8.81       1.0  T
   3    -50.7209086 -0.511962E-04  0.518E-02    8.83       1.0  T
   4    -50.7209174 -0.877371E-05  0.170E-02    8.83       1.2  T
   5    -50.7209182 -0.779665E-06  0.591E-03    8.83       3.3  T
   6    -50.7209182 -0.417005E-07  0.347E-03    8.83       5.6  T
speedup  1.00
cpu  time for SCC    0.01 s
wall time for SCC    0.01 s
speedup  1.05
cpu  time for grad    0.01 s
wall time for grad    0.01 s
 E :    -50.44781484  G :  0.025924    pred/act E change: -0.210D-02 -0.134D-02
Maxdispl :   0.1609   ||displ|| :   0.3162   Lambda : -0.232D-02
Largest |displ|/coords:  0.1609 (  27)  0.0926 (  15)  0.0734 (  14)
................................................................................
.............................. CYCLE   32 ......................................
................................................................................
   1    -50.7293547 -0.507294E+02  0.248E-01    8.88       0.0  T
   2    -50.7294847 -0.129976E-03  0.185E-01    8.88       1.0  T
   3    -50.7295579 -0.732357E-04  0.626E-02    8.86       1.0  T
   4    -50.7295696 -0.117028E-04  0.213E-02    8.87       1.0  T
   5    -50.7295707 -0.104880E-05  0.675E-03    8.87       2.9  T
   6    -50.7295707 -0.529458E-07  0.409E-03    8.87       4.8  T
   7    -50.7295708 -0.237634E-07  0.951E-04    8.87      20.6  T
speedup  1.08
cpu  time for SCC    0.01 s
wall time for SCC    0.01 s
speedup  1.01
cpu  time for grad    0.01 s
wall time for grad    0.01 s
 E :    -50.44870829  G :  0.041599    pred/act E change: -0.106D-02 -0.893D-03
Maxdispl :   0.1241   ||displ|| :   0.3196   Lambda : -0.288D-02
Largest |displ|/coords:  0.1241 (  27)  0.1174 (  15)  0.1013 (  14)
................................................................................
.............................. CYCLE   33 ......................................
................................................................................
   1    -50.7295267 -0.507295E+02  0.249E-01    8.83       0.0  T
   2    -50.7295843 -0.575936E-04  0.189E-01    8.83       1.0  T
   3    -50.7296290 -0.447392E-04  0.455E-02    8.81       1.0  T
   4    -50.7296364 -0.745216E-05  0.168E-02    8.82       1.2  T
   5    -50.7296369 -0.473682E-06  0.587E-03    8.82       3.3  T
   6    -50.7296370 -0.435070E-07  0.349E-03    8.82       5.6  T
speedup  1.05
cpu  time for SCC    0.01 s
wall time for SCC    0.01 s
speedup  1.00
cpu  time for grad    0.01 s
wall time for grad    0.01 s
 E :    -50.45000176  G :  0.035216    pred/act E change: -0.128D-02 -0.129D-02
Maxdispl :   0.1552   ||displ|| :   0.2859   Lambda : -0.314D-02
Largest |displ|/coords:  0.1552 (   8)  0.0860 (  13)  0.0783 (   6)
................................................................................
.............................. CYCLE   34 ......................................
................................................................................
   1    -50.7311546 -0.507312E+02  0.171E-01    8.84       0.0  T
   2    -50.7311724 -0.177539E-04  0.127E-01    8.84       1.0  T
   3    -50.7311835 -0.111667E-04  0.235E-02    8.83       1.0  T
   4    -50.7311855 -0.192889E-05  0.666E-03    8.83       2.9  T
   5    -50.7311856 -0.101092E-06  0.222E-03    8.83       8.8  T
   6    -50.7311856 -0.789737E-08  0.122E-03    8.83      16.1  T
speedup  0.95
cpu  time for SCC    0.01 s
wall time for SCC    0.01 s
speedup  0.97
cpu  time for grad    0.01 s
wall time for grad    0.01 s
 E :    -50.45143935  G :  0.029774    pred/act E change: -0.159D-02 -0.144D-02
Maxdispl :   0.0678   ||displ|| :   0.2097   Lambda : -0.216D-02
Largest |displ|/coords:  0.0678 (   4)  0.0605 (  12)  0.0572 (   8)
................................................................................
.............................. CYCLE   35 ......................................
................................................................................
   1    -50.7331687 -0.507332E+02  0.146E-01    8.82       0.0  T
   2    -50.7331829 -0.142232E-04  0.111E-01    8.82       1.0  T
   3    -50.7331942 -0.113148E-04  0.241E-02    8.81       1.0  T
   4    -50.7331961 -0.184020E-05  0.893E-03    8.81       2.2  T
   5    -50.7331962 -0.106221E-06  0.233E-03    8.81       8.4  T
   6    -50.7331962 -0.726579E-08  0.142E-03    8.81      13.8  T
speedup  1.07
cpu  time for SCC    0.01 s
wall time for SCC    0.01 s
speedup  1.02
cpu  time for grad    0.01 s
wall time for grad    0.01 s
 E :    -50.45284922  G :  0.012631    pred/act E change: -0.170D-02 -0.141D-02
Maxdispl :   0.0954   ||displ|| :   0.2895   Lambda : -0.131D-02
Largest |displ|/coords:  0.0954 (  14)  0.0796 (   8)  0.0785 (   7)
................................................................................
.............................. CYCLE   36 ......................................
................................................................................
   1    -50.7386334 -0.507386E+02  0.165E-01    8.82       0.0  T
   2    -50.7386522 -0.188241E-04  0.126E-01    8.81       1.0  T
   3    -50.7386665 -0.142978E-04  0.314E-02    8.80       1.0  T
   4    -50.7386690 -0.251557E-05  0.108E-02    8.81       1.8  T
   5    -50.7386692 -0.137748E-06  0.258E-03    8.81       7.6  T
   6    -50.7386692 -0.650112E-08  0.167E-03    8.81      11.8  T
speedup  1.00
cpu  time for SCC    0.01 s
wall time for SCC    0.01 s
speedup  0.98
cpu  time for grad    0.01 s
wall time for grad    0.01 s
 E :    -50.45358185  G :  0.015401    pred/act E change: -0.113D-02 -0.733D-03
Maxdispl :   0.1197   ||displ|| :   0.3141   Lambda : -0.108D-02
Largest |displ|/coords:  0.1197 (   7)  0.1065 (   4)  0.0966 (   8)
................................................................................
.............................. CYCLE   37 ......................................
................................................................................
   1    -50.7344681 -0.507345E+02  0.154E-01    8.80       0.0  T
   2    -50.7344795 -0.113269E-04  0.115E-01    8.80       1.0  T
   3    -50.7344850 -0.550648E-05  0.259E-02    8.80       1.0  T
   4    -50.7344866 -0.166579E-05  0.595E-03    8.80       3.3  T
   5    -50.7344867 -0.590618E-07  0.170E-03    8.80      11.5  T
   6    -50.7344867 -0.297867E-08  0.874E-04    8.80      22.4  T
speedup  1.07
cpu  time for SCC    0.01 s
wall time for SCC    0.01 s
speedup  1.01
cpu  time for grad    0.01 s
wall time for grad    0.01 s
 E :    -50.45404040  G :  0.013271    pred/act E change: -0.709D-03 -0.459D-03
Maxdispl :   0.0672   ||displ|| :   0.1670   Lambda : -0.701D-03
Largest |displ|/coords:  0.0672 (   7)  0.0583 (  23)  0.0421 (  18)
................................................................................
.............................. CYCLE   38 ......................................
................................................................................
   1    -50.7373446 -0.507373E+02  0.989E-02    8.82       0.0  T
   2    -50.7373511 -0.654377E-05  0.740E-02    8.82       1.0  T
   3    -50.7373552 -0.408423E-05  0.182E-02    8.81       1.1  T
   4    -50.7373561 -0.836622E-06  0.577E-03    8.82       3.4  T
   5    -50.7373561 -0.536519E-07  0.160E-03    8.82      12.3  T
   6    -50.7373561 -0.261264E-08  0.910E-04    8.82      21.6  T
speedup  1.03
cpu  time for SCC    0.01 s
wall time for SCC    0.01 s
speedup  0.99
cpu  time for grad    0.01 s
wall time for grad    0.01 s
 E :    -50.45443836  G :  0.009849    pred/act E change: -0.592D-03 -0.398D-03
Maxdispl :   0.0855   ||displ|| :   0.2090   Lambda : -0.484D-03
Largest |displ|/coords:  0.0855 (  27)  0.0767 (  23)  0.0624 (  10)
................................................................................
.............................. CYCLE   39 ......................................
................................................................................
   1    -50.7378257 -0.507378E+02  0.132E-01    8.83       0.0  T
   2    -50.7378330 -0.725583E-05  0.989E-02    8.83       1.0  T
   3    -50.7378382 -0.521719E-05  0.159E-02    8.82       1.2  T
   4    -50.7378392 -0.974094E-06  0.517E-03    8.82       3.8  T
   5    -50.7378392 -0.374719E-07  0.167E-03    8.82      11.7  T
   6    -50.7378392 -0.245473E-08  0.872E-04    8.82      22.5  T
speedup  0.89
cpu  time for SCC    0.00 s
wall time for SCC    0.01 s
speedup  1.01
cpu  time for grad    0.01 s
wall time for grad    0.01 s
 E :    -50.45468636  G :  0.014565    pred/act E change: -0.360D-03 -0.248D-03
Maxdispl :   0.0810   ||displ|| :   0.2189   Lambda : -0.430D-03
Largest |displ|/coords:  0.0810 (  23)  0.0744 (   6)  0.0628 (   5)
................................................................................
.............................. CYCLE   40 ......................................
................................................................................
   1    -50.7373683 -0.507374E+02  0.128E-01    8.84       0.0  T
   2    -50.7373744 -0.607884E-05  0.961E-02    8.83       1.0  T
   3    -50.7373809 -0.657138E-05  0.155E-02    8.83       1.3  T
   4    -50.7373815 -0.560066E-06  0.549E-03    8.83       3.6  T
   5    -50.7373815 -0.486431E-07  0.172E-03    8.83      11.4  T
   6    -50.7373815 -0.483452E-08  0.105E-03    8.83      18.7  T
speedup  1.02
cpu  time for SCC    0.01 s
wall time for SCC    0.01 s
speedup  0.99
cpu  time for grad    0.01 s
wall time for grad    0.01 s
 E :    -50.45488124  G :  0.009069    pred/act E change: -0.253D-03 -0.195D-03
Maxdispl :   0.0637   ||displ|| :   0.1326   Lambda : -0.251D-03
Largest |displ|/coords:  0.0637 (   2)  0.0521 (  23)  0.0514 (  27)
................................................................................
.............................. CYCLE   41 ......................................
................................................................................
   1    -50.7373793 -0.507374E+02  0.825E-02    8.84       0.0  T
   2    -50.7373808 -0.158465E-05  0.619E-02    8.84       1.0  T
   3    -50.7373820 -0.119946E-05  0.722E-03    8.83       2.7  T
   4    -50.7373823 -0.223917E-06  0.256E-03    8.83       7.7  T
   5    -50.7373823 -0.780973E-08  0.755E-04    8.83      26.0  T
speedup  0.85
cpu  time for SCC    0.00 s
wall time for SCC    0.00 s
speedup  0.93
cpu  time for grad    0.01 s
wall time for grad    0.01 s
 E :    -50.45503915  G :  0.005432    pred/act E change: -0.226D-03 -0.158D-03
Maxdispl :   0.0500   ||displ|| :   0.1186   Lambda : -0.170D-03
Largest |displ|/coords:  0.0500 (   2)  0.0381 (  27)  0.0366 (   5)
................................................................................
.............................. CYCLE   42 ......................................
................................................................................
   1    -50.7375816 -0.507376E+02  0.723E-02    8.84       0.0  T
   2    -50.7375830 -0.141423E-05  0.541E-02    8.84       1.0  T
   3    -50.7375841 -0.104847E-05  0.761E-03    8.83       2.6  T
   4    -50.7375843 -0.182283E-06  0.246E-03    8.83       8.0  T
   5    -50.7375843 -0.652852E-08  0.576E-04    8.83      34.0  T
speedup  1.04
cpu  time for SCC    0.00 s
wall time for SCC    0.00 s
speedup  1.00
cpu  time for grad    0.01 s
wall time for grad    0.01 s
 E :    -50.45514860  G :  0.005059    pred/act E change: -0.128D-03 -0.109D-03
Maxdispl :   0.0440   ||displ|| :   0.1209   Lambda : -0.108D-03
Largest |displ|/coords:  0.0440 (   3)  0.0376 (   2)  0.0350 (   7)
................................................................................
.............................. CYCLE   43 ......................................
................................................................................
   1    -50.7380766 -0.507381E+02  0.696E-02    8.84       0.0  T
   2    -50.7380779 -0.127486E-05  0.523E-02    8.84       1.0  T
   3    -50.7380790 -0.113946E-05  0.736E-03    8.84       2.7  T
   4    -50.7380791 -0.138448E-06  0.263E-03    8.84       7.5  T
   5    -50.7380791 -0.716545E-08  0.609E-04    8.84      32.2  T
speedup  1.06
cpu  time for SCC    0.00 s
wall time for SCC    0.00 s
speedup  0.99
cpu  time for grad    0.01 s
wall time for grad    0.01 s
 E :    -50.45522107  G :  0.005134    pred/act E change: -0.861D-04 -0.725D-04
Maxdispl :   0.0518   ||displ|| :   0.1226   Lambda : -0.823D-04
Largest |displ|/coords:  0.0518 (   3)  0.0380 (   7)  0.0378 (   6)
................................................................................
.............................. CYCLE   44 ......................................
................................................................................
   1    -50.7385950 -0.507386E+02  0.703E-02    8.84       0.0  T
   2    -50.7385963 -0.130249E-05  0.529E-02    8.84       1.0  T
   3    -50.7385973 -0.995758E-06  0.800E-03    8.84       2.5  T
   4    -50.7385975 -0.175257E-06  0.327E-03    8.84       6.0  T
   5    -50.7385975 -0.849320E-08  0.607E-04    8.84      32.3  T
   6    -50.7385975 -0.491859E-09  0.390E-04    8.84      50.3  T
speedup  1.05
cpu  time for SCC    0.01 s
wall time for SCC    0.01 s
speedup  1.00
cpu  time for grad    0.01 s
wall time for grad    0.01 s
 E :    -50.45527794  G :  0.003829    pred/act E change: -0.548D-04 -0.569D-04
Maxdispl :   0.0431   ||displ|| :   0.0894   Lambda : -0.582D-04
Largest |displ|/coords:  0.0431 (   3)  0.0355 (   7)  0.0230 (   1)
................................................................................
.............................. CYCLE   45 ......................................
................................................................................
   1    -50.7392036 -0.507392E+02  0.539E-02    8.85       0.0  T
   2    -50.7392044 -0.832037E-06  0.404E-02    8.85       1.0  T
   3    -50.7392050 -0.559953E-06  0.709E-03    8.85       2.8  T
   4    -50.7392051 -0.118086E-06  0.291E-03    8.85       6.7  T
   5    -50.7392051 -0.503731E-08  0.432E-04    8.85      45.4  T
   6    -50.7392051 -0.192621E-09  0.294E-04    8.85      66.7  T
speedup  1.07
cpu  time for SCC    0.01 s
wall time for SCC    0.01 s
speedup  1.03
cpu  time for grad    0.01 s
wall time for grad    0.01 s
 E :    -50.45531686  G :  0.002650    pred/act E change: -0.418D-04 -0.389D-04
Maxdispl :   0.0433   ||displ|| :   0.0880   Lambda : -0.416D-04
Largest |displ|/coords:  0.0433 (   1)  0.0377 (   3)  0.0306 (   7)
................................................................................
.............................. CYCLE   46 ......................................
................................................................................
   1    -50.7392025 -0.507392E+02  0.544E-02    8.85       0.0  T
   2    -50.7392034 -0.894628E-06  0.409E-02    8.85       1.0  T
   3    -50.7392038 -0.461220E-06  0.696E-03    8.85       2.8  T
   4    -50.7392040 -0.153058E-06  0.246E-03    8.85       8.0  T
   5    -50.7392040 -0.419174E-08  0.435E-04    8.85      45.1  T
   6    -50.7392040 -0.254467E-09  0.264E-04    8.85      74.2  T
speedup  1.02
cpu  time for SCC    0.01 s
wall time for SCC    0.01 s
speedup  1.01
cpu  time for grad    0.01 s
wall time for grad    0.01 s
 E :    -50.45534521  G :  0.002969    pred/act E change: -0.293D-04 -0.284D-04
Maxdispl :   0.0456   ||displ|| :   0.0848   Lambda : -0.463D-04
Largest |displ|/coords:  0.0456 (   1)  0.0270 (   3)  0.0255 (  11)
................................................................................
.............................. CYCLE   47 ......................................
................................................................................
   1    -50.7394143 -0.507394E+02  0.573E-02    8.85       0.0  T
   2    -50.7394152 -0.902628E-06  0.430E-02    8.85       1.0  T
   3    -50.7394158 -0.557157E-06  0.720E-03    8.85       2.7  T
   4    -50.7394159 -0.133309E-06  0.270E-03    8.85       7.3  T
   5    -50.7394159 -0.501659E-08  0.416E-04    8.85      47.2  T
   6    -50.7394159 -0.216076E-09  0.261E-04    8.85      75.3  T
speedup  1.09
cpu  time for SCC    0.01 s
wall time for SCC    0.01 s
speedup  1.05
cpu  time for grad    0.01 s
wall time for grad    0.01 s
 E :    -50.45537849  G :  0.003725    pred/act E change: -0.209D-04 -0.333D-04
Maxdispl :   0.0909   ||displ|| :   0.1325   Lambda : -0.577D-04
Largest |displ|/coords:  0.0909 (   1)  0.0344 (   3)  0.0293 (  16)
................................................................................
.............................. CYCLE   48 ......................................
................................................................................
   1    -50.7388576 -0.507389E+02  0.801E-02    8.84       0.0  T
   2    -50.7388593 -0.168006E-05  0.606E-02    8.84       1.0  T
   3    -50.7388605 -0.119922E-05  0.841E-03    8.84       2.3  T
   4    -50.7388608 -0.255247E-06  0.311E-03    8.84       6.3  T
   5    -50.7388608 -0.755809E-08  0.598E-04    8.84      32.8  T
   6    -50.7388608 -0.427995E-09  0.360E-04    8.84      54.5  T
speedup  1.09
cpu  time for SCC    0.01 s
wall time for SCC    0.01 s
speedup  0.97
cpu  time for grad    0.01 s
wall time for grad    0.01 s
 E :    -50.45542079  G :  0.004731    pred/act E change: -0.233D-04 -0.423D-04
Maxdispl :   0.1166   ||displ|| :   0.1686   Lambda : -0.764D-04
Largest |displ|/coords:  0.1166 (   1)  0.0458 (   3)  0.0388 (  10)
................................................................................
.............................. CYCLE   49 ......................................
................................................................................
   1    -50.7386711 -0.507387E+02  0.933E-02    8.82       0.0  T
   2    -50.7386732 -0.210390E-05  0.706E-02    8.82       1.0  T
   3    -50.7386752 -0.196384E-05  0.882E-03    8.82       2.2  T
   4    -50.7386754 -0.232948E-06  0.326E-03    8.82       6.0  T
   5    -50.7386755 -0.116223E-07  0.707E-04    8.82      27.8  T
   6    -50.7386755 -0.548710E-09  0.441E-04    8.82      44.5  T
speedup  1.02
cpu  time for SCC    0.01 s
wall time for SCC    0.01 s
speedup  0.99
cpu  time for grad    0.01 s
wall time for grad    0.01 s
 E :    -50.45547289  G :  0.005767    pred/act E change: -0.294D-04 -0.521D-04
Maxdispl :   0.1180   ||displ|| :   0.1715   Lambda : -0.767D-04
Largest |displ|/coords:  0.1180 (   1)  0.0620 (   4)  0.0444 (   3)
................................................................................
.............................. CYCLE   50 ......................................
................................................................................
   1    -50.7375104 -0.507375E+02  0.934E-02    8.80       0.0  T
   2    -50.7375122 -0.181309E-05  0.709E-02    8.80       1.0  T
   3    -50.7375143 -0.212298E-05  0.713E-03    8.80       2.8  T
   4    -50.7375145 -0.135088E-06  0.290E-03    8.80       6.8  T
   5    -50.7375145 -0.788081E-08  0.705E-04    8.80      27.8  T
speedup  1.06
cpu  time for SCC    0.00 s
wall time for SCC    0.00 s
speedup  1.01
cpu  time for grad    0.01 s
wall time for grad    0.01 s
 E :    -50.45552798  G :  0.006541    pred/act E change: -0.393D-04 -0.551D-04
Maxdispl :   0.1122   ||displ|| :   0.1828   Lambda : -0.115D-03
Largest |displ|/coords:  0.1122 (   1)  0.0729 (   3)  0.0594 (   4)
................................................................................
.............................. CYCLE   51 ......................................
................................................................................
   1    -50.7381480 -0.507381E+02  0.104E-01    8.79       0.0  T
   2    -50.7381502 -0.221501E-05  0.782E-02    8.79       1.0  T
   3    -50.7381528 -0.265869E-05  0.934E-03    8.79       2.1  T
   4    -50.7381530 -0.138087E-06  0.252E-03    8.79       7.8  T
   5    -50.7381530 -0.111107E-07  0.877E-04    8.79      22.4  T
speedup  1.02
cpu  time for SCC    0.01 s
wall time for SCC    0.00 s
speedup  0.98
cpu  time for grad    0.01 s
wall time for grad    0.01 s
 E :    -50.45559922  G :  0.006680    pred/act E change: -0.395D-04 -0.712D-04
Maxdispl :   0.1132   ||displ|| :   0.2004   Lambda : -0.900D-04
Largest |displ|/coords:  0.1132 (   1)  0.0860 (   3)  0.0827 (   4)
................................................................................
.............................. CYCLE   52 ......................................
................................................................................
   1    -50.7372228 -0.507372E+02  0.114E-01    8.77       0.0  T
   2    -50.7372263 -0.351468E-05  0.863E-02    8.77       1.0  T
   3    -50.7372295 -0.317357E-05  0.109E-02    8.78       1.8  T
   4    -50.7372300 -0.445985E-06  0.442E-03    8.78       4.4  T
   5    -50.7372300 -0.178593E-07  0.920E-04    8.78      21.3  T
   6    -50.7372300 -0.111661E-08  0.576E-04    8.78      34.0  T
speedup  1.07
cpu  time for SCC    0.01 s
wall time for SCC    0.01 s
speedup  1.01
cpu  time for grad    0.01 s
wall time for grad    0.01 s
 E :    -50.45566279  G :  0.006913    pred/act E change: -0.593D-04 -0.636D-04
Maxdispl :   0.0827   ||displ|| :   0.1508   Lambda : -0.137D-03
Largest |displ|/coords:  0.0827 (   3)  0.0691 (   4)  0.0384 (   1)

generating ANC from model Hessian ...
 Shifting diagonal of input Hessian by   4.548253290734159E-003
 Lowest  eigenvalues of input Hessian
   -0.000000   -0.000000   -0.000000   -0.000000    0.000000    0.000000
    0.005000    0.005131    0.006097    0.006447    0.007469    0.008114
    0.008773    0.009028    0.010227    0.010960    0.011332    0.012377
 Highest eigenvalues
    1.390721    1.400176    1.452548    2.624070    3.219400    3.734797
 
cpu  time for ANC gen    0.03 s
wall time for ANC gen    0.03 s
................................................................................
.............................. CYCLE   53 ......................................
................................................................................
   1    -50.7385001 -0.507385E+02  0.997E-02    8.81       0.0  T
   2    -50.7385039 -0.382643E-05  0.750E-02    8.81       1.0  T
   3    -50.7385065 -0.260222E-05  0.133E-02    8.81       1.5  T
   4    -50.7385071 -0.587905E-06  0.471E-03    8.81       4.2  T
   5    -50.7385071 -0.229336E-07  0.978E-04    8.81      20.0  T
   6    -50.7385071 -0.115639E-08  0.639E-04    8.81      30.7  T
speedup  0.86
cpu  time for SCC    0.00 s
wall time for SCC    0.01 s
speedup  0.95
cpu  time for grad    0.01 s
wall time for grad    0.01 s
 E :    -50.45574574  G :  0.005725    pred/act E change:  0.000D+00 -0.829D-04
Maxdispl :   0.0509   ||displ|| :   0.0755   Lambda : -0.105D-03
Largest |displ|/coords:  0.0509 (  11)  0.0309 (   6)  0.0212 (   2)
................................................................................
.............................. CYCLE   54 ......................................
................................................................................
   1    -50.7386116 -0.507386E+02  0.568E-02    8.83       0.0  T
   2    -50.7386122 -0.618048E-06  0.425E-02    8.83       1.0  T
   3    -50.7386127 -0.483559E-06  0.599E-03    8.82       3.3  T
   4    -50.7386127 -0.815036E-07  0.175E-03    8.82      11.2  T
   5    -50.7386127 -0.406255E-08  0.506E-04    8.83      38.8  T
speedup  1.00
cpu  time for SCC    0.00 s
wall time for SCC    0.01 s
speedup  1.05
cpu  time for grad    0.01 s
wall time for grad    0.01 s
 E :    -50.45581199  G :  0.003274    pred/act E change:  0.000D+00 -0.662D-04
Maxdispl :   0.1158   ||displ|| :   0.1664   Lambda : -0.169D-03
Largest |displ|/coords:  0.1158 (  11)  0.0590 (   8)  0.0424 (   6)
................................................................................
.............................. CYCLE   55 ......................................
................................................................................
   1    -50.7388540 -0.507389E+02  0.113E-01    8.85       0.0  T
   2    -50.7388566 -0.261683E-05  0.833E-02    8.85       1.0  T
   3    -50.7388582 -0.160388E-05  0.136E-02    8.85       1.4  T
   4    -50.7388585 -0.355793E-06  0.376E-03    8.85       5.2  T
   5    -50.7388585 -0.201849E-07  0.940E-04    8.85      20.9  T
   6    -50.7388585 -0.151104E-08  0.620E-04    8.85      31.6  T
speedup  1.00
cpu  time for SCC    0.01 s
wall time for SCC    0.01 s
speedup  0.95
cpu  time for grad    0.01 s
wall time for grad    0.01 s
 E :    -50.45589586  G :  0.004824    pred/act E change: -0.527D-04 -0.839D-04
Maxdispl :   0.0585   ||displ|| :   0.1078   Lambda : -0.775D-04
Largest |displ|/coords:  0.0585 (  11)  0.0476 (   6)  0.0370 (   8)
................................................................................
.............................. CYCLE   56 ......................................
................................................................................
   1    -50.7391866 -0.507392E+02  0.690E-02    8.85       0.0  T
   2    -50.7391875 -0.846106E-06  0.509E-02    8.85       1.0  T
   3    -50.7391882 -0.748161E-06  0.825E-03    8.85       2.4  T
   4    -50.7391883 -0.837717E-07  0.203E-03    8.85       9.6  T
   5    -50.7391883 -0.781787E-08  0.584E-04    8.85      33.6  T
speedup  1.04
cpu  time for SCC    0.00 s
wall time for SCC    0.00 s
speedup  1.00
cpu  time for grad    0.01 s
wall time for grad    0.01 s
 E :    -50.45595646  G :  0.004793    pred/act E change: -0.867D-04 -0.606D-04
Maxdispl :   0.1690   ||displ|| :   0.3004   Lambda : -0.188D-03
Largest |displ|/coords:  0.1690 (  11)  0.1385 (   6)  0.1124 (   8)
................................................................................
.............................. CYCLE   57 ......................................
................................................................................
   1    -50.7392305 -0.507392E+02  0.197E-01    8.82       0.0  T
   2    -50.7392380 -0.750398E-05  0.145E-01    8.82       1.0  T
   3    -50.7392447 -0.667044E-05  0.256E-02    8.82       1.0  T
   4    -50.7392454 -0.740214E-06  0.618E-03    8.82       3.2  T
   5    -50.7392455 -0.725079E-07  0.186E-03    8.82      10.5  T
   6    -50.7392455 -0.586766E-08  0.116E-03    8.82      16.9  T
speedup  1.05
cpu  time for SCC    0.01 s
wall time for SCC    0.01 s
speedup  1.06
cpu  time for grad    0.01 s
wall time for grad    0.01 s
 E :    -50.45607421  G :  0.006263    pred/act E change: -0.392D-04 -0.118D-03
Maxdispl :   0.1016   ||displ|| :   0.1986   Lambda : -0.106D-03
Largest |displ|/coords:  0.1016 (  11)  0.0875 (   6)  0.0770 (   8)
................................................................................
.............................. CYCLE   58 ......................................
................................................................................
   1    -50.7390153 -0.507390E+02  0.127E-01    8.79       0.0  T
   2    -50.7390179 -0.258888E-05  0.928E-02    8.79       1.0  T
   3    -50.7390203 -0.241264E-05  0.159E-02    8.79       1.2  T
   4    -50.7390205 -0.226208E-06  0.363E-03    8.79       5.4  T
   5    -50.7390205 -0.258183E-07  0.968E-04    8.79      20.3  T
   6    -50.7390205 -0.165002E-08  0.607E-04    8.79      32.3  T
speedup  0.85
cpu  time for SCC    0.00 s
wall time for SCC    0.01 s
speedup  0.99
cpu  time for grad    0.01 s
wall time for grad    0.01 s
 E :    -50.45615060  G :  0.007346    pred/act E change: -0.103D-03 -0.764D-04
Maxdispl :   0.0951   ||displ|| :   0.2156   Lambda : -0.147D-03
Largest |displ|/coords:  0.0951 (   6)  0.0945 (  11)  0.0790 (   1)
................................................................................
.............................. CYCLE   59 ......................................
................................................................................
   1    -50.7387201 -0.507387E+02  0.140E-01    8.76       0.0  T
   2    -50.7387240 -0.393057E-05  0.103E-01    8.76       1.0  T
   3    -50.7387273 -0.330390E-05  0.189E-02    8.76       1.0  T
   4    -50.7387277 -0.395705E-06  0.542E-03    8.76       3.6  T
   5    -50.7387278 -0.393060E-07  0.107E-03    8.76      18.3  T
   6    -50.7387278 -0.186716E-08  0.673E-04    8.76      29.2  T
speedup  0.89
cpu  time for SCC    0.01 s
wall time for SCC    0.01 s
speedup  0.95
cpu  time for grad    0.01 s
wall time for grad    0.01 s
 E :    -50.45625730  G :  0.007303    pred/act E change: -0.549D-04 -0.107D-03
Maxdispl :   0.0880   ||displ|| :   0.2103   Lambda : -0.145D-03
Largest |displ|/coords:  0.0880 (   6)  0.0871 (  11)  0.0793 (   1)
................................................................................
.............................. CYCLE   60 ......................................
................................................................................
   1    -50.7381509 -0.507382E+02  0.145E-01    8.75       0.0  T
   2    -50.7381552 -0.428709E-05  0.106E-01    8.75       1.0  T
   3    -50.7381585 -0.337429E-05  0.184E-02    8.74       1.1  T
   4    -50.7381590 -0.470187E-06  0.606E-03    8.75       3.2  T
   5    -50.7381590 -0.365117E-07  0.104E-03    8.74      18.9  T
   6    -50.7381590 -0.162525E-08  0.639E-04    8.74      30.7  T
speedup  1.07
cpu  time for SCC    0.01 s
wall time for SCC    0.01 s
speedup  1.01
cpu  time for grad    0.01 s
wall time for grad    0.01 s
 E :    -50.45635950  G :  0.006918    pred/act E change: -0.771D-04 -0.102D-03
Maxdispl :   0.0499   ||displ|| :   0.1406   Lambda : -0.129D-03
Largest |displ|/coords:  0.0499 (   6)  0.0476 (   2)  0.0434 (   9)
................................................................................
.............................. CYCLE   61 ......................................
................................................................................
   1    -50.7388953 -0.507389E+02  0.101E-01    8.78       0.0  T
   2    -50.7388989 -0.357605E-05  0.742E-02    8.78       1.0  T
   3    -50.7389009 -0.201897E-05  0.153E-02    8.78       1.3  T
   4    -50.7389014 -0.477277E-06  0.531E-03    8.78       3.7  T
   5    -50.7389014 -0.201952E-07  0.750E-04    8.78      26.2  T
   6    -50.7389014 -0.822297E-09  0.447E-04    8.78      43.9  T
speedup  1.07
cpu  time for SCC    0.01 s
wall time for SCC    0.01 s
speedup  1.01
cpu  time for grad    0.01 s
wall time for grad    0.01 s
 E :    -50.45644245  G :  0.005980    pred/act E change: -0.755D-04 -0.829D-04
Maxdispl :   0.2167   ||displ|| :   0.4307   Lambda : -0.197D-03
Largest |displ|/coords:  0.2167 (  11)  0.2006 (   6)  0.1301 (   2)
................................................................................
.............................. CYCLE   62 ......................................
................................................................................
   1    -50.7344954 -0.507345E+02  0.329E-01    8.67       0.0  T
   2    -50.7345138 -0.183809E-04  0.241E-01    8.67       1.0  T
   3    -50.7345321 -0.182759E-04  0.410E-02    8.67       1.0  T
   4    -50.7345334 -0.130152E-05  0.789E-03    8.67       2.5  T
   5    -50.7345335 -0.141632E-06  0.248E-03    8.67       7.9  T
   6    -50.7345335 -0.142485E-07  0.151E-03    8.67      13.0  T
speedup  1.05
cpu  time for SCC    0.01 s
wall time for SCC    0.01 s
speedup  1.01
cpu  time for grad    0.01 s
wall time for grad    0.01 s
 E :    -50.45643271  G :  0.012928    pred/act E change: -0.660D-04  0.974D-05
Maxdispl :   0.1025   ||displ|| :   0.1926   Lambda : -0.338D-03
Largest |displ|/coords:  0.1025 (  11)  0.0833 (   6)  0.0709 (   1)
................................................................................
.............................. CYCLE   63 ......................................
................................................................................
   1    -50.7387277 -0.507387E+02  0.134E-01    8.81       0.0  T
   2    -50.7387319 -0.422872E-05  0.963E-02    8.81       1.0  T
   3    -50.7387350 -0.309543E-05  0.190E-02    8.81       1.0  T
   4    -50.7387353 -0.339121E-06  0.431E-03    8.81       4.5  T
   5    -50.7387354 -0.366009E-07  0.120E-03    8.81      16.4  T
   6    -50.7387354 -0.230397E-08  0.701E-04    8.81      28.0  T
speedup  0.89
cpu  time for SCC    0.00 s
wall time for SCC    0.01 s
speedup  1.01
cpu  time for grad    0.01 s
wall time for grad    0.01 s
 E :    -50.45660225  G :  0.004407    pred/act E change: -0.117D-03 -0.170D-03
Maxdispl :   0.0435   ||displ|| :   0.1145   Lambda : -0.898D-04
Largest |displ|/coords:  0.0435 (   6)  0.0416 (  11)  0.0349 (  16)
................................................................................
.............................. CYCLE   64 ......................................
................................................................................
   1    -50.7394190 -0.507394E+02  0.904E-02    8.82       0.0  T
   2    -50.7394206 -0.161442E-05  0.663E-02    8.82       1.0  T
   3    -50.7394222 -0.160741E-05  0.120E-02    8.81       1.6  T
   4    -50.7394223 -0.127266E-06  0.282E-03    8.82       7.0  T
   5    -50.7394223 -0.148378E-07  0.649E-04    8.82      30.2  T
speedup  0.83
cpu  time for SCC    0.00 s
wall time for SCC    0.00 s
speedup  0.99
cpu  time for grad    0.01 s
wall time for grad    0.01 s
 E :    -50.45667655  G :  0.003178    pred/act E change: -0.175D-03 -0.743D-04
Maxdispl :   0.1679   ||displ|| :   0.3764   Lambda : -0.213D-03
Largest |displ|/coords:  0.1679 (   6)  0.1391 (  11)  0.1274 (   8)
................................................................................
.............................. CYCLE   65 ......................................
................................................................................
   1    -50.7380785 -0.507381E+02  0.306E-01    8.78       0.0  T
[...]
 E :    -50.46846349  G :  0.000906    pred/act E change: -0.237D-05 -0.182D-05
Maxdispl :   0.0102   ||displ|| :   0.0179   Lambda : -0.206D-05
Largest |displ|/coords:  0.0102 (   2)  0.0068 (  11)  0.0050 (   4)
................................................................................
.............................. CYCLE  163 ......................................
................................................................................
   1    -50.7514944 -0.507515E+02  0.847E-03    9.31       0.0  T
   2    -50.7514944 -0.318818E-07  0.634E-03    9.31       3.1  T
   3    -50.7514945 -0.151639E-07  0.117E-03    9.31      16.7  T
   4    -50.7514945 -0.476087E-08  0.440E-04    9.31      44.6  T
   5    -50.7514945 -0.231523E-09  0.859E-05    9.31     228.4  T
speedup  0.82
cpu  time for SCC    0.00 s
wall time for SCC    0.00 s
speedup  0.94
cpu  time for grad    0.01 s
wall time for grad    0.01 s
 E :    -50.46846459  G :  0.000505    pred/act E change: -0.152D-05 -0.110D-05
Maxdispl :   0.0073   ||displ|| :   0.0157   Lambda : -0.119D-05
Largest |displ|/coords:  0.0073 (   1)  0.0056 (   2)  0.0053 (  13)
................................................................................
.............................. CYCLE  164 ......................................
................................................................................
   1    -50.7514799 -0.507515E+02  0.909E-03    9.31       0.0  T
   2    -50.7514799 -0.114789E-07  0.677E-03    9.31       2.9  T
   3    -50.7514799 -0.131568E-07  0.938E-04    9.31      20.9  T
   4    -50.7514799 -0.722977E-09  0.224E-04    9.31      87.6  T
speedup  1.00
cpu  time for SCC    0.00 s
wall time for SCC    0.00 s
speedup  0.98
cpu  time for grad    0.01 s
wall time for grad    0.01 s
 E :    -50.46846544  G :  0.000542    pred/act E change: -0.103D-05 -0.850D-06
Maxdispl :   0.0083   ||displ|| :   0.0147   Lambda : -0.949D-06
Largest |displ|/coords:  0.0083 (   1)  0.0045 (  19)  0.0043 (  10)
................................................................................
.............................. CYCLE  165 ......................................
................................................................................
   1    -50.7515115 -0.507515E+02  0.754E-03    9.31       0.0  T
   2    -50.7515116 -0.106539E-07  0.559E-03    9.31       3.5  T
   3    -50.7515116 -0.106020E-07  0.931E-04    9.31      21.1  T
   4    -50.7515116 -0.100228E-08  0.246E-04    9.31      79.7  T
speedup  0.98
cpu  time for SCC    0.00 s
wall time for SCC    0.00 s
speedup  0.99
cpu  time for grad    0.01 s
wall time for grad    0.01 s
 E :    -50.46846605  G :  0.000402    pred/act E change: -0.597D-06 -0.606D-06
Maxdispl :   0.0042   ||displ|| :   0.0079   Lambda : -0.447D-06
Largest |displ|/coords:  0.0042 (   1)  0.0026 (  11)  0.0026 (   2)
................................................................................
.............................. CYCLE  166 ......................................
................................................................................
   1    -50.7515595 -0.507516E+02  0.408E-03    9.31       0.0  T
   2    -50.7515595 -0.509535E-08  0.303E-03    9.31       6.5  T
   3    -50.7515595 -0.313452E-08  0.583E-04    9.31      33.6  T
   4    -50.7515595 -0.692374E-09  0.133E-04    9.31     147.6  T
speedup  1.03
cpu  time for SCC    0.00 s
wall time for SCC    0.00 s
speedup  0.94
cpu  time for grad    0.01 s
wall time for grad    0.01 s
 E :    -50.46846638  G :  0.000257    pred/act E change: -0.474D-06 -0.326D-06
Maxdispl :   0.0065   ||displ|| :   0.0128   Lambda : -0.535D-06
Largest |displ|/coords:  0.0065 (   2)  0.0054 (   1)  0.0046 (  11)
................................................................................
.............................. CYCLE  167 ......................................
................................................................................
   1    -50.7515824 -0.507516E+02  0.654E-03    9.31       0.0  T
   2    -50.7515824 -0.119012E-07  0.490E-03    9.31       4.0  T
   3    -50.7515824 -0.736178E-08  0.777E-04    9.31      25.2  T
   4    -50.7515824 -0.187141E-08  0.205E-04    9.31      95.6  T
speedup  1.03
cpu  time for SCC    0.00 s
wall time for SCC    0.00 s
speedup  1.02
cpu  time for grad    0.01 s
wall time for grad    0.01 s
 E :    -50.46846675  G :  0.000296    pred/act E change: -0.224D-06 -0.374D-06
Maxdispl :   0.0045   ||displ|| :   0.0110   Lambda : -0.420D-06
Largest |displ|/coords:  0.0045 (   2)  0.0044 (   3)  0.0041 (  13)
................................................................................
.............................. CYCLE  168 ......................................
................................................................................
   1    -50.7516020 -0.507516E+02  0.560E-03    9.31       0.0  T
   2    -50.7516020 -0.542232E-08  0.423E-03    9.31       4.6  T
   3    -50.7516021 -0.482284E-08  0.388E-04    9.31      50.5  T
   4    -50.7516021 -0.649415E-09  0.154E-04    9.31     127.7  T
speedup  1.03
cpu  time for SCC    0.00 s
wall time for SCC    0.00 s
speedup  1.01
cpu  time for grad    0.01 s
wall time for grad    0.01 s
 E :    -50.46846707  G :  0.000356    pred/act E change: -0.268D-06 -0.316D-06
Maxdispl :   0.0061   ||displ|| :   0.0130   Lambda : -0.432D-06
Largest |displ|/coords:  0.0061 (   2)  0.0058 (   3)  0.0040 (  13)
................................................................................
.............................. CYCLE  169 ......................................
................................................................................
   1    -50.7515945 -0.507516E+02  0.672E-03    9.31       0.0  T
   2    -50.7515945 -0.614621E-08  0.507E-03    9.31       3.9  T
   3    -50.7515945 -0.628521E-08  0.472E-04    9.31      41.5  T
   4    -50.7515945 -0.592188E-09  0.173E-04    9.31     113.1  T
speedup  0.98
cpu  time for SCC    0.00 s
wall time for SCC    0.00 s
speedup  0.98
cpu  time for grad    0.01 s
wall time for grad    0.01 s
 E :    -50.46846737  G :  0.000343    pred/act E change: -0.210D-06 -0.308D-06
Maxdispl :   0.0045   ||displ|| :   0.0091   Lambda : -0.282D-06
Largest |displ|/coords:  0.0045 (   3)  0.0042 (   2)  0.0025 (   9)
................................................................................
.............................. CYCLE  170 ......................................
................................................................................
   1    -50.7515874 -0.507516E+02  0.485E-03    9.31       0.0  T
   2    -50.7515874 -0.519075E-08  0.363E-03    9.31       5.4  T
   3    -50.7515874 -0.347353E-08  0.575E-04    9.31      34.1  T
   4    -50.7515874 -0.754852E-09  0.159E-04    9.31     123.0  T
speedup  0.77
cpu  time for SCC    0.00 s
wall time for SCC    0.00 s
speedup  0.93
cpu  time for grad    0.01 s
wall time for grad    0.01 s
 E :    -50.46846758  G :  0.000246    pred/act E change: -0.216D-06 -0.205D-06
Maxdispl :   0.0041   ||displ|| :   0.0068   Lambda : -0.183D-06
Largest |displ|/coords:  0.0041 (   2)  0.0029 (   3)  0.0019 (  12)
................................................................................
.............................. CYCLE  171 ......................................
................................................................................
   1    -50.7515763 -0.507516E+02  0.390E-03    9.31       0.0  T
   2    -50.7515763 -0.440194E-08  0.291E-03    9.31       6.7  T
   3    -50.7515763 -0.262395E-08  0.522E-04    9.31      37.6  T
   4    -50.7515763 -0.627018E-09  0.156E-04    9.31     125.5  T
speedup  0.93
cpu  time for SCC    0.00 s
wall time for SCC    0.00 s
speedup  0.99
cpu  time for grad    0.01 s
wall time for grad    0.01 s
 E :    -50.46846771  G :  0.000143    pred/act E change: -0.141D-06 -0.127D-06
Maxdispl :   0.0025   ||displ|| :   0.0036   Lambda : -0.797D-07
Largest |displ|/coords:  0.0025 (   2)  0.0009 (   1)  0.0009 (  12)
................................................................................
.............................. CYCLE  172 ......................................
................................................................................
   1    -50.7515746 -0.507516E+02  0.223E-03    9.31       0.0  T
   2    -50.7515746 -0.153182E-08  0.166E-03    9.31      11.8  T
   3    -50.7515746 -0.103474E-08  0.295E-04    9.31      66.5  T
   4    -50.7515746 -0.182347E-09  0.110E-04    9.31     178.4  T
speedup  1.00
cpu  time for SCC    0.00 s
wall time for SCC    0.00 s
speedup  1.01
cpu  time for grad    0.01 s
wall time for grad    0.01 s
 E :    -50.46846776  G :  0.000086    pred/act E change: -0.917D-07 -0.543D-07
Maxdispl :   0.0019   ||displ|| :   0.0026   Lambda : -0.359D-07
Largest |displ|/coords:  0.0019 (   2)  0.0011 (   1)  0.0008 (   5)

   *** GEOMETRY OPTIMIZATION CONVERGED AFTER 172 ITERATIONS ***

------------------------------------------------------------------------
 total energy gain (kcal):     -0.2528
------------------------------------------------------------------------
================
 final structure:
================
$coord
       -2.76565441555887       -1.55590575691643        1.32783440514920      S 
       -1.25231510984489        0.01631609011169        3.08697032301381      O 
       -3.48596858754428       -3.92335302771353        2.45008452476447      O 
       -5.18746621198290       -0.00100749773794        0.70185993717737      O 
       -1.35944310270402       -1.88996498800296       -1.01889395842937      O 
        0.32020766380376       -6.12397436044657       -0.90840058930544      H 
       -4.61057633827290        1.46274902141887       -0.30113286573496      H 
        0.67113668398561       -6.22261194187370        0.87262784995506      O 
       -0.92917466324311       -5.68922722556203        1.66208264193129      H 
       -3.43346785103074        4.06870089573027       -1.68311958450793      O 
       -4.61340932519169        5.41217748026078       -1.39061074432068      H 
        4.18312416741240        1.61496413737612       -1.45874356283924      O 
        5.66605110937462        1.87833490707521       -2.46291134366669      H 
        0.27326239857194        1.27675460808622       -4.41133468317643      O 
       -0.43464923872539       -0.09774877142524       -3.37688574128208      H 
       -0.93431606391129        2.62776755198404       -4.21769093480191      H 
        2.73782210731451        1.50908489955038       -2.68363673816655      H 
        0.44878141478179        4.37350930174521        1.34686266541603      O 
       -0.19282995769212        2.89757630048608        2.27156430731424      H 
        1.96327530226803        3.79742494377273        0.50165114952353      H 
       -1.95083939685297        4.40689989797644       -0.56633006124094      H 
        3.05396409879677       -1.97953955155785        2.06015881863779      N 
        4.37140472158761       -2.14402988909131        3.44368293447460      H 
        2.39588810966193       -3.77445488496262        1.44361850985747      H 
        1.36319484744868       -1.07884451145045        2.73688214285022      H 
        3.70199759975476       -0.86159768551448        0.57381063521129      H 
$end
 
 Bond Distances (Angstroems)
 ---------------------------
S1-O2=1.4833         S1-O3=1.4379         S1-O4=1.5586         S1-O5=1.4585         O2-S1=1.4833         O3-S1=1.4379         
O4-S1=1.5586         O4-H7=0.9874         O5-S1=1.4585         H6-O8=0.9620         H7-O4=0.9874         O8-H6=0.9620         
O8-H9=0.9856         H9-O8=0.9856         O10-H11=0.9588       O10-H21=0.9984       H11-O10=0.9588       O12-H13=0.9579       
O12-H17=1.0041       H13-O12=0.9579       O14-H15=0.9844       O14-H16=0.9643       H15-O14=0.9844       H16-O14=0.9643       
H17-O12=1.0041       O18-H19=0.9822       O18-H20=0.9671       H19-O18=0.9822       H20-O18=0.9671       H21-O10=0.9984       
N22-H23=1.0147       N22-H24=1.0630       N22-H25=1.0751       N22-H26=1.0422       H23-N22=1.0147       H24-N22=1.0630       
H25-N22=1.0751       H26-N22=1.0422       
 N  H  Rav=1.0488 sigma=0.0229  Rmin=1.0147  Rmax=1.0751     4
 O  H  Rav=0.9775 sigma=0.0155  Rmin=0.9579  Rmax=1.0041    11
 S  O  Rav=1.4845 sigma=0.0457  Rmin=1.4379  Rmax=1.5586     4
 
 selected bond angles (degree)
 --------------------
O3-S1-O2=111.88                O4-S1-O2=106.33                O4-S1-O3=109.26                O5-S1-O2=109.08                
O5-S1-O3=112.42                O5-S1-O4=107.61                H7-O4-S1=105.91                H9-O8-H6=103.52                
H21-O10-H11=106.46             
 
 selected dihedral angles (degree)
 ---------------------------------
H7-O4-S1-O2= 67.93            H7-O4-S1-O3=188.84            H7-O4-S1-O5=311.16            
 
 CMA Distance (Angstroems)
 ---------------------------
R(CMA):  2.4179

========================================================================
 FINAL SINGLEPOINT CALCULATION ON OPTIMIZED GEOMETRY
========================================================================

 Ncao       : 65
 Nao        : 64
 Nshell     : 38
 Nel        : 80
 T(el)      :   300.0
 intcut     :    25.0
 scfconv/Eh :  0.100E-05
   qconv/e  :  0.100E-03
 intneglect :  0.100E-07
 broydamp   :      0.250
 iter      E             dE          RMSdq      gap      omega  full diag
   1    -50.7515746 -0.507516E+02  0.434E-05    9.31       0.0  T
   2    -50.7515746 -0.113687E-11  0.273E-05    9.31     718.4  T
   3    -50.7515746 -0.454747E-12  0.424E-06    9.31    4620.5  T
speedup  1.07
cpu  time for SCC    0.00 s
wall time for SCC    0.00 s

   *** convergence criteria satisfied after 3 iterations ***

          eigenvalues
 #    :          28         29         30         31         32         33         34         35
 occ. :        2.000      2.000      2.000      2.000      2.000      2.000      2.000      2.000
 eps  :       -13.576    -12.928    -12.658    -12.546    -12.346    -12.206    -12.132    -11.994
 #    :          36         37         38         39         40         41         42         43
 occ. :        2.000      2.000      2.000      2.000      2.000      0.000      0.000      0.000
 eps  :       -11.964    -11.907    -11.789    -11.682    -11.449     -2.142     -0.917      0.093
 #    :          44         45         46         47         48         49         50         51
 occ. :        0.000      0.000      0.000      0.000      0.000      0.000      0.000      0.000
 eps  :         0.554      1.122      1.387      1.983      2.725      3.485      4.457      5.353


   #   Z            q   n(s)   n(p)   n(d)      C6AA      α(0)
   1  16 S      1.675  1.587  1.786  0.952    89.344    15.909
   2   8 O     -0.765  1.779  4.986  0.000    30.523     7.408
   3   8 O     -0.712  1.767  4.944  0.000    29.025     7.223
   4   8 O     -0.609  1.758  4.852  0.000    25.376     6.800
   5   8 O     -0.771  1.766  5.006  0.000    30.729     7.432
   6   1 H      0.305  0.695  0.000  0.000     0.706     1.319
   7   1 H      0.375  0.625  0.000  0.000     0.528     1.139
   8   8 O     -0.596  1.739  4.856  0.000    25.084     6.760
   9   1 H      0.328  0.672  0.000  0.000     0.643     1.259
  10   8 O     -0.632  1.758  4.874  0.000    25.959     6.876
  11   1 H      0.291  0.709  0.000  0.000     0.749     1.359
  12   8 O     -0.636  1.749  4.886  0.000    26.066     6.891
  13   1 H      0.283  0.717  0.000  0.000     0.774     1.382
  14   8 O     -0.622  1.754  4.867  0.000    25.710     6.843
  15   1 H      0.334  0.666  0.000  0.000     0.628     1.244
  16   1 H      0.310  0.690  0.000  0.000     0.691     1.306
  17   1 H      0.345  0.655  0.000  0.000     0.600     1.217
  18   8 O     -0.629  1.759  4.870  0.000    25.883     6.866
  19   1 H      0.324  0.676  0.000  0.000     0.653     1.270
  20   1 H      0.314  0.686  0.000  0.000     0.680     1.295
  21   1 H      0.341  0.659  0.000  0.000     0.609     1.227
  22   7 N     -0.354  1.276  4.078  0.000    29.103     8.012
  23   1 H      0.230  0.770  0.000  0.000     0.963     1.538
  24   1 H      0.290  0.710  0.000  0.000     0.746     1.353
  25   1 H      0.293  0.707  0.000  0.000     0.733     1.340
  26   1 H      0.285  0.715  0.000  0.000     0.759     1.364

 Mol. C6AA /au·bohr⁶  :       5455.850088
 Mol. C8AA /au·bohr⁸  :     118134.444410
 Mol. α(0) /au        :        106.634078

 
 Wiberg/Mayer (AO) data. WBOs > 0.1 written file <wbo>
 largest (>0.05) Wiberg bond orders for each atom
           total WBO             WBO to atom ...
     1  S   4.854    O    3 1.380    O    5 1.291    O    2 1.182    O    4 0.958
     2  O   1.740    S    1 1.182    H   25 0.136    O    5 0.103    O    3 0.102    O    4 0.073    H   19 0.060    N   22 0.058
     3  O   1.759    S    1 1.380    O    5 0.106    O    2 0.102    O    4 0.068    H    9 0.059
     4  O   1.975    S    1 0.958    H    7 0.755    O    5 0.082    O    2 0.073    O    3 0.068
     5  O   1.679    S    1 1.291    O    3 0.106    O    2 0.103    O    4 0.082    H   15 0.062
     6  H   0.907    O    8 0.901
     7  H   0.859    O    4 0.755    O   10 0.087
     8  O   1.934    H    6 0.901    H    9 0.827    H   24 0.114    N   22 0.057
     9  H   0.892    O    8 0.827    O    3 0.059
    10  O   1.884    H   11 0.910    H   21 0.785    H    7 0.087
    11  H   0.915    O   10 0.910
    12  O   1.873    H   13 0.912    H   17 0.773    H   26 0.072
    13  H   0.920    O   12 0.912
    14  O   1.902    H   16 0.884    H   15 0.821    H   17 0.104
    15  H   0.888    O   14 0.821    O    5 0.062
    16  H   0.904    O   14 0.884
    17  H   0.881    O   12 0.773    O   14 0.104
    18  O   1.893    H   20 0.874    H   19 0.831    H   21 0.096
    19  H   0.895    O   18 0.831    O    2 0.060
    20  H   0.901    O   18 0.874
    21  H   0.883    O   10 0.785    O   18 0.096
    22  N   3.517    H   23 0.944    H   26 0.843    H   24 0.796    H   25 0.768    O    2 0.058    O    8 0.057
    23  H   0.947    N   22 0.944
    24  H   0.916    N   22 0.796    O    8 0.114
    25  H   0.914    N   22 0.768    O    2 0.136
    26  H   0.919    N   22 0.843    O   12 0.072
 MOs/occ written to file <molden.input>
 
molecular dipole:
                 x           y           z       tot (Debye)
 q only:        2.471       0.610      -0.317
   full:        1.999       0.879      -0.398       5.640
molecular quadrupole (traceless):
                xx          xy          yy          xz          yz          zz
 q only:        7.155     -12.976      -2.868       8.683      -0.070      -4.287
  q+dip:       10.507     -12.424      -5.165       7.404       0.597      -5.342
   full:       10.956     -12.830      -5.303       7.384       0.316      -5.653

SCC energy    :     -50.7515746
rep           :       0.2827746
ES            :       0.2674080
AES           :      -0.0753039
AXC           :      -0.0089823
disp          :      -0.0204667
XB            :       0.0000000
fix           :       0.0000000
total E       :     -50.4684678
atomizationE  :       4.9987719     3136.78
(atE without considering molecular charge,
 total energy contains solvation terms)
H-L gap (eV)  :          9.3066
optimized geometry written to: xtbopt.xyz


------------------------------------------------------------------------
 * finished run on 2019/09/16 at 12:14:28.798     
------------------------------------------------------------------------
 total:
 * wall-time:     0 d,  0 h,  0 min,  3.986 sec
 *  cpu-time:     0 d,  0 h,  0 min,  3.914 sec
 * ratio c/w:     0.982 speedup
 SCF:
 * wall-time:     0 d,  0 h,  0 min,  0.140 sec
 *  cpu-time:     0 d,  0 h,  0 min,  0.137 sec
 * ratio c/w:     0.975 speedup
 ANC optimizer:
 * wall-time:     0 d,  0 h,  0 min,  3.819 sec
 *  cpu-time:     0 d,  0 h,  0 min,  3.752 sec
 * ratio c/w:     0.982 speedup

