      -----------------------------------------------------------      
     |                   =====================                   |     
     |                           x T B                           |     
     |                   =====================                   |     
     |                         S. Grimme                         |     
     |          Mulliken Center for Theoretical Chemistry        |     
     |                    University of Bonn                     |     
     |                 Version 6.0.1 (SAW181210)                 |     
      -----------------------------------------------------------      

   This program is distributed in the hope that it will be useful,
   but WITHOUT ANY WARRANTY; without even the implied warranty of
   MERCHANTABILITY or FITNESS FOR A PARTICULAR PURPOSE.
   
   FOR NON-COMMERCIAL, ACADEMIA USE ONLY.
   
   Cite this work as:
   S. Grimme, C. Bannwarth, P. Shushkov, J. Comput. Theory Chem., 2017,
   13, 1989-2009.
   C. Bannwarth, S. Ehlert and S. Grimme., ChemRxiv, 2018, preprint.
   http://doi.org/10.26434/chemrxiv.7246238.v1
   
   for sTDA-xTB:
   S. Grimme and C. Bannwarth, J. Chem. Phys., 2016, 145, 054103.
   
   in the mass-spec context:
   V. Asgeirsson, C. Bauer and S. Grimme, Chem. Sci., 2017, 8, 4879.
   
   if GBSA is used:
   P. Shushkov, F. März and S. Grimme, unpublished.
   
   for ANC optimizer:
   S. Grimme, unpublished.
   Rational Function algorithm used in ANCopt:
   F. Eckert, P. Pulay, H.-J. Werner, J. Comput. Chem., 1997, 18, 1473.
   
   with help from (in alphabetical order)
   C. Bannwarth, F. Bohle, G. Brandenburg, E. Caldeweyher, M. Checinski,
   S. Dohm, S. Ehlert, S. Ehrlich, F. März, H. Neugebauer, J. Pisarek,
   P. Pracht, P. Shushkov, and S. Spicher.
   
 * started run on 2019/09/16 at 11:27:52.543     
========================================================================
 # omp threads = 1
========================================================================
number of atoms            : 26
number of electrons        : 80
charge                     : 0
spin                       : .0
first test random number   : .3862

########################################################################
# WARNING! Please study the warnings concerning your input carefully
#  - XTBPATH is not set, using XTBHOME instead
#  - the use of '-opt' is discouraged, please use '--opt' next time
#  - the use of '-chrg' is discouraged, please use '--chrg' next time
#  - the use of '-uhf' is discouraged, please use '--uhf' next time
########################################################################

           ------------------------------------------------- 
          |                 G F N 2 - x T B                 |
          | Geometry, Frequencies, Noncovalent interactions |
          |            JCTC 2018 parametrisation            |
           ------------------------------------------------- 
      method parameters     
 k(s)        :  1.8500
 k(p)        :  2.2300
 k(d)        :  2.2300
 k(f)        :  2.0000
 kEN (H0ij)  : -2.0000
 D4 a1       :  0.5200
 D4 a2       :  5.0000
 D4 s6       :  1.0000
 D4 s8       :  2.7000
 D4 s9       :  5.0000
 alphaj      :  2.0000


            Z     q(EN)     CN     RAES       Cart. coordinates
     1  S   6.0    0.61    4.50    4.55    -1.17623     0.15408    -4.02189
     2  O   6.0   -0.27    1.12    1.80    -0.44619     0.10508    -6.74086
     3  O   6.0   -0.32    1.22    1.80     0.73301     1.62269    -2.56378
     4  O   6.0   -0.26    2.11    1.84    -1.28813    -2.44372    -3.04647
     5  O   6.0   -0.25    2.10    1.84    -3.66747     1.35171    -3.75373
     6  H   1.0    0.16    1.27    1.48    -4.82615     0.17691    -2.99981
     7  H   1.0    0.17    1.27    1.49     0.33892    -3.22681    -3.22128
     8  O   6.0   -0.31    2.05    1.83     3.08635    -1.98336     2.42273
     9  H   1.0    0.16    1.04    1.43     3.51128    -0.28114     1.93644
    10  H   1.0    0.14    0.97    1.43     3.84028    -2.21784     4.06323
    11  O   6.0   -0.29    2.03    1.83    -2.10143    -1.02404     2.46054
    12  H   1.0    0.16    1.01    1.43    -0.44539    -1.78000     2.43425
    13  H   1.0    0.15    1.04    1.43    -1.83999     0.68872     3.01975
    14  O   6.0   -0.28    2.01    1.83     3.34384    -4.18480    -2.19420
    15  H   1.0    0.15    0.97    1.43     5.09155    -4.31501    -2.68732
    16  H   1.0    0.16    1.03    1.43     3.37197    -3.58557    -0.47526
    17  O   6.0   -0.28    2.01    1.83    -6.16636    -1.59213    -0.46728
    18  H   1.0    0.17    1.04    1.43    -4.84048    -1.54778     0.77958
    19  H   1.0    0.15    0.97    1.43    -7.55031    -2.46382     0.33238
    20  O   6.0   -0.31    2.06    1.83     4.13446     2.70397     0.88852
    21  H   1.0    0.17    1.06    1.44     2.92352     2.42631    -0.44231
    22  H   1.0    0.15    0.97    1.43     5.33796     3.88692     0.20527
    23  N   5.0   -0.22    3.00    1.93    -0.62282     3.90151     3.60375
    24  H   1.0    0.11    1.01    1.43     1.11682     3.62511     2.82381
    25  H   1.0    0.10    0.99    1.43    -0.31695     4.89368     5.22644
    26  H   1.0    0.11    0.99    1.43    -1.54205     5.10934     2.41748

  Z AO/shell   Hii/eV     exponent
  1     Wed Apr 25 08:07:45 CEST 2018   EN: 2.200 GM2: 0.406  GM3: 0.0800  RAES: 1.40
     1s    -10.707211    1.230000
  7     Wed Apr 25 08:07:45 CEST 2018   EN: 3.040 GM2: 0.461  GM3:-0.0640  RAES: 1.90
     2s    -16.686243    2.339881
     2p    -12.523956    2.014332
  8     Wed Apr 25 08:07:45 CEST 2018   EN: 3.440 GM2: 0.452  GM3:-0.0517  RAES: 1.80
     2s    -20.229985    2.439742
     2p    -15.503117    2.137023
 16     Tue Apr 24 11:44:34 CEST 2018   EN: 2.580 GM2: 0.340  GM3:-0.0502  RAES: 3.10
     3s    -20.029654    1.981333
     3p    -11.377694    2.025643
     3d     -0.420282    1.702555
 no old-style atom pair restraining (fixing) potential

molecular fragmentation (1/2 indicates fragments):
11111112222222222222222222
# atoms in fragment 1/2:     7    19
 fragment masses (1/2) :       98.07      107.11
CMA distance (Bohr)    :   5.373
constraining FC (au)   :  0.0500
           ------------------------------------------------- 
          |        Self-Consistent Charge Iterations        |
           ------------------------------------------------- 

 Ncao       : 65
 Nao        : 64
 Nshell     : 38
 Nel        : 80
 T(el)      :   300.0
 intcut     :    25.0
 scfconv/Eh :  0.100E-05
   qconv/e  :  0.100E-03
 intneglect :  0.100E-07
 broydamp   :      0.250
 iter      E             dE          RMSdq      gap      omega  full diag
   1    -50.6201426 -0.506201E+02  0.704E+00   10.30       0.0  T
   2    -50.6761353 -0.559927E-01  0.507E+00    9.65       1.0  T
   3    -50.7147077 -0.385724E-01  0.146E+00    8.57       1.0  T
   4    -50.7208570 -0.614923E-02  0.586E-01    8.79       1.0  T
   5    -50.7213797 -0.522780E-03  0.379E-01    8.70       1.0  T
   6    -50.7220698 -0.690026E-03  0.160E-01    8.70       1.0  T
   7    -50.7222287 -0.158974E-03  0.620E-02    8.68       1.0  T
   8    -50.7222493 -0.205571E-04  0.378E-02    8.68       1.0  T
   9    -50.7222573 -0.797402E-05  0.163E-02    8.70       1.2  T
  10    -50.7222592 -0.191164E-05  0.298E-03    8.70       6.6  T
  11    -50.7222592 -0.287363E-07  0.141E-03    8.69      13.9  T
  12    -50.7222592 -0.775352E-08  0.646E-04    8.69      30.4  T
  13    -50.7222592 -0.223780E-08  0.164E-04    8.69     119.3  T
speedup  1.00
cpu  time for SCC    0.01 s
wall time for SCC    0.02 s

   *** convergence criteria satisfied after 13 iterations ***

          eigenvalues
 #    :          28         29         30         31         32         33         34         35
 occ. :        2.000      2.000      2.000      2.000      2.000      2.000      2.000      2.000
 eps  :       -13.557    -13.119    -12.411    -12.334    -12.268    -12.183    -11.936    -11.867
 #    :          36         37         38         39         40         41         42         43
 occ. :        2.000      2.000      2.000      2.000      2.000      0.000      0.000      0.000
 eps  :       -11.821    -11.349    -11.311    -11.011    -10.801     -2.107     -0.849      0.050
 #    :          44         45         46         47         48         49         50         51
 occ. :        0.000      0.000      0.000      0.000      0.000      0.000      0.000      0.000
 eps  :         0.212      1.198      1.629      1.943      2.695      3.307      4.875      5.339


   #   Z            q   n(s)   n(p)   n(d)      C6AA      α(0)
   1  16 S      1.673  1.575  1.797  0.955    89.389    15.913
   2   8 O     -0.704  1.777  4.927  0.000    28.815     7.197
   3   8 O     -0.733  1.761  4.973  0.000    29.630     7.298
   4   8 O     -0.555  1.711  4.844  0.000    24.104     6.628
   5   8 O     -0.541  1.713  4.828  0.000    23.789     6.584
   6   1 H      0.411  0.589  0.000  0.000     0.457     1.058
   7   1 H      0.415  0.585  0.000  0.000     0.451     1.051
   8   8 O     -0.613  1.746  4.868  0.000    25.510     6.817
   9   1 H      0.343  0.657  0.000  0.000     0.604     1.221
  10   1 H      0.291  0.709  0.000  0.000     0.750     1.360
  11   8 O     -0.643  1.744  4.899  0.000    26.231     6.912
  12   1 H      0.309  0.691  0.000  0.000     0.694     1.308
  13   1 H      0.311  0.689  0.000  0.000     0.688     1.303
  14   8 O     -0.619  1.746  4.873  0.000    25.653     6.836
  15   1 H      0.293  0.707  0.000  0.000     0.741     1.352
  16   1 H      0.331  0.669  0.000  0.000     0.634     1.251
  17   8 O     -0.630  1.743  4.887  0.000    25.911     6.870
  18   1 H      0.337  0.663  0.000  0.000     0.620     1.236
  19   1 H      0.288  0.712  0.000  0.000     0.758     1.367
  20   8 O     -0.619  1.736  4.883  0.000    25.644     6.835
  21   1 H      0.346  0.654  0.000  0.000     0.597     1.214
  22   1 H      0.290  0.710  0.000  0.000     0.751     1.361
  23   7 N     -0.458  1.399  4.059  0.000    32.056     8.409
  24   1 H      0.186  0.814  0.000  0.000     1.183     1.704
  25   1 H      0.142  0.858  0.000  0.000     1.457     1.891
  26   1 H      0.149  0.851  0.000  0.000     1.410     1.860

 Mol. C6AA /au·bohr⁶  :       5454.598537
 Mol. C8AA /au·bohr⁸  :     117742.326143
 Mol. α(0) /au        :        106.837130

 
 Wiberg/Mayer (AO) data. WBOs > 0.1 written file <wbo>
 largest (>0.05) Wiberg bond orders for each atom
           total WBO             WBO to atom ...
     1  S   4.854    O    2 1.387    O    3 1.320    O    5 1.067    O    4 1.043
     2  O   1.704    S    1 1.387    O    3 0.132    O    4 0.092    O    5 0.082
     3  O   1.683    S    1 1.320    O    2 0.132    O    4 0.087    O    5 0.076
     4  O   2.048    S    1 1.043    H    7 0.752    O    2 0.092    O    3 0.087
     5  O   2.063    S    1 1.067    H    6 0.760    O    2 0.082    O    3 0.076
     6  H   0.831    O    5 0.760
     7  H   0.828    O    4 0.752    O   14 0.052
     8  O   1.875    H   10 0.908    H    9 0.831
     9  H   0.882    O    8 0.831
    10  H   0.915    O    8 0.908
    11  O   1.832    H   12 0.866    H   13 0.852
    12  H   0.904    O   11 0.866
    13  H   0.903    O   11 0.852
    14  O   1.845    H   15 0.906    H   16 0.845    H    7 0.052
    15  H   0.914    O   14 0.906
    16  H   0.890    O   14 0.845
    17  O   1.829    H   19 0.907    H   18 0.834
    18  H   0.886    O   17 0.834
    19  H   0.917    O   17 0.907
    20  O   1.860    H   22 0.903    H   21 0.826
    21  H   0.880    O   20 0.826
    22  H   0.916    O   20 0.903
    23  N   2.980    H   26 0.976    H   25 0.975    H   24 0.939
    24  H   0.966    N   23 0.939
    25  H   0.980    N   23 0.975
    26  H   0.978    N   23 0.976
 MOs/occ written to file <molden.input>
 
molecular dipole:
                 x           y           z       tot (Debye)
 q only:        0.568      -0.305       1.916
   full:        0.923       0.048       2.386       6.504
molecular quadrupole (traceless):
                xx          xy          yy          xz          yz          zz
 q only:       15.037       0.514       3.116       1.803       4.132     -18.152
  q+dip:       18.056       1.930       5.001       2.926       5.832     -23.057
   full:       18.596       1.835       4.849       2.963       5.614     -23.446

SCC energy    :     -50.7222592
rep           :       0.3158677
ES            :       0.2466181
AES           :      -0.0450252
AXC           :      -0.0066149
disp          :      -0.0178463
XB            :       0.0000000
fix           :       0.0000000
total E       :     -50.4060097
atomizationE  :       4.9363138     3097.58
(atE without considering molecular charge,
 total energy contains solvation terms)
H-L gap (eV)  :          8.6945
           ------------------------------------------------- 
          |                 ===============                 |
          |                   A N C O P T                   |
          |                 ===============                 |
          |          Approximate Normal Coordinate          |
          |           Rational Function Optimizer           |
           ------------------------------------------------- 
dumping coords to <xtbopt.coord> and <xtbopt.log>
 optlevel               2
 Maxcycle             520
 Maxmicro              25
 Econv         1.000000000000000E-007
 Gconv         2.000000000000000E-004
 Maxdispl       1.00000000000000     
 Hlow          5.000000000000000E-003
 S6             20.0000000000000     
 Nvar               72

generating ANC from model Hessian ...
 Shifting diagonal of input Hessian by   4.942899543348759E-003
 Lowest  eigenvalues of input Hessian
   -0.000000   -0.000000   -0.000000    0.000000    0.000000    0.000000
    0.005000    0.005042    0.005067    0.005469    0.005551    0.005773
    0.005893    0.006251    0.006403    0.006778    0.006957    0.007601
 Highest eigenvalues
    1.431388    1.451965    1.552778    3.213000    3.405456    3.460599
 
cpu  time for ANC gen    0.01 s
wall time for ANC gen    0.02 s
................................................................................
.............................. CYCLE    1 ......................................
................................................................................
   1    -50.7222592 -0.507223E+02  0.727E-05    8.69       0.0  T
   2    -50.7222592 -0.128892E-10  0.544E-05    8.69     360.7  T
   3    -50.7222592 -0.868283E-11  0.340E-05    8.69     577.0  T
speedup  0.71
cpu  time for SCC    0.00 s
wall time for SCC    0.00 s
speedup  0.98
cpu  time for grad    0.01 s
wall time for grad    0.01 s
 E :    -50.40600964  G :  0.185715    pred/act E change:  0.000D+00  0.376D-07
Maxdispl :   0.1255   ||displ|| :   0.3196   Lambda : -0.162D-01
Largest |displ|/coords:  0.1255 (  20)  0.1036 (  23)  0.1013 (  30)
................................................................................
.............................. CYCLE    2 ......................................
................................................................................
   1    -50.7224684 -0.507225E+02  0.394E-01    8.52       0.0  T
   2    -50.7227353 -0.266887E-03  0.299E-01    8.50       1.0  T
   3    -50.7228118 -0.765135E-04  0.151E-01    8.48       1.0  T
   4    -50.7228259 -0.141008E-04  0.241E-02    8.48       1.0  T
   5    -50.7228272 -0.129059E-05  0.695E-03    8.48       2.8  T
   6    -50.7228273 -0.472815E-07  0.249E-03    8.48       7.9  T
   7    -50.7228273 -0.140347E-07  0.124E-03    8.48      15.8  T
speedup  0.98
cpu  time for SCC    0.01 s
wall time for SCC    0.01 s
speedup  0.94
cpu  time for grad    0.01 s
wall time for grad    0.01 s
 E :    -50.41862198  G :  0.124224    pred/act E change:  0.000D+00 -0.126D-01
Maxdispl :   0.0815   ||displ|| :   0.2614   Lambda : -0.933D-02
Largest |displ|/coords:  0.0815 (  22)  0.0777 (  16)  0.0719 (  23)
................................................................................
.............................. CYCLE    3 ......................................
................................................................................
   1    -50.7304874 -0.507305E+02  0.241E-01    8.43       0.0  T
   2    -50.7306789 -0.191504E-03  0.191E-01    8.43       1.0  T
   3    -50.7307279 -0.489787E-04  0.120E-01    8.43       1.0  T
   4    -50.7307316 -0.371281E-05  0.216E-02    8.44       1.0  T
   5    -50.7307322 -0.565759E-06  0.421E-03    8.44       4.7  T
   6    -50.7307322 -0.222061E-07  0.156E-03    8.44      12.6  T
speedup  0.94
cpu  time for SCC    0.00 s
wall time for SCC    0.01 s
speedup  1.00
cpu  time for grad    0.01 s
wall time for grad    0.01 s
 E :    -50.42563757  G :  0.065778    pred/act E change: -0.895D-02 -0.702D-02
Maxdispl :   0.1047   ||displ|| :   0.2941   Lambda : -0.469D-02
Largest |displ|/coords:  0.1047 (  18)  0.1028 (  20)  0.1017 (  12)
................................................................................
.............................. CYCLE    4 ......................................
................................................................................
   1    -50.7291916 -0.507292E+02  0.302E-01    8.27       0.0  T
   2    -50.7293393 -0.147730E-03  0.232E-01    8.28       1.0  T
   3    -50.7293809 -0.415488E-04  0.102E-01    8.29       1.0  T
   4    -50.7293907 -0.982454E-05  0.216E-02    8.30       1.0  T
   5    -50.7293915 -0.773074E-06  0.448E-03    8.30       4.4  T
   6    -50.7293915 -0.198985E-07  0.194E-03    8.30      10.1  T
speedup  0.94
cpu  time for SCC    0.00 s
wall time for SCC    0.01 s
speedup  1.01
cpu  time for grad    0.01 s
wall time for grad    0.01 s
 E :    -50.42870253  G :  0.034509    pred/act E change: -0.498D-02 -0.306D-02
Maxdispl :   0.1346   ||displ|| :   0.4124   Lambda : -0.465D-02
Largest |displ|/coords:  0.1346 (  11)  0.1305 (  16)  0.1228 (  31)
................................................................................
.............................. CYCLE    5 ......................................
................................................................................
   1    -50.7339245 -0.507339E+02  0.393E-01    8.03       0.0  T
   2    -50.7341598 -0.235381E-03  0.304E-01    8.04       1.0  T
   3    -50.7342209 -0.611018E-04  0.115E-01    8.07       1.0  T
   4    -50.7342426 -0.216715E-04  0.314E-02    8.08       1.0  T
   5    -50.7342437 -0.110769E-05  0.535E-03    8.08       3.7  T
   6    -50.7342438 -0.328074E-07  0.264E-03    8.08       7.4  T
speedup  1.13
cpu  time for SCC    0.01 s
wall time for SCC    0.01 s
speedup  1.00
cpu  time for grad    0.01 s
wall time for grad    0.01 s
 E :    -50.42981298  G :  0.040402    pred/act E change: -0.255D-02 -0.111D-02
Maxdispl :   0.1015   ||displ|| :   0.2036   Lambda : -0.182D-02
Largest |displ|/coords:  0.1015 (  12)  0.0693 (  18)  0.0693 (  20)
................................................................................
.............................. CYCLE    6 ......................................
................................................................................
   1    -50.7294210 -0.507294E+02  0.215E-01    8.03       0.0  T
   2    -50.7294417 -0.207436E-04  0.163E-01    8.03       1.0  T
   3    -50.7294510 -0.930808E-05  0.307E-02    8.05       1.0  T
   4    -50.7294547 -0.368010E-05  0.757E-03    8.05       2.6  T
   5    -50.7294548 -0.129006E-06  0.211E-03    8.05       9.3  T
   6    -50.7294548 -0.137762E-08  0.119E-03    8.05      16.5  T
speedup  0.94
cpu  time for SCC    0.00 s
wall time for SCC    0.01 s
speedup  0.99
cpu  time for grad    0.01 s
wall time for grad    0.01 s
 E :    -50.43103505  G :  0.024357    pred/act E change: -0.272D-02 -0.122D-02
Maxdispl :   0.1419   ||displ|| :   0.3639   Lambda : -0.206D-02
Largest |displ|/coords:  0.1419 (   3)  0.1386 (  18)  0.1265 (   1)
................................................................................
.............................. CYCLE    7 ......................................
................................................................................
   1    -50.7277711 -0.507278E+02  0.365E-01    7.90       0.0  T
   2    -50.7278444 -0.732787E-04  0.275E-01    7.92       1.0  T
   3    -50.7278895 -0.451571E-04  0.514E-02    7.96       1.0  T
   4    -50.7279002 -0.106747E-04  0.150E-02    7.95       1.3  T
   5    -50.7279007 -0.546925E-06  0.459E-03    7.94       4.3  T
   6    -50.7279007 -0.133638E-07  0.262E-03    7.94       7.5  T
speedup  1.11
cpu  time for SCC    0.01 s
wall time for SCC    0.01 s
speedup  0.99
cpu  time for grad    0.01 s
wall time for grad    0.01 s
 E :    -50.43027393  G :  0.044909    pred/act E change: -0.947D-03  0.761D-03
Maxdispl :   0.1038   ||displ|| :   0.2191   Lambda : -0.335D-02
Largest |displ|/coords:  0.1038 (  22)  0.0853 (  11)  0.0643 (  21)
................................................................................
.............................. CYCLE    8 ......................................
................................................................................
   1    -50.7276310 -0.507276E+02  0.302E-01    7.99       0.0  T
   2    -50.7276806 -0.496368E-04  0.227E-01    7.99       1.0  T
   3    -50.7277119 -0.312361E-04  0.426E-02    7.98       1.0  T
   4    -50.7277186 -0.674670E-05  0.107E-02    7.99       1.8  T
   5    -50.7277189 -0.257035E-06  0.370E-03    7.99       5.3  T
   6    -50.7277189 -0.929652E-08  0.213E-03    7.99       9.2  T
speedup  1.13
cpu  time for SCC    0.01 s
wall time for SCC    0.01 s
speedup  1.00
cpu  time for grad    0.01 s
wall time for grad    0.01 s
 E :    -50.43201349  G :  0.022262    pred/act E change: -0.117D-02 -0.174D-02
Maxdispl :   0.1539   ||displ|| :   0.3320   Lambda : -0.156D-02
Largest |displ|/coords:  0.1539 (  12)  0.1354 (   9)  0.1156 (  11)
................................................................................
.............................. CYCLE    9 ......................................
................................................................................
   1    -50.7301179 -0.507301E+02  0.382E-01    8.11       0.0  T
   2    -50.7301867 -0.687937E-04  0.285E-01    8.11       1.0  T
   3    -50.7302307 -0.439672E-04  0.564E-02    8.12       1.0  T
   4    -50.7302392 -0.851919E-05  0.142E-02    8.13       1.4  T
   5    -50.7302397 -0.488651E-06  0.491E-03    8.13       4.0  T
   6    -50.7302397 -0.169489E-07  0.298E-03    8.13       6.6  T
speedup  0.96
cpu  time for SCC    0.00 s
wall time for SCC    0.01 s
speedup  1.01
cpu  time for grad    0.01 s
wall time for grad    0.01 s
 E :    -50.43084544  G :  0.043863    pred/act E change: -0.176D-02  0.117D-02
Maxdispl :   0.1550   ||displ|| :   0.2625   Lambda : -0.376D-02
Largest |displ|/coords:  0.1550 (  11)  0.1463 (   5)  0.0761 (   1)
................................................................................
.............................. CYCLE   10 ......................................
................................................................................
   1    -50.7338881 -0.507339E+02  0.387E-01    8.07       0.0  T
   2    -50.7339743 -0.861650E-04  0.291E-01    8.08       1.0  T
   3    -50.7340309 -0.566479E-04  0.560E-02    8.09       1.0  T
   4    -50.7340423 -0.113716E-04  0.128E-02    8.09       1.5  T
   5    -50.7340427 -0.439847E-06  0.496E-03    8.09       4.0  T
   6    -50.7340427 -0.133558E-07  0.280E-03    8.09       7.0  T
speedup  0.94
cpu  time for SCC    0.00 s
wall time for SCC    0.01 s
speedup  1.00
cpu  time for grad    0.01 s
wall time for grad    0.01 s
 E :    -50.43219676  G :  0.020363    pred/act E change: -0.865D-03 -0.135D-02
Maxdispl :   0.2277   ||displ|| :   0.5215   Lambda : -0.380D-02
Largest |displ|/coords:  0.2277 (  12)  0.1833 (  10)  0.1494 (  23)
................................................................................
.............................. CYCLE   11 ......................................
................................................................................
   1    -50.7107064 -0.507107E+02  0.616E-01    7.97       0.0  T
   2    -50.7109115 -0.205128E-03  0.463E-01    7.97       1.0  T
   3    -50.7110170 -0.105508E-03  0.854E-02    7.98       1.0  T
   4    -50.7110480 -0.309758E-04  0.238E-02    7.97       1.0  T
   5    -50.7110498 -0.173063E-05  0.656E-03    7.97       3.0  T
   6    -50.7110498 -0.347719E-07  0.422E-03    7.97       4.6  T
   7    -50.7110498 -0.317738E-07  0.817E-04    7.97      24.0  T
speedup  0.98
cpu  time for SCC    0.01 s
wall time for SCC    0.01 s
speedup  1.01
cpu  time for grad    0.01 s
wall time for grad    0.01 s
 E :    -50.42865994  G :  0.072048    pred/act E change: -0.201D-02  0.354D-02
Maxdispl :   0.1700   ||displ|| :   0.5379   Lambda : -0.179D-01
Largest |displ|/coords:  0.1700 (  10)  0.1599 (  23)  0.1516 (  12)
................................................................................
.............................. CYCLE   12 ......................................
................................................................................
   1    -50.7450034 -0.507450E+02  0.762E-01    8.21       0.0  T
   2    -50.7454169 -0.413448E-03  0.572E-01    8.21       1.0  T
   3    -50.7456651 -0.248190E-03  0.119E-01    8.23       1.0  T
   4    -50.7457180 -0.528871E-04  0.369E-02    8.23       1.0  T
   5    -50.7457216 -0.365922E-05  0.110E-02    8.23       1.8  T
   6    -50.7457217 -0.941565E-07  0.610E-03    8.23       3.2  T
   7    -50.7457218 -0.710803E-07  0.117E-03    8.22      16.8  T
   8    -50.7457218 -0.426508E-08  0.438E-04    8.22      44.7  T
speedup  0.99
cpu  time for SCC    0.01 s
wall time for SCC    0.01 s
speedup  0.95
cpu  time for grad    0.01 s
wall time for grad    0.01 s
 E :    -50.42992661  G :  0.066478    pred/act E change: -0.241D-02 -0.127D-02
Maxdispl :   0.0932   ||displ|| :   0.3193   Lambda : -0.777D-02
Largest |displ|/coords:  0.0932 (  23)  0.0915 (   5)  0.0909 (  18)
................................................................................
.............................. CYCLE   13 ......................................
................................................................................
   1    -50.7260263 -0.507260E+02  0.462E-01    8.16       0.0  T
   2    -50.7261687 -0.142399E-03  0.347E-01    8.16       1.0  T
   3    -50.7262489 -0.801600E-04  0.690E-02    8.16       1.0  T
   4    -50.7262679 -0.190699E-04  0.222E-02    8.16       1.0  T
   5    -50.7262693 -0.136380E-05  0.519E-03    8.16       3.8  T
   6    -50.7262693 -0.262133E-07  0.339E-03    8.16       5.8  T
speedup  0.93
cpu  time for SCC    0.01 s
wall time for SCC    0.01 s
speedup  1.00
cpu  time for grad    0.01 s
wall time for grad    0.01 s
 E :    -50.43280700  G :  0.030750    pred/act E change: -0.115D-01 -0.288D-02
Maxdispl :   0.0703   ||displ|| :   0.1749   Lambda : -0.113D-02
Largest |displ|/coords:  0.0703 (   3)  0.0644 (   1)  0.0599 (   7)
................................................................................
.............................. CYCLE   14 ......................................
................................................................................
   1    -50.7319951 -0.507320E+02  0.130E-01    8.18       0.0  T
   2    -50.7320073 -0.121755E-04  0.969E-02    8.18       1.0  T
   3    -50.7320142 -0.692046E-05  0.211E-02    8.18       1.0  T
   4    -50.7320156 -0.142091E-05  0.805E-03    8.18       2.4  T
   5    -50.7320158 -0.148815E-06  0.188E-03    8.18      10.4  T
   6    -50.7320158 -0.306887E-08  0.108E-03    8.18      18.1  T
speedup  1.13
cpu  time for SCC    0.01 s
wall time for SCC    0.01 s
speedup  1.00
cpu  time for grad    0.01 s
wall time for grad    0.01 s
 E :    -50.43340005  G :  0.012626    pred/act E change: -0.428D-02 -0.593D-03
Maxdispl :   0.1229   ||displ|| :   0.2197   Lambda : -0.470D-03
Largest |displ|/coords:  0.1229 (   1)  0.0735 (   3)  0.0593 (   9)
................................................................................
.............................. CYCLE   15 ......................................
................................................................................
   1    -50.7317037 -0.507317E+02  0.128E-01    8.17       0.0  T
   2    -50.7317075 -0.370736E-05  0.955E-02    8.18       1.0  T
   3    -50.7317096 -0.211206E-05  0.130E-02    8.19       1.5  T
   4    -50.7317101 -0.560439E-06  0.527E-03    8.19       3.7  T
   5    -50.7317102 -0.342923E-07  0.124E-03    8.19      15.8  T
   6    -50.7317102 -0.165392E-08  0.781E-04    8.19      25.1  T
speedup  0.94
cpu  time for SCC    0.01 s
wall time for SCC    0.01 s
speedup  1.00
cpu  time for grad    0.01 s
wall time for grad    0.01 s
 E :    -50.43373437  G :  0.009191    pred/act E change: -0.584D-03 -0.334D-03
Maxdispl :   0.2910   ||displ|| :   0.4844   Lambda : -0.905D-03
Largest |displ|/coords:  0.2910 (   1)  0.1600 (   3)  0.1525 (   7)
................................................................................
.............................. CYCLE   16 ......................................
................................................................................
   1    -50.7299203 -0.507299E+02  0.266E-01    8.20       0.0  T
   2    -50.7299379 -0.175682E-04  0.199E-01    8.20       1.0  T
   3    -50.7299498 -0.118600E-04  0.295E-02    8.22       1.0  T
   4    -50.7299523 -0.249874E-05  0.109E-02    8.22       1.8  T
   5    -50.7299524 -0.134434E-06  0.279E-03    8.22       7.0  T
   6    -50.7299524 -0.689344E-08  0.172E-03    8.22      11.4  T
speedup  0.96
cpu  time for SCC    0.00 s
wall time for SCC    0.01 s
speedup  1.00
cpu  time for grad    0.01 s
wall time for grad    0.01 s
 E :    -50.43440342  G :  0.014860    pred/act E change: -0.246D-03 -0.669D-03
Maxdispl :   0.3265   ||displ|| :   0.5011   Lambda : -0.866D-03
Largest |displ|/coords:  0.3265 (   1)  0.1568 (  18)  0.1390 (   7)
................................................................................
.............................. CYCLE   17 ......................................
................................................................................
   1    -50.7285208 -0.507285E+02  0.261E-01    8.24       0.0  T
   2    -50.7285372 -0.164332E-04  0.195E-01    8.25       1.0  T
   3    -50.7285493 -0.120871E-04  0.271E-02    8.27       1.0  T
   4    -50.7285515 -0.218060E-05  0.107E-02    8.27       1.8  T
   5    -50.7285516 -0.128557E-06  0.259E-03    8.27       7.6  T
   6    -50.7285516 -0.654612E-08  0.158E-03    8.27      12.4  T
speedup  1.13
cpu  time for SCC    0.01 s
wall time for SCC    0.01 s
speedup  1.00
cpu  time for grad    0.01 s
wall time for grad    0.01 s
 E :    -50.43490953  G :  0.014792    pred/act E change: -0.559D-03 -0.506D-03
Maxdispl :   0.3106   ||displ|| :   0.5174   Lambda : -0.107D-02
Largest |displ|/coords:  0.3106 (   1)  0.1873 (   6)  0.1322 (  18)
................................................................................
.............................. CYCLE   18 ......................................
................................................................................
   1    -50.7278023 -0.507278E+02  0.289E-01    8.32       0.0  T
   2    -50.7278157 -0.133581E-04  0.216E-01    8.32       1.0  T
   3    -50.7278264 -0.107032E-04  0.239E-02    8.32       1.0  T
   4    -50.7278280 -0.164513E-05  0.917E-03    8.32       2.1  T
   5    -50.7278281 -0.104981E-06  0.275E-03    8.32       7.1  T
   6    -50.7278281 -0.692594E-08  0.163E-03    8.32      12.1  T
speedup  0.94
cpu  time for SCC    0.01 s
wall time for SCC    0.01 s
speedup  1.00
cpu  time for grad    0.01 s
wall time for grad    0.01 s
 E :    -50.43505481  G :  0.025118    pred/act E change: -0.542D-03 -0.145D-03
Maxdispl :   0.0970   ||displ|| :   0.1957   Lambda : -0.117D-02
Largest |displ|/coords:  0.0970 (   7)  0.0736 (   1)  0.0707 (   4)
................................................................................
.............................. CYCLE   19 ......................................
................................................................................
   1    -50.7343407 -0.507343E+02  0.148E-01    8.33       0.0  T
   2    -50.7343504 -0.973909E-05  0.110E-01    8.32       1.0  T
   3    -50.7343585 -0.810267E-05  0.177E-02    8.32       1.1  T
   4    -50.7343596 -0.102123E-05  0.588E-03    8.32       3.3  T
   5    -50.7343596 -0.475515E-07  0.237E-03    8.32       8.3  T
speedup  1.14
cpu  time for SCC    0.00 s
wall time for SCC    0.00 s
speedup  0.99
cpu  time for grad    0.01 s
wall time for grad    0.01 s
 E :    -50.43541752  G :  0.021231    pred/act E change: -0.681D-03 -0.363D-03
Maxdispl :   0.1284   ||displ|| :   0.2918   Lambda : -0.136D-02
Largest |displ|/coords:  0.1284 (   1)  0.1240 (  14)  0.0977 (   6)
................................................................................
.............................. CYCLE   20 ......................................
................................................................................
   1    -50.7277760 -0.507278E+02  0.234E-01    8.32       0.0  T
   2    -50.7278065 -0.304576E-04  0.176E-01    8.33       1.0  T
   3    -50.7278308 -0.243630E-04  0.316E-02    8.36       1.0  T
   4    -50.7278347 -0.386168E-05  0.915E-03    8.35       2.1  T
   5    -50.7278348 -0.128160E-06  0.404E-03    8.36       4.9  T
   6    -50.7278348 -0.221157E-07  0.195E-03    8.36      10.1  T
speedup  1.13
cpu  time for SCC    0.01 s
wall time for SCC    0.01 s
speedup  1.00
cpu  time for grad    0.01 s
wall time for grad    0.01 s
 E :    -50.43527804  G :  0.032109    pred/act E change: -0.606D-03  0.139D-03
Maxdispl :   0.0696   ||displ|| :   0.1556   Lambda : -0.148D-02
Largest |displ|/coords:  0.0696 (  12)  0.0695 (   7)  0.0601 (   5)
................................................................................
.............................. CYCLE   21 ......................................
................................................................................
   1    -50.7346735 -0.507347E+02  0.134E-01    8.38       0.0  T
   2    -50.7346881 -0.146095E-04  0.995E-02    8.37       1.0  T
   3    -50.7346981 -0.995057E-05  0.224E-02    8.35       1.0  T
   4    -50.7346998 -0.168033E-05  0.622E-03    8.35       3.2  T
   5    -50.7346998 -0.651412E-07  0.242E-03    8.35       8.1  T
   6    -50.7346998 -0.517659E-08  0.123E-03    8.35      15.9  T
speedup  0.94
cpu  time for SCC    0.00 s
wall time for SCC    0.01 s
speedup  0.92
cpu  time for grad    0.01 s
wall time for grad    0.01 s
 E :    -50.43590686  G :  0.017498    pred/act E change: -0.736D-03 -0.629D-03
Maxdispl :   0.2059   ||displ|| :   0.4020   Lambda : -0.143D-02
Largest |displ|/coords:  0.2059 (   1)  0.1371 (  15)  0.1341 (   8)
................................................................................
.............................. CYCLE   22 ......................................
................................................................................
   1    -50.7248116 -0.507248E+02  0.284E-01    8.21       0.0  T
   2    -50.7248462 -0.346046E-04  0.211E-01    8.22       1.0  T
   3    -50.7248705 -0.242458E-04  0.332E-02    8.24       1.0  T
   4    -50.7248750 -0.453182E-05  0.106E-02    8.23       1.9  T
   5    -50.7248752 -0.179095E-06  0.439E-03    8.22       4.5  T
   6    -50.7248752 -0.238105E-07  0.210E-03    8.22       9.4  T
   7    -50.7248752 -0.103370E-07  0.518E-04    8.22      37.8  T
speedup  0.98
cpu  time for SCC    0.01 s
wall time for SCC    0.01 s
speedup  1.01
cpu  time for grad    0.01 s
wall time for grad    0.01 s
 E :    -50.43508495  G :  0.042691    pred/act E change: -0.757D-03  0.822D-03
Maxdispl :   0.1015   ||displ|| :   0.1835   Lambda : -0.255D-02
Largest |displ|/coords:  0.1015 (   3)  0.0873 (   8)  0.0646 (  21)
................................................................................
.............................. CYCLE   23 ......................................
................................................................................
   1    -50.7340387 -0.507340E+02  0.154E-01    8.31       0.0  T
   2    -50.7340587 -0.200841E-04  0.113E-01    8.29       1.0  T
   3    -50.7340696 -0.108452E-04  0.249E-02    8.27       1.0  T
   4    -50.7340722 -0.257281E-05  0.595E-03    8.28       3.3  T
   5    -50.7340722 -0.679204E-07  0.261E-03    8.28       7.5  T
speedup  0.91
cpu  time for SCC    0.00 s
wall time for SCC    0.00 s
speedup  0.99
cpu  time for grad    0.01 s
wall time for grad    0.01 s
 E :    -50.43637267  G :  0.011499    pred/act E change: -0.829D-03 -0.129D-02
Maxdispl :   0.1726   ||displ|| :   0.3379   Lambda : -0.104D-02
Largest |displ|/coords:  0.1726 (   1)  0.1493 (  14)  0.0958 (  13)
................................................................................
.............................. CYCLE   24 ......................................
................................................................................
   1    -50.7245528 -0.507246E+02  0.244E-01    8.19       0.0  T
   2    -50.7246064 -0.536124E-04  0.179E-01    8.23       1.0  T
   3    -50.7246313 -0.248998E-04  0.416E-02    8.28       1.0  T
   4    -50.7246384 -0.712002E-05  0.978E-03    8.26       2.0  T
   5    -50.7246386 -0.173302E-06  0.384E-03    8.26       5.1  T
   6    -50.7246386 -0.185548E-07  0.180E-03    8.26      10.9  T
   7    -50.7246386 -0.791983E-08  0.470E-04    8.26      41.8  T
speedup  1.15
cpu  time for SCC    0.01 s
wall time for SCC    0.01 s
speedup  1.01
cpu  time for grad    0.01 s
wall time for grad    0.01 s
 E :    -50.43525986  G :  0.046407    pred/act E change: -0.132D-02  0.111D-02
Maxdispl :   0.0628   ||displ|| :   0.1691   Lambda : -0.287D-02
Largest |displ|/coords:  0.0628 (  14)  0.0543 (  19)  0.0528 (  13)
................................................................................
.............................. CYCLE   25 ......................................
................................................................................
   1    -50.7318801 -0.507319E+02  0.152E-01    8.32       0.0  T
   2    -50.7319093 -0.292671E-04  0.111E-01    8.30       1.0  T
   3    -50.7319233 -0.139915E-04  0.305E-02    8.26       1.0  T
   4    -50.7319265 -0.319324E-05  0.722E-03    8.27       2.7  T
   5    -50.7319266 -0.111960E-06  0.302E-03    8.27       6.5  T
   6    -50.7319267 -0.933631E-08  0.142E-03    8.27      13.9  T
speedup  0.94
cpu  time for SCC    0.01 s
wall time for SCC    0.01 s
speedup  1.00
cpu  time for grad    0.01 s
wall time for grad    0.01 s
 E :    -50.43677989  G :  0.009350    pred/act E change: -0.580D-03 -0.152D-02
Maxdispl :   0.1296   ||displ|| :   0.2340   Lambda : -0.329D-03
Largest |displ|/coords:  0.1296 (   1)  0.0991 (  15)  0.0934 (   6)

generating ANC from model Hessian ...
 Shifting diagonal of input Hessian by   4.907150862671510E-003
 Lowest  eigenvalues of input Hessian
   -0.000000   -0.000000   -0.000000    0.000000    0.000000    0.000000
    0.005000    0.005054    0.005089    0.005318    0.005403    0.005778
    0.006134    0.006365    0.006460    0.007177    0.007330    0.007474
 Highest eigenvalues
    1.402136    1.412654    1.427259    2.636378    3.249559    3.691965
 
cpu  time for ANC gen    0.02 s
wall time for ANC gen    0.02 s
................................................................................
.............................. CYCLE   26 ......................................
................................................................................
   1    -50.7320196 -0.507320E+02  0.148E-01    8.22       0.0  T
   2    -50.7320234 -0.387610E-05  0.111E-01    8.22       1.0  T
   3    -50.7320277 -0.423672E-05  0.119E-02    8.21       1.7  T
   4    -50.7320279 -0.259535E-06  0.424E-03    8.21       4.6  T
   5    -50.7320280 -0.206797E-07  0.129E-03    8.21      15.2  T
   6    -50.7320280 -0.196732E-08  0.709E-04    8.21      27.7  T
   7    -50.7320280 -0.747562E-09  0.179E-04    8.21     109.3  T
speedup  0.98
cpu  time for SCC    0.01 s
wall time for SCC    0.01 s
speedup  0.97
cpu  time for grad    0.01 s
wall time for grad    0.01 s
 E :    -50.43700969  G :  0.012171    pred/act E change:  0.000D+00 -0.230D-03
Maxdispl :   0.1130   ||displ|| :   0.2193   Lambda : -0.594D-03
Largest |displ|/coords:  0.1130 (   5)  0.0692 (  18)  0.0640 (   6)
................................................................................
.............................. CYCLE   27 ......................................
................................................................................
   1    -50.7323414 -0.507323E+02  0.188E-01    8.24       0.0  T
   2    -50.7323461 -0.461958E-05  0.143E-01    8.25       1.0  T
   3    -50.7323517 -0.569020E-05  0.110E-02    8.26       1.8  T
   4    -50.7323520 -0.233179E-06  0.355E-03    8.25       5.5  T
   5    -50.7323520 -0.128033E-07  0.151E-03    8.25      13.0  T
   6    -50.7323520 -0.227708E-08  0.602E-04    8.25      32.6  T
speedup  0.94
cpu  time for SCC    0.00 s
wall time for SCC    0.01 s
speedup  0.99
cpu  time for grad    0.01 s
wall time for grad    0.01 s
 E :    -50.43748999  G :  0.006943    pred/act E change:  0.000D+00 -0.480D-03
Maxdispl :   0.1899   ||displ|| :   0.4779   Lambda : -0.950D-03
Largest |displ|/coords:  0.1899 (   5)  0.1746 (  18)  0.1716 (   6)
................................................................................
.............................. CYCLE   28 ......................................
................................................................................
   1    -50.7274389 -0.507274E+02  0.408E-01    8.28       0.0  T
   2    -50.7274700 -0.311524E-04  0.308E-01    8.29       1.0  T
   3    -50.7274978 -0.277559E-04  0.318E-02    8.31       1.0  T
   4    -50.7275016 -0.383192E-05  0.953E-03    8.30       2.1  T
   5    -50.7275017 -0.118747E-06  0.396E-03    8.30       5.0  T
   6    -50.7275018 -0.122531E-07  0.193E-03    8.30      10.2  T
   7    -50.7275018 -0.990391E-08  0.416E-04    8.30      47.2  T
speedup  0.98
cpu  time for SCC    0.01 s
wall time for SCC    0.01 s
speedup  1.01
cpu  time for grad    0.01 s
wall time for grad    0.01 s
 E :    -50.43796096  G :  0.020667    pred/act E change: -0.311D-03 -0.471D-03
Maxdispl :   0.0928   ||displ|| :   0.2045   Lambda : -0.621D-03
Largest |displ|/coords:  0.0928 (   2)  0.0801 (   3)  0.0665 (  16)
................................................................................
.............................. CYCLE   29 ......................................
................................................................................
   1    -50.7306950 -0.507307E+02  0.130E-01    8.31       0.0  T
   2    -50.7307004 -0.542481E-05  0.974E-02    8.31       1.0  T
   3    -50.7307051 -0.472167E-05  0.129E-02    8.32       1.5  T
   4    -50.7307058 -0.643707E-06  0.366E-03    8.32       5.4  T
   5    -50.7307058 -0.182791E-07  0.169E-03    8.32      11.6  T
speedup  1.16
cpu  time for SCC    0.01 s
wall time for SCC    0.00 s
speedup  0.99
cpu  time for grad    0.01 s
wall time for grad    0.01 s
 E :    -50.43833301  G :  0.011650    pred/act E change: -0.584D-03 -0.372D-03
Maxdispl :   0.1492   ||displ|| :   0.3190   Lambda : -0.604D-03
Largest |displ|/coords:  0.1492 (   6)  0.1122 (  16)  0.1044 (   3)
................................................................................
.............................. CYCLE   30 ......................................
................................................................................
   1    -50.7341230 -0.507341E+02  0.195E-01    8.31       0.0  T
   2    -50.7341301 -0.711974E-05  0.147E-01    8.31       1.0  T
   3    -50.7341370 -0.692699E-05  0.150E-02    8.31       1.3  T
   4    -50.7341378 -0.747066E-06  0.521E-03    8.32       3.8  T
   5    -50.7341378 -0.289798E-07  0.186E-03    8.32      10.5  T
   6    -50.7341378 -0.436206E-08  0.101E-03    8.32      19.5  T
speedup  0.96
cpu  time for SCC    0.00 s
wall time for SCC    0.01 s
speedup  1.00
cpu  time for grad    0.01 s
wall time for grad    0.01 s
 E :    -50.43879092  G :  0.005230    pred/act E change: -0.324D-03 -0.458D-03
Maxdispl :   0.2507   ||displ|| :   0.6058   Lambda : -0.756D-03
Largest |displ|/coords:  0.2507 (   7)  0.2348 (   6)  0.1760 (  16)
................................................................................
.............................. CYCLE   31 ......................................
................................................................................
   1    -50.7274461 -0.507274E+02  0.397E-01    8.19       0.0  T
   2    -50.7274790 -0.329581E-04  0.299E-01    8.21       1.0  T
   3    -50.7275066 -0.276207E-04  0.324E-02    8.24       1.0  T
   4    -50.7275109 -0.429767E-05  0.109E-02    8.23       1.8  T
   5    -50.7275111 -0.141809E-06  0.412E-03    8.23       4.8  T
   6    -50.7275111 -0.213428E-07  0.223E-03    8.23       8.8  T
   7    -50.7275111 -0.121431E-07  0.600E-04    8.23      32.7  T
speedup  0.97
cpu  time for SCC    0.01 s
wall time for SCC    0.01 s
speedup  1.00
cpu  time for grad    0.01 s
wall time for grad    0.01 s
 E :    -50.43909753  G :  0.018180    pred/act E change: -0.333D-03 -0.307D-03
Maxdispl :   0.0607   ||displ|| :   0.1408   Lambda : -0.604D-03
Largest |displ|/coords:  0.0607 (   9)  0.0593 (  10)  0.0455 (   2)
................................................................................
.............................. CYCLE   32 ......................................
................................................................................
   1    -50.7367699 -0.507368E+02  0.988E-02    8.38       0.0  T
   2    -50.7367778 -0.789977E-05  0.715E-02    8.37       1.0  T
   3    -50.7367814 -0.352921E-05  0.171E-02    8.35       1.1  T
   4    -50.7367823 -0.912534E-06  0.385E-03    8.36       5.1  T
   5    -50.7367823 -0.253223E-07  0.148E-03    8.36      13.3  T
   6    -50.7367823 -0.243184E-08  0.695E-04    8.36      28.2  T
speedup  1.13
cpu  time for SCC    0.01 s
wall time for SCC    0.01 s
speedup  1.06
cpu  time for grad    0.01 s
wall time for grad    0.01 s
 E :    -50.43921945  G :  0.009584    pred/act E change: -0.516D-03 -0.122D-03
Maxdispl :   0.0581   ||displ|| :   0.1556   Lambda : -0.428D-03
Largest |displ|/coords:  0.0581 (   4)  0.0534 (   6)  0.0527 (   1)
................................................................................
.............................. CYCLE   33 ......................................
................................................................................
   1    -50.7357674 -0.507358E+02  0.137E-01    8.35       0.0  T
   2    -50.7357747 -0.729431E-05  0.103E-01    8.35       1.0  T
   3    -50.7357803 -0.563583E-05  0.158E-02    8.36       1.2  T
   4    -50.7357814 -0.104869E-05  0.365E-03    8.36       5.4  T
   5    -50.7357814 -0.174886E-07  0.179E-03    8.36      10.9  T
   6    -50.7357814 -0.342845E-08  0.791E-04    8.36      24.8  T
speedup  0.77
cpu  time for SCC    0.00 s
wall time for SCC    0.01 s
speedup  0.92
cpu  time for grad    0.01 s
wall time for grad    0.01 s
 E :    -50.43937476  G :  0.011673    pred/act E change: -0.308D-03 -0.155D-03
Maxdispl :   0.1233   ||displ|| :   0.2062   Lambda : -0.336D-03
Largest |displ|/coords:  0.1233 (   9)  0.0665 (   7)  0.0542 (   6)
................................................................................
.............................. CYCLE   34 ......................................
................................................................................
   1    -50.7321067 -0.507321E+02  0.136E-01    8.26       0.0  T
   2    -50.7321135 -0.682281E-05  0.101E-01    8.27       1.0  T
   3    -50.7321173 -0.384756E-05  0.170E-02    8.29       1.2  T
   4    -50.7321184 -0.103796E-05  0.436E-03    8.29       4.5  T
   5    -50.7321184 -0.390017E-07  0.172E-03    8.29      11.4  T
   6    -50.7321184 -0.332733E-08  0.861E-04    8.29      22.8  T
speedup  0.96
cpu  time for SCC    0.00 s
wall time for SCC    0.01 s
speedup  0.99
cpu  time for grad    0.01 s
wall time for grad    0.01 s
 E :    -50.43941758  G :  0.012804    pred/act E change: -0.219D-03 -0.428D-04
Maxdispl :   0.0640   ||displ|| :   0.1399   Lambda : -0.323D-03
Largest |displ|/coords:  0.0640 (   1)  0.0591 (  12)  0.0476 (   5)
................................................................................
.............................. CYCLE   35 ......................................
................................................................................
   1    -50.7307605 -0.507308E+02  0.125E-01    8.32       0.0  T
   2    -50.7307663 -0.570673E-05  0.946E-02    8.31       1.0  T
   3    -50.7307698 -0.359956E-05  0.135E-02    8.30       1.4  T
   4    -50.7307708 -0.951672E-06  0.357E-03    8.30       5.5  T
   5    -50.7307708 -0.195307E-07  0.136E-03    8.30      14.4  T
   6    -50.7307708 -0.151621E-08  0.719E-04    8.30      27.3  T
speedup  0.94
cpu  time for SCC    0.00 s
wall time for SCC    0.01 s
speedup  0.99
cpu  time for grad    0.01 s
wall time for grad    0.01 s
 E :    -50.43953138  G :  0.011832    pred/act E change: -0.175D-03 -0.114D-03
Maxdispl :   0.0633   ||displ|| :   0.1292   Lambda : -0.283D-03
Largest |displ|/coords:  0.0633 (  14)  0.0454 (  11)  0.0401 (   5)
................................................................................
.............................. CYCLE   36 ......................................
................................................................................
   1    -50.7361278 -0.507361E+02  0.108E-01    8.44       0.0  T
   2    -50.7361319 -0.413293E-05  0.799E-02    8.44       1.0  T
   3    -50.7361347 -0.281213E-05  0.129E-02    8.43       1.5  T
   4    -50.7361352 -0.514406E-06  0.388E-03    8.44       5.1  T
   5    -50.7361353 -0.338283E-07  0.143E-03    8.44      13.7  T
   6    -50.7361353 -0.243561E-08  0.774E-04    8.43      25.4  T
speedup  0.94
cpu  time for SCC    0.00 s
wall time for SCC    0.01 s
speedup  0.98
cpu  time for grad    0.01 s
wall time for grad    0.01 s
 E :    -50.43958321  G :  0.008653    pred/act E change: -0.165D-03 -0.518D-04
Maxdispl :   0.0537   ||displ|| :   0.1463   Lambda : -0.183D-03
Largest |displ|/coords:  0.0537 (   2)  0.0522 (   4)  0.0485 (   5)
................................................................................
.............................. CYCLE   37 ......................................
................................................................................
   1    -50.7344940 -0.507345E+02  0.945E-02    8.36       0.0  T
   2    -50.7344955 -0.159245E-05  0.706E-02    8.36       1.0  T
   3    -50.7344968 -0.129463E-05  0.959E-03    8.37       2.0  T
   4    -50.7344970 -0.192605E-06  0.254E-03    8.36       7.7  T
   5    -50.7344970 -0.936782E-08  0.805E-04    8.36      24.4  T
speedup  1.14
cpu  time for SCC    0.00 s
wall time for SCC    0.00 s
speedup  1.07
cpu  time for grad    0.01 s
wall time for grad    0.01 s
 E :    -50.43970629  G :  0.005226    pred/act E change: -0.144D-03 -0.123D-03
Maxdispl :   0.0989   ||displ|| :   0.2459   Lambda : -0.162D-03
Largest |displ|/coords:  0.0989 (   1)  0.0897 (   4)  0.0888 (   9)
................................................................................
.............................. CYCLE   38 ......................................
................................................................................
   1    -50.7312738 -0.507313E+02  0.147E-01    8.33       0.0  T
   2    -50.7312766 -0.279765E-05  0.110E-01    8.33       1.0  T
   3    -50.7312797 -0.314989E-05  0.109E-02    8.33       1.8  T
   4    -50.7312799 -0.196598E-06  0.298E-03    8.33       6.6  T
   5    -50.7312799 -0.104425E-07  0.136E-03    8.33      14.4  T
speedup  0.91
cpu  time for SCC    0.00 s
wall time for SCC    0.00 s
speedup  0.98
cpu  time for grad    0.01 s
wall time for grad    0.01 s
 E :    -50.43977267  G :  0.008038    pred/act E change: -0.933D-04 -0.664D-04
Maxdispl :   0.0897   ||displ|| :   0.1869   Lambda : -0.164D-03
Largest |displ|/coords:  0.0897 (   1)  0.0743 (   4)  0.0681 (   2)
................................................................................
.............................. CYCLE   39 ......................................
................................................................................
   1    -50.7317850 -0.507318E+02  0.990E-02    8.33       0.0  T
   2    -50.7317874 -0.243830E-05  0.743E-02    8.33       1.0  T
   3    -50.7317894 -0.194205E-05  0.982E-03    8.32       2.0  T
   4    -50.7317897 -0.306414E-06  0.279E-03    8.32       7.0  T
   5    -50.7317897 -0.112158E-07  0.102E-03    8.32      19.2  T
speedup  0.87
cpu  time for SCC    0.00 s
wall time for SCC    0.00 s
speedup  0.97
cpu  time for grad    0.01 s
wall time for grad    0.01 s
 E :    -50.43986849  G :  0.008490    pred/act E change: -0.858D-04 -0.958D-04
Maxdispl :   0.0673   ||displ|| :   0.1598   Lambda : -0.163D-03
Largest |displ|/coords:  0.0673 (   1)  0.0606 (   3)  0.0529 (   5)
................................................................................
.............................. CYCLE   40 ......................................
................................................................................
   1    -50.7349426 -0.507349E+02  0.763E-02    8.36       0.0  T
   2    -50.7349448 -0.217888E-05  0.568E-02    8.35       1.0  T
   3    -50.7349460 -0.125311E-05  0.893E-03    8.33       2.2  T
   4    -50.7349464 -0.330334E-06  0.271E-03    8.34       7.2  T
   5    -50.7349464 -0.106017E-07  0.936E-04    8.34      20.9  T
speedup  0.93
cpu  time for SCC    0.00 s
wall time for SCC    0.00 s
speedup  0.98
cpu  time for grad    0.01 s
wall time for grad    0.01 s
 E :    -50.43995252  G :  0.005002    pred/act E change: -0.850D-04 -0.840D-04
Maxdispl :   0.1570   ||displ|| :   0.3746   Lambda : -0.237D-03
Largest |displ|/coords:  0.1570 (   1)  0.1421 (   2)  0.1274 (   8)
................................................................................
.............................. CYCLE   41 ......................................
................................................................................
   1    -50.7317841 -0.507318E+02  0.206E-01    8.37       0.0  T
   2    -50.7317910 -0.690206E-05  0.154E-01    8.37       1.0  T
   3    -50.7317972 -0.626607E-05  0.145E-02    8.38       1.3  T
   4    -50.7317980 -0.744212E-06  0.637E-03    8.37       3.1  T
   5    -50.7317980 -0.315724E-07  0.196E-03    8.37      10.0  T
   6    -50.7317980 -0.520461E-08  0.101E-03    8.37      19.5  T
speedup  0.96
cpu  time for SCC    0.01 s
wall time for SCC    0.01 s
speedup  0.99
cpu  time for grad    0.01 s
wall time for grad    0.01 s
 E :    -50.43994342  G :  0.014234    pred/act E change: -0.837D-04  0.910D-05
Maxdispl :   0.0468   ||displ|| :   0.1103   Lambda : -0.288D-03
Largest |displ|/coords:  0.0468 (   2)  0.0375 (   7)  0.0343 (  14)
................................................................................
.............................. CYCLE   42 ......................................
................................................................................
   1    -50.7346922 -0.507347E+02  0.781E-02    8.42       0.0  T
   2    -50.7346948 -0.258578E-05  0.580E-02    8.41       1.0  T
   3    -50.7346965 -0.169631E-05  0.910E-03    8.40       2.2  T
   4    -50.7346969 -0.374421E-06  0.281E-03    8.41       7.0  T
   5    -50.7346969 -0.104250E-07  0.102E-03    8.41      19.3  T
speedup  0.91
cpu  time for SCC    0.00 s
wall time for SCC    0.00 s
speedup  0.98
cpu  time for grad    0.01 s
wall time for grad    0.01 s
 E :    -50.44006394  G :  0.005375    pred/act E change: -0.135D-03 -0.121D-03
Maxdispl :   0.0879   ||displ|| :   0.1526   Lambda : -0.121D-03
Largest |displ|/coords:  0.0879 (   5)  0.0746 (   6)  0.0387 (   2)
................................................................................
.............................. CYCLE   43 ......................................
................................................................................
   1    -50.7322128 -0.507322E+02  0.110E-01    8.23       0.0  T
   2    -50.7322157 -0.290140E-05  0.821E-02    8.23       1.0  T
   3    -50.7322181 -0.244005E-05  0.131E-02    8.23       1.5  T
   4    -50.7322184 -0.304129E-06  0.373E-03    8.23       5.3  T
   5    -50.7322184 -0.231933E-07  0.110E-03    8.23      17.8  T
   6    -50.7322184 -0.128419E-08  0.597E-04    8.23      32.9  T
speedup  0.96
cpu  time for SCC    0.00 s
wall time for SCC    0.01 s
speedup  0.99
cpu  time for grad    0.01 s
wall time for grad    0.01 s
 E :    -50.44005153  G :  0.008700    pred/act E change: -0.146D-03  0.124D-04
Maxdispl :   0.0395   ||displ|| :   0.0811   Lambda : -0.142D-03
Largest |displ|/coords:  0.0395 (   6)  0.0340 (   8)  0.0225 (  17)
................................................................................
.............................. CYCLE   44 ......................................
................................................................................
   1    -50.7338813 -0.507339E+02  0.546E-02    8.34       0.0  T
   2    -50.7338821 -0.837920E-06  0.402E-02    8.34       1.0  T
   3    -50.7338826 -0.511480E-06  0.669E-03    8.34       2.9  T
   4    -50.7338827 -0.984729E-07  0.193E-03    8.34      10.1  T
   5    -50.7338828 -0.720184E-08  0.611E-04    8.34      32.1  T
speedup  1.14
cpu  time for SCC    0.00 s
wall time for SCC    0.00 s
speedup  0.98
cpu  time for grad    0.01 s
wall time for grad    0.01 s
 E :    -50.44013822  G :  0.003536    pred/act E change: -0.619D-04 -0.867D-04
Maxdispl :   0.0707   ||displ|| :   0.1137   Lambda : -0.537D-04
Largest |displ|/coords:  0.0707 (   5)  0.0378 (   8)  0.0308 (   7)
................................................................................
.............................. CYCLE   45 ......................................
................................................................................
   1    -50.7341323 -0.507341E+02  0.626E-02    8.35       0.0  T
   2    -50.7341329 -0.561744E-06  0.470E-02    8.35       1.0  T
   3    -50.7341334 -0.535149E-06  0.456E-03    8.35       4.3  T
   4    -50.7341334 -0.516734E-07  0.164E-03    8.35      11.9  T
   5    -50.7341334 -0.300156E-08  0.498E-04    8.35      39.3  T
   6    -50.7341334 -0.256229E-09  0.275E-04    8.35      71.3  T
speedup  0.96
cpu  time for SCC    0.00 s
wall time for SCC    0.01 s
speedup  1.03
cpu  time for grad    0.01 s
wall time for grad    0.01 s
 E :    -50.44017716  G :  0.004486    pred/act E change: -0.715D-04 -0.389D-04
Maxdispl :   0.1416   ||displ|| :   0.2171   Lambda : -0.960D-04
Largest |displ|/coords:  0.1416 (   5)  0.0643 (  15)  0.0618 (   7)
................................................................................
.............................. CYCLE   46 ......................................
................................................................................
   1    -50.7350378 -0.507350E+02  0.135E-01    8.38       0.0  T
   2    -50.7350404 -0.256774E-05  0.101E-01    8.37       1.0  T
   3    -50.7350434 -0.297574E-05  0.966E-03    8.36       2.0  T
   4    -50.7350435 -0.940882E-07  0.333E-03    8.36       5.9  T
   5    -50.7350435 -0.110987E-07  0.111E-03    8.36      17.6  T
   6    -50.7350435 -0.120395E-08  0.546E-04    8.36      35.9  T
speedup  1.11
cpu  time for SCC    0.01 s
wall time for SCC    0.01 s
speedup  1.06
cpu  time for grad    0.01 s
wall time for grad    0.01 s
 E :    -50.44022541  G :  0.007165    pred/act E change: -0.272D-04 -0.482D-04
Maxdispl :   0.1125   ||displ|| :   0.1725   Lambda : -0.109D-03
Largest |displ|/coords:  0.1125 (   5)  0.0416 (  15)  0.0384 (   2)
................................................................................
.............................. CYCLE   47 ......................................
................................................................................
   1    -50.7365215 -0.507365E+02  0.994E-02    8.34       0.0  T
   2    -50.7365242 -0.264927E-05  0.739E-02    8.34       1.0  T
   3    -50.7365262 -0.203097E-05  0.115E-02    8.32       1.7  T
   4    -50.7365265 -0.326930E-06  0.314E-03    8.33       6.2  T
   5    -50.7365266 -0.132409E-07  0.961E-04    8.33      20.4  T
   6    -50.7365266 -0.133836E-08  0.543E-04    8.33      36.1  T
speedup  0.96
cpu  time for SCC    0.00 s
wall time for SCC    0.01 s
speedup  1.00
cpu  time for grad    0.01 s
wall time for grad    0.01 s
 E :    -50.44027021  G :  0.007263    pred/act E change: -0.503D-04 -0.448D-04
Maxdispl :   0.0794   ||displ|| :   0.1469   Lambda : -0.921D-04
Largest |displ|/coords:  0.0794 (   5)  0.0479 (   9)  0.0432 (  15)
................................................................................
.............................. CYCLE   48 ......................................
................................................................................
   1    -50.7349481 -0.507349E+02  0.917E-02    8.26       0.0  T
   2    -50.7349500 -0.187609E-05  0.683E-02    8.26       1.0  T
   3    -50.7349515 -0.142915E-05  0.980E-03    8.25       2.0  T
   4    -50.7349517 -0.211060E-06  0.302E-03    8.25       6.5  T
   5    -50.7349517 -0.131548E-07  0.801E-04    8.25      24.5  T
   6    -50.7349517 -0.761787E-09  0.444E-04    8.25      44.1  T
speedup  1.11
cpu  time for SCC    0.01 s
wall time for SCC    0.01 s
speedup  1.06
cpu  time for grad    0.01 s
wall time for grad    0.01 s
 E :    -50.44031754  G :  0.006340    pred/act E change: -0.564D-04 -0.473D-04
Maxdispl :   0.0433   ||displ|| :   0.0973   Lambda : -0.909D-04
Largest |displ|/coords:  0.0433 (   3)  0.0400 (   1)  0.0317 (  16)
................................................................................
.............................. CYCLE   49 ......................................
................................................................................
   1    -50.7354064 -0.507354E+02  0.442E-02    8.26       0.0  T
   2    -50.7354077 -0.125679E-05  0.322E-02    8.26       1.0  T
   3    -50.7354083 -0.585083E-06  0.727E-03    8.25       2.7  T
   4    -50.7354084 -0.140228E-06  0.190E-03    8.25      10.3  T
   5    -50.7354084 -0.660396E-08  0.651E-04    8.25      30.1  T
speedup  0.93
cpu  time for SCC    0.00 s
wall time for SCC    0.00 s
speedup  0.98
cpu  time for grad    0.01 s
wall time for grad    0.01 s
 E :    -50.44037194  G :  0.005034    pred/act E change: -0.471D-04 -0.544D-04
Maxdispl :   0.0945   ||displ|| :   0.2394   Lambda : -0.119D-03
Largest |displ|/coords:  0.0945 (  15)  0.0827 (   5)  0.0780 (   4)
................................................................................
.............................. CYCLE   50 ......................................
................................................................................
   1    -50.7334572 -0.507335E+02  0.148E-01    8.21       0.0  T
   2    -50.7334621 -0.485331E-05  0.110E-01    8.21       1.0  T
   3    -50.7334664 -0.432154E-05  0.144E-02    8.20       1.4  T
   4    -50.7334668 -0.467663E-06  0.512E-03    8.20       3.8  T
   5    -50.7334669 -0.308455E-07  0.151E-03    8.20      13.0  T
   6    -50.7334669 -0.324486E-08  0.778E-04    8.20      25.2  T
speedup  0.96
cpu  time for SCC    0.01 s
wall time for SCC    0.01 s
speedup  1.00
cpu  time for grad    0.01 s
wall time for grad    0.01 s
 E :    -50.44041911  G :  0.008879    pred/act E change: -0.459D-04 -0.472D-04
Maxdispl :   0.1149   ||displ|| :   0.2268   Lambda : -0.163D-03
Largest |displ|/coords:  0.1149 (   3)  0.1005 (   2)  0.0960 (   1)
................................................................................
.............................. CYCLE   51 ......................................
................................................................................
   1    -50.7359296 -0.507359E+02  0.862E-02    8.28       0.0  T
   2    -50.7359317 -0.211670E-05  0.643E-02    8.28       1.0  T
   3    -50.7359333 -0.161396E-05  0.107E-02    8.27       1.8  T
   4    -50.7359336 -0.249730E-06  0.311E-03    8.28       6.3  T
   5    -50.7359336 -0.152386E-07  0.875E-04    8.28      22.4  T
   6    -50.7359336 -0.957748E-09  0.550E-04    8.28      35.6  T
speedup  0.96
cpu  time for SCC    0.00 s
wall time for SCC    0.01 s
speedup  1.00
cpu  time for grad    0.01 s
wall time for grad    0.01 s
 E :    -50.44049759  G :  0.006689    pred/act E change: -0.628D-04 -0.785D-04
Maxdispl :   0.1015   ||displ|| :   0.1952   Lambda : -0.109D-03
Largest |displ|/coords:  0.1015 (   3)  0.0745 (   1)  0.0561 (   2)
................................................................................
.............................. CYCLE   52 ......................................
................................................................................
   1    -50.7353932 -0.507354E+02  0.971E-02    8.25       0.0  T
   2    -50.7353955 -0.224099E-05  0.723E-02    8.25       1.0  T
   3    -50.7353974 -0.193457E-05  0.106E-02    8.24       1.8  T
   4    -50.7353977 -0.232919E-06  0.332E-03    8.24       5.9  T
   5    -50.7353977 -0.146356E-07  0.978E-04    8.24      20.1  T
   6    -50.7353977 -0.124081E-08  0.582E-04    8.24      33.7  T
speedup  1.13
cpu  time for SCC    0.01 s
wall time for SCC    0.01 s
speedup  1.07
cpu  time for grad    0.01 s
wall time for grad    0.01 s
 E :    -50.44056088  G :  0.004241    pred/act E change: -0.859D-04 -0.633D-04
Maxdispl :   0.0880   ||displ|| :   0.1699   Lambda : -0.751D-04
Largest |displ|/coords:  0.0880 (   1)  0.0836 (   3)  0.0581 (   2)

generating ANC from model Hessian ...
 Shifting diagonal of input Hessian by   4.993028112905550E-003
 Lowest  eigenvalues of input Hessian
   -0.000000   -0.000000   -0.000000    0.000000    0.000000    0.000000
    0.005000    0.005133    0.005359    0.005468    0.005852    0.006035
    0.006173    0.006506    0.007524    0.007700    0.007870    0.008781
 Highest eigenvalues
    1.408405    1.414630    1.423583    2.705661    3.307202    3.742833
 
cpu  time for ANC gen    0.02 s
wall time for ANC gen    0.02 s
................................................................................
.............................. CYCLE   53 ......................................
................................................................................
   1    -50.7368029 -0.507368E+02  0.748E-02    8.25       0.0  T
   2    -50.7368044 -0.153069E-05  0.559E-02    8.25       1.0  T
   3    -50.7368057 -0.130322E-05  0.895E-03    8.24       2.2  T
   4    -50.7368059 -0.185935E-06  0.273E-03    8.24       7.2  T
   5    -50.7368059 -0.104089E-07  0.891E-04    8.24      22.0  T
   6    -50.7368059 -0.110367E-08  0.494E-04    8.24      39.7  T
speedup  0.96
cpu  time for SCC    0.00 s
wall time for SCC    0.01 s
speedup  0.95
cpu  time for grad    0.01 s
wall time for grad    0.01 s
 E :    -50.44059649  G :  0.006205    pred/act E change:  0.000D+00 -0.356D-04
Maxdispl :   0.0393   ||displ|| :   0.0778   Lambda : -0.913D-04
Largest |displ|/coords:  0.0393 (   9)  0.0279 (   7)  0.0224 (  12)
................................................................................
.............................. CYCLE   54 ......................................
................................................................................
   1    -50.7360667 -0.507361E+02  0.461E-02    8.23       0.0  T
   2    -50.7360672 -0.464745E-06  0.344E-02    8.23       1.0  T
   3    -50.7360675 -0.329400E-06  0.440E-03    8.23       4.5  T
   4    -50.7360676 -0.562693E-07  0.145E-03    8.23      13.5  T
   5    -50.7360676 -0.313911E-08  0.452E-04    8.23      43.3  T
speedup  0.91
cpu  time for SCC    0.00 s
wall time for SCC    0.00 s
speedup  0.98
cpu  time for grad    0.01 s
wall time for grad    0.01 s
 E :    -50.44066472  G :  0.001968    pred/act E change:  0.000D+00 -0.682D-04
Maxdispl :   0.0808   ||displ|| :   0.1617   Lambda : -0.100D-03
Largest |displ|/coords:  0.0808 (   9)  0.0587 (   7)  0.0535 (  12)
................................................................................
.............................. CYCLE   55 ......................................
................................................................................
   1    -50.7347396 -0.507347E+02  0.920E-02    8.20       0.0  T
   2    -50.7347410 -0.134757E-05  0.686E-02    8.20       1.0  T
   3    -50.7347421 -0.115074E-05  0.756E-03    8.19       2.6  T
   4    -50.7347423 -0.136984E-06  0.263E-03    8.19       7.5  T
   5    -50.7347423 -0.793034E-08  0.846E-04    8.19      23.2  T
   6    -50.7347423 -0.690378E-09  0.463E-04    8.19      42.4  T
speedup  0.96
cpu  time for SCC    0.00 s
wall time for SCC    0.01 s
speedup  0.96
cpu  time for grad    0.01 s
wall time for grad    0.01 s
 E :    -50.44072097  G :  0.005236    pred/act E change: -0.459D-04 -0.563D-04
Maxdispl :   0.0350   ||displ|| :   0.0813   Lambda : -0.396D-04
Largest |displ|/coords:  0.0350 (   7)  0.0345 (   9)  0.0312 (   5)
................................................................................
.............................. CYCLE   56 ......................................
................................................................................
   1    -50.7348751 -0.507349E+02  0.380E-02    8.19       0.0  T
   2    -50.7348753 -0.169688E-06  0.283E-02    8.19       1.0  T
   3    -50.7348754 -0.165109E-06  0.260E-03    8.19       7.5  T
   4    -50.7348754 -0.136903E-07  0.795E-04    8.19      24.7  T
speedup  0.86
cpu  time for SCC    0.00 s
wall time for SCC    0.00 s
speedup  0.97
cpu  time for grad    0.01 s
wall time for grad    0.01 s
 E :    -50.44075528  G :  0.004692    pred/act E change: -0.514D-04 -0.343D-04
Maxdispl :   0.1010   ||displ|| :   0.2535   Lambda : -0.124D-03
Largest |displ|/coords:  0.1010 (   7)  0.0979 (   5)  0.0964 (   9)
................................................................................
.............................. CYCLE   57 ......................................
................................................................................
   1    -50.7354303 -0.507354E+02  0.116E-01    8.17       0.0  T
   2    -50.7354322 -0.181992E-05  0.865E-02    8.17       1.0  T
   3    -50.7354339 -0.172614E-05  0.832E-03    8.15       2.4  T
   4    -50.7354341 -0.168427E-06  0.273E-03    8.16       7.2  T
   5    -50.7354341 -0.882758E-08  0.106E-03    8.16      18.6  T
speedup  1.14
cpu  time for SCC    0.00 s
wall time for SCC    0.00 s
speedup  1.06
cpu  time for grad    0.01 s
wall time for grad    0.01 s
 E :    -50.44083197  G :  0.002809    pred/act E change: -0.199D-04 -0.767D-04
Maxdispl :   0.0689   ||displ|| :   0.1390   Lambda : -0.394D-04
Largest |displ|/coords:  0.0689 (   5)  0.0562 (   7)  0.0486 (   9)
................................................................................
.............................. CYCLE   58 ......................................
................................................................................
   1    -50.7357523 -0.507358E+02  0.624E-02    8.17       0.0  T
   2    -50.7357528 -0.522337E-06  0.468E-02    8.16       1.0  T
   3    -50.7357533 -0.473467E-06  0.439E-03    8.16       4.5  T
   4    -50.7357533 -0.652472E-07  0.131E-03    8.16      15.0  T
   5    -50.7357533 -0.232455E-08  0.565E-04    8.16      34.7  T
   6    -50.7357533 -0.530022E-09  0.225E-04    8.16      87.3  T
speedup  1.15
cpu  time for SCC    0.01 s
wall time for SCC    0.01 s
speedup  1.01
cpu  time for grad    0.01 s
wall time for grad    0.01 s
 E :    -50.44085861  G :  0.001947    pred/act E change: -0.660D-04 -0.266D-04
Maxdispl :   0.0826   ||displ|| :   0.1942   Lambda : -0.359D-04
Largest |displ|/coords:  0.0826 (   3)  0.0785 (   5)  0.0760 (   9)
................................................................................
.............................. CYCLE   59 ......................................
................................................................................
   1    -50.7353510 -0.507354E+02  0.908E-02    8.16       0.0  T
   2    -50.7353518 -0.820557E-06  0.682E-02    8.16       1.0  T
   3    -50.7353528 -0.960529E-06  0.570E-03    8.15       3.4  T
   4    -50.7353528 -0.567022E-07  0.179E-03    8.15      10.9  T
   5    -50.7353528 -0.431337E-08  0.762E-04    8.15      25.7  T
   6    -50.7353528 -0.839265E-09  0.361E-04    8.15      54.4  T
speedup  0.94
cpu  time for SCC    0.00 s
wall time for SCC    0.01 s
speedup  1.02
cpu  time for grad    0.01 s
wall time for grad    0.01 s
 E :    -50.44087893  G :  0.002487    pred/act E change: -0.201D-04 -0.203D-04
Maxdispl :   0.0659   ||displ|| :   0.1101   Lambda : -0.359D-04
Largest |displ|/coords:  0.0659 (   3)  0.0479 (   5)  0.0359 (   2)
................................................................................
.............................. CYCLE   60 ......................................
................................................................................
   1    -50.7373296 -0.507373E+02  0.553E-02    8.18       0.0  T
   2    -50.7373305 -0.886295E-06  0.407E-02    8.18       1.0  T
   3    -50.7373311 -0.566017E-06  0.573E-03    8.17       3.4  T
   4    -50.7373312 -0.116323E-06  0.175E-03    8.17      11.2  T
   5    -50.7373312 -0.383345E-08  0.513E-04    8.17      38.2  T
   6    -50.7373312 -0.325400E-09  0.276E-04    8.17      71.0  T
speedup  1.11
cpu  time for SCC    0.01 s
wall time for SCC    0.01 s
speedup  1.01
cpu  time for grad    0.01 s
wall time for grad    0.01 s
 E :    -50.44088038  G :  0.004106    pred/act E change: -0.186D-04 -0.145D-05
Maxdispl :   0.0429   ||displ|| :   0.0832   Lambda : -0.360D-04
Largest |displ|/coords:  0.0429 (   9)  0.0381 (   3)  0.0333 (   5)
................................................................................
.............................. CYCLE   61 ......................................
................................................................................
   1    -50.7363219 -0.507363E+02  0.400E-02    8.16       0.0  T
   2    -50.7363221 -0.216886E-06  0.298E-02    8.16       1.0  T
   3    -50.7363223 -0.171081E-06  0.317E-03    8.17       6.2  T
   4    -50.7363223 -0.287352E-07  0.842E-04    8.16      23.3  T
   5    -50.7363223 -0.100117E-08  0.350E-04    8.16      56.0  T
speedup  0.91
cpu  time for SCC    0.00 s
wall time for SCC    0.00 s
speedup  0.98
cpu  time for grad    0.01 s
wall time for grad    0.01 s
 E :    -50.44089867  G :  0.001980    pred/act E change: -0.182D-04 -0.183D-04
Maxdispl :   0.0110   ||displ|| :   0.0270   Lambda : -0.789D-05
Largest |displ|/coords:  0.0110 (   7)  0.0086 (   8)  0.0084 (   4)
................................................................................
.............................. CYCLE   62 ......................................
................................................................................
   1    -50.7361795 -0.507362E+02  0.145E-02    8.17       0.0  T
   2    -50.7361796 -0.744814E-07  0.105E-02    8.17       1.9  T
   3    -50.7361797 -0.481277E-07  0.182E-03    8.17      10.8  T
   4    -50.7361797 -0.641837E-08  0.455E-04    8.17      43.1  T
   5    -50.7361797 -0.271946E-09  0.149E-04    8.17     131.3  T
speedup  0.91
cpu  time for SCC    0.00 s
wall time for SCC    0.00 s
speedup  1.02
cpu  time for grad    0.01 s
wall time for grad    0.01 s
 E :    -50.44090419  G :  0.001123    pred/act E change: -0.181D-04 -0.552D-05
Maxdispl :   0.0386   ||displ|| :   0.0594   Lambda : -0.991D-05
Largest |displ|/coords:  0.0386 (   3)  0.0220 (   4)  0.0186 (   6)
................................................................................
.............................. CYCLE   63 ......................................
................................................................................
   1    -50.7361934 -0.507362E+02  0.321E-02    8.17       0.0  T
   2    -50.7361936 -0.203745E-06  0.232E-02    8.17       1.0  T
   3    -50.7361937 -0.180597E-06  0.323E-03    8.17       6.1  T
   4    -50.7361938 -0.124960E-07  0.790E-04    8.17      24.8  T
   5    -50.7361938 -0.914703E-09  0.300E-04    8.17      65.4  T
speedup  1.14
cpu  time for SCC    0.00 s
wall time for SCC    0.00 s
speedup  1.02
cpu  time for grad    0.01 s
wall time for grad    0.01 s
 E :    -50.44091105  G :  0.000716    pred/act E change: -0.395D-05 -0.686D-05
Maxdispl :   0.0554   ||displ|| :   0.0762   Lambda : -0.548D-05
Largest |displ|/coords:  0.0554 (   3)  0.0249 (   4)  0.0234 (   9)
................................................................................
.............................. CYCLE   64 ......................................
................................................................................
   1    -50.7361304 -0.507361E+02  0.376E-02    8.17       0.0  T
   2    -50.7361306 -0.221594E-06  0.277E-02    8.18       1.0  T
   3    -50.7361309 -0.245088E-06  0.361E-03    8.18       5.4  T
   4    -50.7361309 -0.116103E-07  0.888E-04    8.18      22.1  T
   5    -50.7361309 -0.121896E-08  0.346E-04    8.18      56.7  T
speedup  0.89
cpu  time for SCC    0.00 s
wall time for SCC    0.00 s
speedup  1.01
cpu  time for grad    0.01 s
wall time for grad    0.01 s
 E :    -50.44091474  G :  0.000783    pred/act E change: -0.498D-05 -0.369D-05
Maxdispl :   0.0376   ||displ|| :   0.0523   Lambda : -0.279D-05
Largest |displ|/coords:  0.0376 (   3)  0.0166 (   4)  0.0158 (   9)
................................................................................
.............................. CYCLE   65 ......................................
................................................................................
   1    -50.7362011 -0.507362E+02  0.246E-02    8.17       0.0  T
   2    -50.7362012 -0.945811E-07  0.183E-02    8.17       1.1  T
   3    -50.7362013 -0.109275E-06  0.210E-03    8.17       9.3  T
   4    -50.7362013 -0.484214E-08  0.574E-04    8.17      34.2  T
   5    -50.7362013 -0.543082E-09  0.222E-04    8.17      88.4  T
speedup  1.14
cpu  time for SCC    0.00 s
wall time for SCC    0.00 s
speedup  1.00
cpu  time for grad    0.01 s
wall time for grad    0.01 s
 E :    -50.44091681  G :  0.000594    pred/act E change: -0.275D-05 -0.207D-05
Maxdispl :   0.0469   ||displ|| :   0.0677   Lambda : -0.287D-05
Largest |displ|/coords:  0.0469 (   3)  0.0226 (   5)  0.0206 (   9)
................................................................................
.............................. CYCLE   66 ......................................
................................................................................
   1    -50.7362031 -0.507362E+02  0.317E-02    8.17       0.0  T
   2    -50.7362032 -0.153950E-06  0.236E-02    8.17       1.0  T
   3    -50.7362034 -0.179138E-06  0.278E-03    8.17       7.0  T
   4    -50.7362034 -0.953480E-08  0.770E-04    8.17      25.5  T
   5    -50.7362034 -0.861668E-09  0.291E-04    8.17      67.5  T
speedup  0.91
cpu  time for SCC    0.00 s
wall time for SCC    0.00 s
speedup  1.02
cpu  time for grad    0.01 s
wall time for grad    0.01 s
 E :    -50.44091888  G :  0.000629    pred/act E change: -0.140D-05 -0.207D-05
Maxdispl :   0.0325   ||displ|| :   0.0517   Lambda : -0.265D-05
Largest |displ|/coords:  0.0325 (   3)  0.0244 (   1)  0.0168 (   4)
[...]
 Highest eigenvalues
    1.374576    1.400939    1.410883    2.727802    3.235016    3.807501
 
cpu  time for ANC gen    0.01 s
wall time for ANC gen    0.01 s
................................................................................
.............................. CYCLE  147 ......................................
................................................................................
   1    -50.7395580 -0.507396E+02  0.129E-02    8.14       0.0  T
   2    -50.7395581 -0.260698E-07  0.961E-03    8.14       2.0  T
   3    -50.7395581 -0.299860E-07  0.125E-03    8.14      15.7  T
   4    -50.7395581 -0.212071E-08  0.279E-04    8.14      70.3  T
   5    -50.7395581 -0.153491E-09  0.119E-04    8.14     165.3  T
speedup  1.14
cpu  time for SCC    0.00 s
wall time for SCC    0.00 s
speedup  1.02
cpu  time for grad    0.01 s
wall time for grad    0.01 s
 E :    -50.45151528  G :  0.000528    pred/act E change:  0.000D+00 -0.101D-05
Maxdispl :   0.0032   ||displ|| :   0.0089   Lambda : -0.118D-05
Largest |displ|/coords:  0.0032 (   2)  0.0032 (   4)  0.0032 (  20)
................................................................................
.............................. CYCLE  148 ......................................
................................................................................
   1    -50.7395537 -0.507396E+02  0.832E-03    8.14       0.0  T
   2    -50.7395537 -0.105777E-07  0.626E-03    8.14       3.1  T
   3    -50.7395537 -0.134561E-07  0.649E-04    8.14      30.2  T
   4    -50.7395537 -0.434383E-09  0.216E-04    8.14      91.0  T
speedup  0.86
cpu  time for SCC    0.00 s
wall time for SCC    0.00 s
speedup  1.01
cpu  time for grad    0.01 s
wall time for grad    0.01 s
 E :    -50.45151619  G :  0.000323    pred/act E change:  0.000D+00 -0.912D-06
Maxdispl :   0.0089   ||displ|| :   0.0187   Lambda : -0.150D-05
Largest |displ|/coords:  0.0089 (   4)  0.0087 (   2)  0.0073 (  20)
................................................................................
.............................. CYCLE  149 ......................................
................................................................................
   1    -50.7395368 -0.507395E+02  0.151E-02    8.13       0.0  T
   2    -50.7395369 -0.268735E-07  0.113E-02    8.13       1.7  T
   3    -50.7395369 -0.325469E-07  0.119E-03    8.13      16.4  T
   4    -50.7395369 -0.130640E-08  0.285E-04    8.13      68.8  T
   5    -50.7395369 -0.995755E-10  0.118E-04    8.13     165.7  T
speedup  0.87
cpu  time for SCC    0.00 s
wall time for SCC    0.00 s
speedup  0.92
cpu  time for grad    0.01 s
wall time for grad    0.01 s
 E :    -50.45151714  G :  0.000203    pred/act E change: -0.589D-06 -0.950D-06
Maxdispl :   0.0082   ||displ|| :   0.0135   Lambda : -0.485D-06
Largest |displ|/coords:  0.0082 (   2)  0.0060 (   4)  0.0040 (  20)
................................................................................
.............................. CYCLE  150 ......................................
................................................................................
   1    -50.7395308 -0.507395E+02  0.896E-03    8.13       0.0  T
   2    -50.7395308 -0.879196E-08  0.672E-03    8.13       2.9  T
   3    -50.7395308 -0.106461E-07  0.700E-04    8.13      28.0  T
   4    -50.7395308 -0.500819E-09  0.137E-04    8.13     142.7  T
speedup  1.11
cpu  time for SCC    0.00 s
wall time for SCC    0.00 s
speedup  1.00
cpu  time for grad    0.01 s
wall time for grad    0.01 s
 E :    -50.45151751  G :  0.000229    pred/act E change: -0.752D-06 -0.370D-06
Maxdispl :   0.0149   ||displ|| :   0.0222   Lambda : -0.623D-06
Largest |displ|/coords:  0.0149 (   2)  0.0102 (   4)  0.0058 (   6)
................................................................................
.............................. CYCLE  151 ......................................
................................................................................
   1    -50.7395324 -0.507395E+02  0.127E-02    8.13       0.0  T
   2    -50.7395324 -0.152194E-07  0.950E-03    8.13       2.1  T
   3    -50.7395325 -0.176670E-07  0.901E-04    8.13      21.8  T
   4    -50.7395325 -0.101051E-08  0.238E-04    8.13      82.4  T
speedup  0.83
cpu  time for SCC    0.00 s
wall time for SCC    0.00 s
speedup  1.00
cpu  time for grad    0.01 s
wall time for grad    0.01 s
 E :    -50.45151794  G :  0.000229    pred/act E change: -0.242D-06 -0.427D-06
Maxdispl :   0.0139   ||displ|| :   0.0191   Lambda : -0.395D-06
Largest |displ|/coords:  0.0139 (   2)  0.0079 (   4)  0.0067 (   1)
................................................................................
.............................. CYCLE  152 ......................................
................................................................................
   1    -50.7395494 -0.507395E+02  0.869E-03    8.13       0.0  T
   2    -50.7395494 -0.687801E-08  0.653E-03    8.13       3.0  T
   3    -50.7395494 -0.791302E-08  0.551E-04    8.13      35.6  T
   4    -50.7395494 -0.513737E-09  0.208E-04    8.13      94.3  T
speedup  0.83
cpu  time for SCC    0.00 s
wall time for SCC    0.00 s
speedup  0.92
cpu  time for grad    0.01 s
wall time for grad    0.01 s
 E :    -50.45151823  G :  0.000189    pred/act E change: -0.312D-06 -0.296D-06
Maxdispl :   0.0161   ||displ|| :   0.0212   Lambda : -0.360D-06
Largest |displ|/coords:  0.0161 (   2)  0.0086 (   4)  0.0081 (   1)
................................................................................
.............................. CYCLE  153 ......................................
................................................................................
   1    -50.7395688 -0.507396E+02  0.870E-03    8.13       0.0  T
   2    -50.7395689 -0.710656E-08  0.655E-03    8.13       3.0  T
   3    -50.7395689 -0.827590E-08  0.510E-04    8.13      38.5  T
   4    -50.7395689 -0.526875E-09  0.210E-04    8.13      93.2  T
speedup  1.14
cpu  time for SCC    0.00 s
wall time for SCC    0.00 s
speedup  1.01
cpu  time for grad    0.01 s
wall time for grad    0.01 s
 E :    -50.45151849  G :  0.000168    pred/act E change: -0.197D-06 -0.262D-06
Maxdispl :   0.0136   ||displ|| :   0.0174   Lambda : -0.245D-06
Largest |displ|/coords:  0.0136 (   2)  0.0072 (   1)  0.0065 (   4)
................................................................................
.............................. CYCLE  154 ......................................
................................................................................
   1    -50.7395794 -0.507396E+02  0.639E-03    8.13       0.0  T
   2    -50.7395794 -0.478622E-08  0.481E-03    8.13       4.1  T
   3    -50.7395795 -0.536075E-08  0.405E-04    8.14      48.4  T
   4    -50.7395795 -0.379607E-09  0.171E-04    8.14     114.9  T
speedup  0.83
cpu  time for SCC    0.00 s
wall time for SCC    0.00 s
speedup  0.98
cpu  time for grad    0.01 s
wall time for grad    0.01 s
 E :    -50.45151867  G :  0.000164    pred/act E change: -0.180D-06 -0.181D-06
Maxdispl :   0.0125   ||displ|| :   0.0155   Lambda : -0.187D-06
Largest |displ|/coords:  0.0125 (   2)  0.0059 (   1)  0.0056 (   4)
................................................................................
.............................. CYCLE  155 ......................................
................................................................................
   1    -50.7395745 -0.507396E+02  0.580E-03    8.14       0.0  T
   2    -50.7395745 -0.464082E-08  0.437E-03    8.14       4.5  T
   3    -50.7395745 -0.524327E-08  0.401E-04    8.14      48.9  T
   4    -50.7395745 -0.354802E-09  0.138E-04    8.14     142.3  T
speedup  0.83
cpu  time for SCC    0.00 s
wall time for SCC    0.00 s
speedup  0.99
cpu  time for grad    0.01 s
wall time for grad    0.01 s
 E :    -50.45151881  G :  0.000135    pred/act E change: -0.123D-06 -0.132D-06
Maxdispl :   0.0079   ||displ|| :   0.0097   Lambda : -0.110D-06
Largest |displ|/coords:  0.0079 (   2)  0.0032 (   1)  0.0029 (   4)
................................................................................
.............................. CYCLE  156 ......................................
................................................................................
   1    -50.7395635 -0.507396E+02  0.360E-03    8.14       0.0  T
   2    -50.7395635 -0.219713E-08  0.270E-03    8.14       7.3  T
   3    -50.7395635 -0.234670E-08  0.313E-04    8.14      62.7  T
   4    -50.7395635 -0.187669E-09  0.757E-05    8.14     259.2  T
speedup  0.81
cpu  time for SCC    0.00 s
wall time for SCC    0.00 s
speedup  0.99
cpu  time for grad    0.01 s
wall time for grad    0.01 s
 E :    -50.45151889  G :  0.000094    pred/act E change: -0.934D-07 -0.824D-07
Maxdispl :   0.0064   ||displ|| :   0.0078   Lambda : -0.806D-07
Largest |displ|/coords:  0.0064 (   2)  0.0020 (   6)  0.0017 (   4)

   *** GEOMETRY OPTIMIZATION CONVERGED AFTER 156 ITERATIONS ***

------------------------------------------------------------------------
 total energy gain (kcal):     -0.0023
------------------------------------------------------------------------
================
 final structure:
================
$coord
       -0.57100599615714       -0.08859721659158       -2.66957037993778      S 
        1.54769595407646       -0.16506219041586       -4.33952539619360      O 
       -0.95499261057625        2.26577139216499       -1.34080896325282      O 
       -0.26588535753679       -2.17198445443430       -0.63831138439986      O 
       -2.98372558113731       -0.78556128740823       -4.07751168550780      O 
       -4.48250353062032       -0.27307659628136       -2.92749802128842      H 
        1.17803560351112       -3.37721234662237       -1.24804216824561      H 
        6.16371186589152       -1.79126517786627        0.84929958159685      O 
        5.49355874160578       -0.10283273283968        0.47894046255289      H 
        5.89312636237243       -2.07980436459290        2.61645008708679      H 
       -4.17823577264563       -1.52690328037036        2.96072272516954      O 
       -2.81707496342876       -2.33012235274532        2.05302146739971      H 
       -3.41259539743800       -0.02955898302370        3.75940617967921      H 
        3.44186338710513       -4.50323831343570       -2.35053540797791      O 
        3.45590834449319       -3.44069701210931       -3.83915888004762      H 
        4.72612922517222       -3.77590353443089       -1.20294036441211      H 
       -6.21267003123915        0.70659738668623       -0.93659317804974      O 
       -5.73565539335310       -0.25996315383135        0.61965524779285      H 
       -5.58200357807519        2.39153769928495       -0.68055482025267      H 
        4.05391359709065        2.68673961100686       -0.43663169380288      O 
        2.22851264499612        2.69067005802438       -0.63982959228693      H 
        4.71245319293777        2.92945473637151       -2.11077763325205      H 
       -1.71746918993055        2.83497899960261        4.12053475194704      N 
       -0.04418065006577        2.75259730320741        5.04386565079312      H 
       -2.60899281774132        4.42890407439278        4.69047010621176      H 
       -1.32791803047738        3.01453175510200        2.24592325201840      H 
$end
 
 Bond Distances (Angstroems)
 ---------------------------
S1-O2=1.4281         S1-O3=1.4450         S1-O4=1.5482         S1-O5=1.5236         O2-S1=1.4281         O3-S1=1.4450         
O4-S1=1.5482         O4-H7=1.0463         O5-S1=1.5236         O5-H6=1.0358         H6-O5=1.0358         H7-O4=1.0463         
O8-H9=0.9811         O8-H10=0.9583        H9-O8=0.9811         H10-O8=0.9583        O11-H12=0.9645       O11-H13=0.9852       
H12-O11=0.9645       H13-O11=0.9852       O14-H15=0.9679       O14-H16=0.9893       H15-O14=0.9679       H16-O14=0.9893       
O17-H18=1.0018       O17-H19=0.9616       H18-O17=1.0018       H19-O17=0.9616       O20-H21=0.9719       O20-H22=0.9606       
H21-O20=0.9719       H22-O20=0.9606       N23-H24=1.0123       N23-H25=1.0124       N23-H26=1.0176       H24-N23=1.0123       
H25-N23=1.0124       H26-N23=1.0176       
 N  H  Rav=1.0141 sigma=0.0025  Rmin=1.0123  Rmax=1.0176     3
 O  H  Rav=0.9854 sigma=0.0280  Rmin=0.9583  Rmax=1.0463    12
 S  O  Rav=1.4862 sigma=0.0508  Rmin=1.4281  Rmax=1.5482     4
 
 selected bond angles (degree)
 --------------------
O3-S1-O2=115.84                O4-S1-O2=109.12                O4-S1-O3=106.91                O5-S1-O2=110.39                
O5-S1-O3=109.20                O5-S1-O4=104.75                H7-O4-S1=107.23                H6-O5-S1=106.92                
H10-O8-H9=106.62               
 
 selected dihedral angles (degree)
 ---------------------------------
H7-O4-S1-O2=346.75            H7-O4-S1-O3=220.76            H7-O4-S1-O5=104.95            H6-O5-S1-O2=193.86            
H6-O5-S1-O3=322.31            H6-O5-S1-O4= 76.52            
 
 CMA Distance (Angstroems)
 ---------------------------
R(CMA):  1.8123

========================================================================
 FINAL SINGLEPOINT CALCULATION ON OPTIMIZED GEOMETRY
========================================================================

 Ncao       : 65
 Nao        : 64
 Nshell     : 38
 Nel        : 80
 T(el)      :   300.0
 intcut     :    25.0
 scfconv/Eh :  0.100E-05
   qconv/e  :  0.100E-03
 intneglect :  0.100E-07
 broydamp   :      0.250
 iter      E             dE          RMSdq      gap      omega  full diag
   1    -50.7395635 -0.507396E+02  0.249E-05    8.14       0.0  T
   2    -50.7395635 -0.873968E-12  0.160E-05    8.14    1228.9  T
   3    -50.7395635 -0.554223E-12  0.655E-06    8.14    2996.2  T
speedup  1.11
cpu  time for SCC    0.00 s
wall time for SCC    0.00 s

   *** convergence criteria satisfied after 3 iterations ***

          eigenvalues
 #    :          28         29         30         31         32         33         34         35
 occ. :        2.000      2.000      2.000      2.000      2.000      2.000      2.000      2.000
 eps  :       -13.952    -13.679    -13.500    -13.131    -12.943    -12.877    -12.660    -12.639
 #    :          36         37         38         39         40         41         42         43
 occ. :        2.000      2.000      2.000      2.000      2.000      0.000      0.000      0.000
 eps  :       -12.532    -12.434    -12.346    -12.003    -11.218     -3.082     -0.874     -0.417
 #    :          44         45         46         47         48         49         50         51
 occ. :        0.000      0.000      0.000      0.000      0.000      0.000      0.000      0.000
 eps  :         0.122      0.429      0.897      1.807      2.379      3.728      3.875      4.806


   #   Z            q   n(s)   n(p)   n(d)      C6AA      α(0)
   1  16 S      1.738  1.579  1.753  0.931    87.915    15.781
   2   8 O     -0.701  1.755  4.946  0.000    28.744     7.188
   3   8 O     -0.735  1.763  4.972  0.000    29.693     7.306
   4   8 O     -0.660  1.765  4.895  0.000    26.649     6.968
   5   8 O     -0.619  1.761  4.858  0.000    25.629     6.834
   6   1 H      0.396  0.604  0.000  0.000     0.487     1.094
   7   1 H      0.393  0.607  0.000  0.000     0.493     1.101
   8   8 O     -0.609  1.746  4.863  0.000    25.402     6.802
   9   1 H      0.328  0.672  0.000  0.000     0.642     1.258
  10   1 H      0.288  0.712  0.000  0.000     0.758     1.367
  11   8 O     -0.611  1.750  4.861  0.000    25.457     6.810
  12   1 H      0.301  0.699  0.000  0.000     0.717     1.330
  13   1 H      0.318  0.682  0.000  0.000     0.670     1.286
  14   8 O     -0.590  1.753  4.836  0.000    24.918     6.738
  15   1 H      0.321  0.679  0.000  0.000     0.660     1.277
  16   1 H      0.349  0.651  0.000  0.000     0.590     1.207
  17   8 O     -0.601  1.757  4.844  0.000    25.198     6.776
  18   1 H      0.349  0.651  0.000  0.000     0.592     1.209
  19   1 H      0.306  0.694  0.000  0.000     0.705     1.318
  20   8 O     -0.607  1.736  4.870  0.000    25.343     6.794
  21   1 H      0.308  0.692  0.000  0.000     0.696     1.311
  22   1 H      0.302  0.698  0.000  0.000     0.716     1.329
  23   7 N     -0.457  1.375  4.082  0.000    32.016     8.403
  24   1 H      0.155  0.845  0.000  0.000     1.369     1.833
  25   1 H      0.153  0.847  0.000  0.000     1.378     1.839
  26   1 H      0.185  0.815  0.000  0.000     1.187     1.707

 Mol. C6AA /au·bohr⁶  :       5461.442774
 Mol. C8AA /au·bohr⁸  :     117785.401668
 Mol. α(0) /au        :        106.865713

 
 Wiberg/Mayer (AO) data. WBOs > 0.1 written file <wbo>
 largest (>0.05) Wiberg bond orders for each atom
           total WBO             WBO to atom ...
     1  S   4.803    O    2 1.423    O    3 1.331    O    5 1.033    O    4 0.981
     2  O   1.752    S    1 1.423    O    3 0.116    O    4 0.093    O    5 0.078
     3  O   1.729    S    1 1.331    O    2 0.116    O    5 0.092    O    4 0.079
     4  O   1.933    S    1 0.981    H    7 0.627    O    2 0.093    O    3 0.079    O    5 0.066    O   14 0.061
     5  O   1.976    S    1 1.033    H    6 0.646    O    3 0.092    O    2 0.078    O    4 0.066    O   17 0.056
     6  H   0.843    O    5 0.646    O   17 0.180
     7  H   0.846    O    4 0.627    O   14 0.201
     8  O   1.876    H   10 0.914    H    9 0.831    H   16 0.070
     9  H   0.892    O    8 0.831    O   20 0.059
    10  H   0.917    O    8 0.914
    11  O   1.907    H   12 0.889    H   13 0.828    H   18 0.098
    12  H   0.909    O   11 0.889
    13  H   0.899    O   11 0.828    N   23 0.069
    14  O   1.998    H   15 0.878    H   16 0.807    H    7 0.201    O    4 0.061
    15  H   0.897    O   14 0.878
    16  H   0.878    O   14 0.807    O    8 0.070
    17  O   1.969    H   19 0.902    H   18 0.779    H    6 0.180    O    5 0.056
    18  H   0.878    O   17 0.779    O   11 0.098
    19  H   0.907    O   17 0.902
    20  O   1.872    H   22 0.906    H   21 0.852    H    9 0.059
    21  H   0.905    O   20 0.852
    22  H   0.909    O   20 0.906
    23  N   3.008    H   25 0.974    H   24 0.973    H   26 0.942    H   13 0.069
    24  H   0.976    N   23 0.973
    25  H   0.976    N   23 0.974
    26  H   0.966    N   23 0.942
 MOs/occ written to file <molden.input>
 
molecular dipole:
                 x           y           z       tot (Debye)
 q only:        0.246       0.359       0.852
   full:        0.529       1.022       0.806       3.572
molecular quadrupole (traceless):
                xx          xy          yy          xz          yz          zz
 q only:       -3.175      -3.999       2.177       0.893       1.266       0.998
  q+dip:       -8.725      -4.408       4.656       2.332       2.138       4.070
   full:       -8.628      -4.704       4.446       2.448       2.032       4.182

SCC energy    :     -50.7395635
rep           :       0.2877144
ES            :       0.2291421
AES           :      -0.0549950
AXC           :      -0.0073688
disp          :      -0.0190122
XB            :       0.0000000
fix           :       0.0000000
total E       :     -50.4515189
atomizationE  :       4.9818231     3126.14
(atE without considering molecular charge,
 total energy contains solvation terms)
H-L gap (eV)  :          8.1354
optimized geometry written to: xtbopt.xyz


------------------------------------------------------------------------
 * finished run on 2019/09/16 at 11:27:55.940     
------------------------------------------------------------------------
 total:
 * wall-time:     0 d,  0 h,  0 min,  3.395 sec
 *  cpu-time:     0 d,  0 h,  0 min,  3.286 sec
 * ratio c/w:     0.968 speedup
 SCF:
 * wall-time:     0 d,  0 h,  0 min,  0.228 sec
 *  cpu-time:     0 d,  0 h,  0 min,  0.138 sec
 * ratio c/w:     0.605 speedup
 ANC optimizer:
 * wall-time:     0 d,  0 h,  0 min,  3.143 sec
 *  cpu-time:     0 d,  0 h,  0 min,  3.125 sec
 * ratio c/w:     0.994 speedup

