      -----------------------------------------------------------      
     |                   =====================                   |     
     |                           x T B                           |     
     |                   =====================                   |     
     |                         S. Grimme                         |     
     |          Mulliken Center for Theoretical Chemistry        |     
     |                    University of Bonn                     |     
     |                 Version 6.0.1 (SAW181210)                 |     
      -----------------------------------------------------------      

   This program is distributed in the hope that it will be useful,
   but WITHOUT ANY WARRANTY; without even the implied warranty of
   MERCHANTABILITY or FITNESS FOR A PARTICULAR PURPOSE.
   
   FOR NON-COMMERCIAL, ACADEMIA USE ONLY.
   
   Cite this work as:
   S. Grimme, C. Bannwarth, P. Shushkov, J. Comput. Theory Chem., 2017,
   13, 1989-2009.
   C. Bannwarth, S. Ehlert and S. Grimme., ChemRxiv, 2018, preprint.
   http://doi.org/10.26434/chemrxiv.7246238.v1
   
   for sTDA-xTB:
   S. Grimme and C. Bannwarth, J. Chem. Phys., 2016, 145, 054103.
   
   in the mass-spec context:
   V. Asgeirsson, C. Bauer and S. Grimme, Chem. Sci., 2017, 8, 4879.
   
   if GBSA is used:
   P. Shushkov, F. März and S. Grimme, unpublished.
   
   for ANC optimizer:
   S. Grimme, unpublished.
   Rational Function algorithm used in ANCopt:
   F. Eckert, P. Pulay, H.-J. Werner, J. Comput. Chem., 1997, 18, 1473.
   
   with help from (in alphabetical order)
   C. Bannwarth, F. Bohle, G. Brandenburg, E. Caldeweyher, M. Checinski,
   S. Dohm, S. Ehlert, S. Ehrlich, F. März, H. Neugebauer, J. Pisarek,
   P. Pracht, P. Shushkov, and S. Spicher.
   
 * started run on 2019/09/16 at 11:48:06.834     
========================================================================
 # omp threads = 1
========================================================================
number of atoms            : 26
number of electrons        : 80
charge                     : 0
spin                       : .0
first test random number   : .7665

########################################################################
# WARNING! Please study the warnings concerning your input carefully
#  - XTBPATH is not set, using XTBHOME instead
#  - the use of '-opt' is discouraged, please use '--opt' next time
#  - the use of '-chrg' is discouraged, please use '--chrg' next time
#  - the use of '-uhf' is discouraged, please use '--uhf' next time
########################################################################

           ------------------------------------------------- 
          |                 G F N 2 - x T B                 |
          | Geometry, Frequencies, Noncovalent interactions |
          |            JCTC 2018 parametrisation            |
           ------------------------------------------------- 
      method parameters     
 k(s)        :  1.8500
 k(p)        :  2.2300
 k(d)        :  2.2300
 k(f)        :  2.0000
 kEN (H0ij)  : -2.0000
 D4 a1       :  0.5200
 D4 a2       :  5.0000
 D4 s6       :  1.0000
 D4 s8       :  2.7000
 D4 s9       :  5.0000
 alphaj      :  2.0000


            Z     q(EN)     CN     RAES       Cart. coordinates
     1  S   6.0    0.61    4.50    4.56    -1.08049    -0.72999     4.10648
     2  O   6.0   -0.27    1.12    1.80    -1.72746     0.98732     6.24199
     3  O   6.0   -0.31    1.22    1.80     1.71555    -1.02435     3.95277
     4  O   6.0   -0.27    2.11    1.84    -2.02971     0.34945     1.73029
     5  O   6.0   -0.25    2.10    1.84    -2.25093    -3.21291     4.52802
     6  H   1.0    0.16    1.28    1.49    -3.38091    -3.58987     3.15977
     7  H   1.0    0.16    1.26    1.48    -1.26560     1.97148     1.45414
     8  O   6.0   -0.29    2.01    1.83     3.30342    -2.02461    -2.41633
     9  H   1.0    0.16    1.02    1.43     3.99538    -0.80111    -1.25924
    10  H   1.0    0.14    0.97    1.43     4.64327    -3.22201    -2.70898
    11  O   6.0   -0.31    2.06    1.83     5.25624     1.09982     1.20865
    12  H   1.0    0.15    0.97    1.43     6.86619     1.19251     2.05368
    13  H   1.0    0.17    1.06    1.44     4.15634     0.22134     2.36324
    14  O   6.0   -0.29    2.04    1.83    -1.68017    -2.27730    -3.27994
    15  H   1.0    0.17    1.03    1.43     0.12471    -2.43473    -3.10044
    16  H   1.0    0.15    1.03    1.43    -1.97024    -0.53405    -3.71761
    17  O   6.0   -0.31    2.03    1.83     1.16829     4.21393     0.78851
    18  H   1.0    0.16    1.02    1.43     2.74551     3.30839     0.70475
    19  H   1.0    0.15    0.97    1.43     1.52421     5.71196     1.76001
    20  O   6.0   -0.28    2.02    1.83    -4.63863    -4.33948     0.21645
    21  H   1.0    0.15    0.97    1.43    -5.89063    -5.39635    -0.57736
    22  H   1.0    0.17    1.04    1.43    -3.63942    -3.66800    -1.14931
    23  N   5.0   -0.22    2.99    1.92    -1.65269     3.01248    -3.97396
    24  H   1.0    0.10    0.99    1.43    -0.55776     3.34424    -5.52384
    25  H   1.0    0.12    1.01    1.43    -0.60940     3.59351    -2.46233
    26  H   1.0    0.10    0.99    1.43    -3.12510     4.24833    -4.09942

  Z AO/shell   Hii/eV     exponent
  1     Wed Apr 25 08:07:45 CEST 2018   EN: 2.200 GM2: 0.406  GM3: 0.0800  RAES: 1.40
     1s    -10.707211    1.230000
  7     Wed Apr 25 08:07:45 CEST 2018   EN: 3.040 GM2: 0.461  GM3:-0.0640  RAES: 1.90
     2s    -16.686243    2.339881
     2p    -12.523956    2.014332
  8     Wed Apr 25 08:07:45 CEST 2018   EN: 3.440 GM2: 0.452  GM3:-0.0517  RAES: 1.80
     2s    -20.229985    2.439742
     2p    -15.503117    2.137023
 16     Tue Apr 24 11:44:34 CEST 2018   EN: 2.580 GM2: 0.340  GM3:-0.0502  RAES: 3.10
     3s    -20.029654    1.981333
     3p    -11.377694    2.025643
     3d     -0.420282    1.702555
 no old-style atom pair restraining (fixing) potential

molecular fragmentation (1/2 indicates fragments):
11111112222222222222222222
# atoms in fragment 1/2:     7    19
 fragment masses (1/2) :       98.07      107.11
CMA distance (Bohr)    :   5.524
constraining FC (au)   :  0.0500
           ------------------------------------------------- 
          |        Self-Consistent Charge Iterations        |
           ------------------------------------------------- 

 Ncao       : 65
 Nao        : 64
 Nshell     : 38
 Nel        : 80
 T(el)      :   300.0
 intcut     :    25.0
 scfconv/Eh :  0.100E-05
   qconv/e  :  0.100E-03
 intneglect :  0.100E-07
 broydamp   :      0.250
 iter      E             dE          RMSdq      gap      omega  full diag
   1    -50.6203527 -0.506204E+02  0.701E+00   10.38       0.0  T
   2    -50.6767058 -0.563531E-01  0.503E+00    9.67       1.0  T
   3    -50.7154324 -0.387266E-01  0.143E+00    8.46       1.0  T
   4    -50.7216419 -0.620953E-02  0.559E-01    8.74       1.0  T
   5    -50.7222156 -0.573648E-03  0.356E-01    8.65       1.0  T
   6    -50.7228105 -0.594872E-03  0.161E-01    8.64       1.0  T
   7    -50.7229684 -0.157918E-03  0.657E-02    8.62       1.0  T
   8    -50.7229910 -0.226558E-04  0.376E-02    8.62       1.0  T
   9    -50.7229998 -0.873258E-05  0.159E-02    8.63       1.2  T
  10    -50.7230016 -0.178186E-05  0.297E-03    8.63       6.6  T
  11    -50.7230016 -0.284520E-07  0.143E-03    8.63      13.7  T
  12    -50.7230016 -0.769339E-08  0.665E-04    8.63      29.5  T
  13    -50.7230016 -0.238928E-08  0.156E-04    8.63     125.4  T
speedup  1.04
cpu  time for SCC    0.02 s
wall time for SCC    0.02 s

   *** convergence criteria satisfied after 13 iterations ***

          eigenvalues
 #    :          28         29         30         31         32         33         34         35
 occ. :        2.000      2.000      2.000      2.000      2.000      2.000      2.000      2.000
 eps  :       -13.505    -12.766    -12.725    -12.467    -12.427    -12.030    -11.961    -11.927
 #    :          36         37         38         39         40         41         42         43
 occ. :        2.000      2.000      2.000      2.000      2.000      0.000      0.000      0.000
 eps  :       -11.812    -11.442    -11.140    -11.053    -10.776     -2.146     -0.937     -0.154
 #    :          44         45         46         47         48         49         50         51
 occ. :        0.000      0.000      0.000      0.000      0.000      0.000      0.000      0.000
 eps  :         0.412      1.093      1.540      1.944      2.487      3.514      5.233      5.322


   #   Z            q   n(s)   n(p)   n(d)      C6AA      α(0)
   1  16 S      1.671  1.574  1.800  0.956    89.430    15.916
   2   8 O     -0.705  1.776  4.929  0.000    28.847     7.201
   3   8 O     -0.730  1.765  4.965  0.000    29.547     7.288
   4   8 O     -0.552  1.711  4.841  0.000    24.043     6.619
   5   8 O     -0.542  1.714  4.827  0.000    23.802     6.586
   6   1 H      0.412  0.588  0.000  0.000     0.456     1.056
   7   1 H      0.408  0.592  0.000  0.000     0.463     1.064
   8   8 O     -0.605  1.742  4.863  0.000    25.306     6.789
   9   1 H      0.323  0.677  0.000  0.000     0.655     1.271
  10   1 H      0.281  0.719  0.000  0.000     0.782     1.389
  11   8 O     -0.622  1.740  4.882  0.000    25.714     6.844
  12   1 H      0.294  0.706  0.000  0.000     0.738     1.350
  13   1 H      0.346  0.654  0.000  0.000     0.598     1.215
  14   8 O     -0.640  1.742  4.897  0.000    26.155     6.903
  15   1 H      0.319  0.681  0.000  0.000     0.665     1.281
  16   1 H      0.307  0.693  0.000  0.000     0.700     1.314
  17   8 O     -0.615  1.743  4.872  0.000    25.547     6.822
  18   1 H      0.337  0.663  0.000  0.000     0.620     1.237
  19   1 H      0.298  0.702  0.000  0.000     0.727     1.339
  20   8 O     -0.635  1.743  4.892  0.000    26.049     6.888
  21   1 H      0.288  0.712  0.000  0.000     0.758     1.367
  22   1 H      0.342  0.658  0.000  0.000     0.608     1.224
  23   7 N     -0.451  1.400  4.050  0.000    31.836     8.380
  24   1 H      0.147  0.853  0.000  0.000     1.420     1.867
  25   1 H      0.180  0.820  0.000  0.000     1.216     1.727
  26   1 H      0.143  0.857  0.000  0.000     1.450     1.886

 Mol. C6AA /au·bohr⁶  :       5452.690577
 Mol. C8AA /au·bohr⁸  :     117681.602628
 Mol. α(0) /au        :        106.825067

 
 Wiberg/Mayer (AO) data. WBOs > 0.1 written file <wbo>
 largest (>0.05) Wiberg bond orders for each atom
           total WBO             WBO to atom ...
     1  S   4.858    O    2 1.386    O    3 1.318    O    5 1.075    O    4 1.042
     2  O   1.703    S    1 1.386    O    3 0.133    O    4 0.092    O    5 0.082
     3  O   1.694    S    1 1.318    O    2 0.133    O    4 0.088    O    5 0.076    H   13 0.054
     4  O   2.050    S    1 1.042    H    7 0.755    O    2 0.092    O    3 0.088
     5  O   2.064    S    1 1.075    H    6 0.749    O    2 0.082    O    3 0.076
     6  H   0.830    O    5 0.749    O   20 0.057
     7  H   0.833    O    4 0.755    O   17 0.054
     8  O   1.843    H   10 0.916    H    9 0.850
     9  H   0.896    O    8 0.850
    10  H   0.921    O    8 0.916
    11  O   1.870    H   12 0.902    H   13 0.820
    12  H   0.913    O   11 0.902
    13  H   0.880    O   11 0.820    O    3 0.054
    14  O   1.847    H   16 0.860    H   15 0.853    H   22 0.061
    15  H   0.898    O   14 0.853
    16  H   0.906    O   14 0.860
    17  O   1.870    H   19 0.904    H   18 0.841    H    7 0.054
    18  H   0.887    O   17 0.841
    19  H   0.911    O   17 0.904
    20  O   1.833    H   21 0.908    H   22 0.819    H    6 0.057
    21  H   0.917    O   20 0.908
    22  H   0.883    O   20 0.819    O   14 0.061
    23  N   2.977    H   24 0.976    H   26 0.976    H   25 0.946
    24  H   0.978    N   23 0.976
    25  H   0.968    N   23 0.946
    26  H   0.980    N   23 0.976
 MOs/occ written to file <molden.input>
 
molecular dipole:
                 x           y           z       tot (Debye)
 q only:        0.657       0.587      -1.478
   full:        1.076       0.919      -1.722       5.665
molecular quadrupole (traceless):
                xx          xy          yy          xz          yz          zz
 q only:       12.744       4.834       8.847       4.408      -1.434     -21.590
  q+dip:       15.884       5.084      11.485       5.560      -2.928     -27.369
   full:       16.122       5.379      11.518       5.919      -3.045     -27.640

SCC energy    :     -50.7230016
rep           :       0.3158125
ES            :       0.2464269
AES           :      -0.0447155
AXC           :      -0.0067910
disp          :      -0.0173910
XB            :       0.0000000
fix           :       0.0000000
total E       :     -50.4067865
atomizationE  :       4.9370907     3098.07
(atE without considering molecular charge,
 total energy contains solvation terms)
H-L gap (eV)  :          8.6300
           ------------------------------------------------- 
          |                 ===============                 |
          |                   A N C O P T                   |
          |                 ===============                 |
          |          Approximate Normal Coordinate          |
          |           Rational Function Optimizer           |
           ------------------------------------------------- 
dumping coords to <xtbopt.coord> and <xtbopt.log>
 optlevel               2
 Maxcycle             520
 Maxmicro              25
 Econv         1.000000000000000E-007
 Gconv         2.000000000000000E-004
 Maxdispl       1.00000000000000     
 Hlow          5.000000000000000E-003
 S6             20.0000000000000     
 Nvar               72

generating ANC from model Hessian ...
 Shifting diagonal of input Hessian by   5.010559478677111E-003
 Lowest  eigenvalues of input Hessian
    0.005000   -0.000000   -0.000000   -0.000000    0.000000    0.000000
    0.000000    0.005081    0.005134    0.005599    0.005638    0.005771
    0.005986    0.006222    0.006477    0.006692    0.007046    0.007455
 Highest eigenvalues
    1.427951    1.453518    1.553494    3.211971    3.409929    3.462392
 
cpu  time for ANC gen    0.01 s
wall time for ANC gen    0.01 s
................................................................................
.............................. CYCLE    1 ......................................
................................................................................
   1    -50.7230016 -0.507230E+02  0.640E-05    8.63       0.0  T
   2    -50.7230016 -0.102673E-10  0.475E-05    8.63     413.0  T
   3    -50.7230016 -0.688516E-11  0.276E-05    8.63     710.4  T
speedup  1.07
cpu  time for SCC    0.00 s
wall time for SCC    0.00 s
speedup  0.99
cpu  time for grad    0.01 s
wall time for grad    0.01 s
 E :    -50.40678650  G :  0.183246    pred/act E change:  0.000D+00  0.319D-07
Maxdispl :   0.1198   ||displ|| :   0.3329   Lambda : -0.168D-01
Largest |displ|/coords:  0.1198 (  29)  0.0986 (   8)  0.0938 (  22)
................................................................................
.............................. CYCLE    2 ......................................
................................................................................
   1    -50.7228313 -0.507228E+02  0.418E-01    8.41       0.0  T
   2    -50.7230995 -0.268180E-03  0.318E-01    8.38       1.0  T
   3    -50.7231737 -0.742572E-04  0.136E-01    8.34       1.0  T
   4    -50.7231960 -0.223127E-04  0.223E-02    8.34       1.0  T
   5    -50.7231971 -0.110558E-05  0.759E-03    8.35       2.6  T
   6    -50.7231972 -0.557819E-07  0.271E-03    8.35       7.2  T
   7    -50.7231972 -0.170470E-07  0.144E-03    8.35      13.6  T
speedup  0.97
cpu  time for SCC    0.01 s
wall time for SCC    0.01 s
speedup  1.01
cpu  time for grad    0.01 s
wall time for grad    0.01 s
 E :    -50.41977015  G :  0.122526    pred/act E change:  0.000D+00 -0.130D-01
Maxdispl :   0.1108   ||displ|| :   0.2784   Lambda : -0.906D-02
Largest |displ|/coords:  0.1108 (  11)  0.1035 (  30)  0.1024 (  15)
................................................................................
.............................. CYCLE    3 ......................................
................................................................................
   1    -50.7301420 -0.507301E+02  0.215E-01    8.25       0.0  T
   2    -50.7303211 -0.179118E-03  0.169E-01    8.25       1.0  T
   3    -50.7303654 -0.443687E-04  0.108E-01    8.25       1.0  T
   4    -50.7303689 -0.341104E-05  0.183E-02    8.26       1.1  T
   5    -50.7303692 -0.374555E-06  0.436E-03    8.26       4.5  T
   6    -50.7303693 -0.234935E-07  0.151E-03    8.26      13.0  T
speedup  1.11
cpu  time for SCC    0.01 s
wall time for SCC    0.01 s
speedup  0.99
cpu  time for grad    0.01 s
wall time for grad    0.01 s
 E :    -50.42691330  G :  0.066976    pred/act E change: -0.932D-02 -0.714D-02
Maxdispl :   0.1131   ||displ|| :   0.3111   Lambda : -0.456D-02
Largest |displ|/coords:  0.1131 (   8)  0.1120 (  11)  0.0978 (  15)
................................................................................
.............................. CYCLE    4 ......................................
................................................................................
   1    -50.7298790 -0.507299E+02  0.270E-01    8.10       0.0  T
   2    -50.7300005 -0.121448E-03  0.207E-01    8.11       1.0  T
   3    -50.7300304 -0.299655E-04  0.881E-02    8.12       1.0  T
   4    -50.7300398 -0.933966E-05  0.176E-02    8.12       1.1  T
   5    -50.7300402 -0.427668E-06  0.418E-03    8.12       4.7  T
   6    -50.7300402 -0.185024E-07  0.180E-03    8.12      10.9  T
speedup  0.93
cpu  time for SCC    0.01 s
wall time for SCC    0.01 s
speedup  0.99
cpu  time for grad    0.01 s
wall time for grad    0.01 s
 E :    -50.43034959  G :  0.035145    pred/act E change: -0.488D-02 -0.344D-02
Maxdispl :   0.1696   ||displ|| :   0.4287   Lambda : -0.418D-02
Largest |displ|/coords:  0.1696 (  11)  0.1382 (  15)  0.1355 (  27)
................................................................................
.............................. CYCLE    5 ......................................
................................................................................
   1    -50.7368516 -0.507369E+02  0.322E-01    7.90       0.0  T
   2    -50.7370664 -0.214812E-03  0.248E-01    7.91       1.0  T
   3    -50.7371245 -0.580863E-04  0.109E-01    7.94       1.0  T
   4    -50.7371391 -0.145971E-04  0.259E-02    7.96       1.0  T
   5    -50.7371398 -0.757011E-06  0.494E-03    7.96       4.0  T
   6    -50.7371399 -0.299949E-07  0.243E-03    7.96       8.1  T
speedup  1.11
cpu  time for SCC    0.01 s
wall time for SCC    0.01 s
speedup  1.00
cpu  time for grad    0.01 s
wall time for grad    0.01 s
 E :    -50.43187736  G :  0.033130    pred/act E change: -0.250D-02 -0.153D-02
Maxdispl :   0.2574   ||displ|| :   0.4170   Lambda : -0.247D-02
Largest |displ|/coords:  0.2574 (  11)  0.1546 (   8)  0.1147 (  14)
................................................................................
.............................. CYCLE    6 ......................................
................................................................................
   1    -50.7188183 -0.507188E+02  0.581E-01    7.70       0.0  T
   2    -50.7189883 -0.170056E-03  0.433E-01    7.71       1.0  T
   3    -50.7190863 -0.980161E-04  0.807E-02    7.72       1.0  T
   4    -50.7191094 -0.230556E-04  0.196E-02    7.73       1.0  T
   5    -50.7191103 -0.944440E-06  0.712E-03    7.73       2.8  T
   6    -50.7191104 -0.101024E-06  0.461E-03    7.73       4.3  T
   7    -50.7191105 -0.451702E-07  0.114E-03    7.73      17.2  T
speedup  0.98
cpu  time for SCC    0.01 s
wall time for SCC    0.01 s
speedup  0.94
cpu  time for grad    0.01 s
wall time for grad    0.01 s
 E :    -50.43044901  G :  0.065943    pred/act E change: -0.247D-02  0.143D-02
Maxdispl :   0.2211   ||displ|| :   0.5070   Lambda : -0.144D-01
Largest |displ|/coords:  0.2211 (  11)  0.1794 (   7)  0.1748 (  13)
................................................................................
.............................. CYCLE    7 ......................................
................................................................................
   1    -50.7295218 -0.507295E+02  0.793E-01    7.83       0.0  T
   2    -50.7298855 -0.363642E-03  0.597E-01    7.84       1.0  T
   3    -50.7301334 -0.247932E-03  0.115E-01    7.86       1.0  T
   4    -50.7301814 -0.479625E-04  0.252E-02    7.85       1.0  T
   5    -50.7301830 -0.165887E-05  0.115E-02    7.85       1.7  T
   6    -50.7301831 -0.728952E-07  0.564E-03    7.84       3.5  T
   7    -50.7301832 -0.100987E-06  0.128E-03    7.84      15.4  T
speedup  0.97
cpu  time for SCC    0.01 s
wall time for SCC    0.01 s
speedup  1.00
cpu  time for grad    0.01 s
wall time for grad    0.01 s
 E :    -50.43069330  G :  0.059443    pred/act E change: -0.145D-02 -0.244D-03
Maxdispl :   0.1576   ||displ|| :   0.3013   Lambda : -0.490D-02
Largest |displ|/coords:  0.1576 (   8)  0.0834 (  19)  0.0813 (  20)
................................................................................
.............................. CYCLE    8 ......................................
................................................................................
   1    -50.7369116 -0.507369E+02  0.381E-01    7.99       0.0  T
   2    -50.7369702 -0.585859E-04  0.289E-01    7.99       1.0  T
   3    -50.7370123 -0.420772E-04  0.441E-02    7.99       1.0  T
   4    -50.7370203 -0.801708E-05  0.145E-02    7.99       1.3  T
   5    -50.7370207 -0.426374E-06  0.426E-03    7.99       4.6  T
   6    -50.7370207 -0.114421E-07  0.243E-03    7.99       8.1  T
speedup  0.96
cpu  time for SCC    0.00 s
wall time for SCC    0.01 s
speedup  1.01
cpu  time for grad    0.01 s
wall time for grad    0.01 s
 E :    -50.43245321  G :  0.021353    pred/act E change: -0.907D-02 -0.176D-02
Maxdispl :   0.1206   ||displ|| :   0.2960   Lambda : -0.207D-02
Largest |displ|/coords:  0.1206 (   8)  0.1163 (  23)  0.1077 (  14)
................................................................................
.............................. CYCLE    9 ......................................
................................................................................
   1    -50.7242739 -0.507243E+02  0.389E-01    7.82       0.0  T
   2    -50.7243374 -0.635639E-04  0.292E-01    7.83       1.0  T
   3    -50.7243785 -0.410910E-04  0.455E-02    7.85       1.0  T
   4    -50.7243878 -0.926154E-05  0.108E-02    7.85       1.8  T
   5    -50.7243879 -0.158665E-06  0.505E-03    7.85       3.9  T
   6    -50.7243880 -0.368197E-07  0.258E-03    7.85       7.6  T
speedup  1.13
cpu  time for SCC    0.01 s
wall time for SCC    0.01 s
speedup  1.00
cpu  time for grad    0.01 s
wall time for grad    0.01 s
 E :    -50.43254980  G :  0.041930    pred/act E change: -0.267D-02 -0.966D-04
Maxdispl :   0.0699   ||displ|| :   0.2017   Lambda : -0.230D-02
Largest |displ|/coords:  0.0699 (   8)  0.0664 (  18)  0.0613 (  22)
................................................................................
.............................. CYCLE   10 ......................................
................................................................................
   1    -50.7258021 -0.507258E+02  0.262E-01    7.84       0.0  T
   2    -50.7258476 -0.455070E-04  0.195E-01    7.84       1.0  T
   3    -50.7258712 -0.235693E-04  0.402E-02    7.84       1.0  T
   4    -50.7258772 -0.602249E-05  0.123E-02    7.84       1.6  T
   5    -50.7258777 -0.447688E-06  0.374E-03    7.84       5.2  T
   6    -50.7258777 -0.795738E-08  0.208E-03    7.84       9.4  T
speedup  0.96
cpu  time for SCC    0.00 s
wall time for SCC    0.01 s
speedup  1.01
cpu  time for grad    0.01 s
wall time for grad    0.01 s
 E :    -50.43325958  G :  0.027788    pred/act E change: -0.112D-02 -0.710D-03
Maxdispl :   0.2042   ||displ|| :   0.2419   Lambda : -0.135D-02
Largest |displ|/coords:  0.2042 (   8)  0.0534 (   1)  0.0524 (  10)
................................................................................
.............................. CYCLE   11 ......................................
................................................................................
   1    -50.7335843 -0.507336E+02  0.328E-01    7.93       0.0  T
   2    -50.7336284 -0.440779E-04  0.248E-01    7.93       1.0  T
   3    -50.7336593 -0.309379E-04  0.397E-02    7.92       1.0  T
   4    -50.7336653 -0.599480E-05  0.949E-03    7.92       2.1  T
   5    -50.7336655 -0.203871E-06  0.408E-03    7.92       4.8  T
   6    -50.7336655 -0.946311E-08  0.213E-03    7.92       9.2  T
speedup  0.96
cpu  time for SCC    0.00 s
wall time for SCC    0.01 s
speedup  1.01
cpu  time for grad    0.01 s
wall time for grad    0.01 s
 E :    -50.43306987  G :  0.024485    pred/act E change: -0.120D-02  0.190D-03
Maxdispl :   0.0755   ||displ|| :   0.1720   Lambda : -0.120D-02
Largest |displ|/coords:  0.0755 (   8)  0.0680 (  10)  0.0450 (  22)
................................................................................
.............................. CYCLE   12 ......................................
................................................................................
   1    -50.7322583 -0.507323E+02  0.222E-01    7.90       0.0  T
   2    -50.7322738 -0.154303E-04  0.167E-01    7.90       1.0  T
   3    -50.7322859 -0.121571E-04  0.218E-02    7.92       1.0  T
   4    -50.7322880 -0.211296E-05  0.623E-03    7.92       3.1  T
   5    -50.7322881 -0.664001E-07  0.244E-03    7.92       8.0  T
   6    -50.7322881 -0.323670E-08  0.124E-03    7.92      15.9  T
speedup  1.13
cpu  time for SCC    0.01 s
wall time for SCC    0.01 s
speedup  1.00
cpu  time for grad    0.01 s
wall time for grad    0.01 s
 E :    -50.43374333  G :  0.012866    pred/act E change: -0.714D-03 -0.673D-03
Maxdispl :   0.1274   ||displ|| :   0.2391   Lambda : -0.814D-03
Largest |displ|/coords:  0.1274 (   8)  0.0641 (  14)  0.0623 (   5)
................................................................................
.............................. CYCLE   13 ......................................
................................................................................
   1    -50.7235627 -0.507236E+02  0.294E-01    7.83       0.0  T
   2    -50.7235927 -0.300052E-04  0.221E-01    7.84       1.0  T
   3    -50.7236141 -0.213331E-04  0.327E-02    7.86       1.0  T
   4    -50.7236182 -0.410758E-05  0.918E-03    7.86       2.1  T
   5    -50.7236184 -0.184802E-06  0.355E-03    7.86       5.5  T
   6    -50.7236184 -0.140800E-07  0.212E-03    7.86       9.3  T
   7    -50.7236184 -0.986528E-08  0.497E-04    7.86      39.4  T
speedup  0.95
cpu  time for SCC    0.01 s
wall time for SCC    0.01 s
speedup  0.99
cpu  time for grad    0.01 s
wall time for grad    0.01 s
 E :    -50.43386826  G :  0.032496    pred/act E change: -0.616D-03 -0.125D-03
Maxdispl :   0.0353   ||displ|| :   0.0786   Lambda : -0.713D-03
Largest |displ|/coords:  0.0353 (   8)  0.0345 (  13)  0.0276 (   3)
................................................................................
.............................. CYCLE   14 ......................................
................................................................................
   1    -50.7281657 -0.507282E+02  0.101E-01    7.90       0.0  T
   2    -50.7281738 -0.806854E-05  0.752E-02    7.90       1.0  T
   3    -50.7281788 -0.498037E-05  0.166E-02    7.90       1.2  T
   4    -50.7281797 -0.905822E-06  0.395E-03    7.90       5.0  T
   5    -50.7281797 -0.332693E-07  0.158E-03    7.90      12.4  T
speedup  1.06
cpu  time for SCC    0.01 s
wall time for SCC    0.00 s
speedup  1.05
cpu  time for grad    0.01 s
wall time for grad    0.01 s
 E :    -50.43428072  G :  0.013358    pred/act E change: -0.430D-03 -0.412D-03
Maxdispl :   0.0796   ||displ|| :   0.1515   Lambda : -0.441D-03
Largest |displ|/coords:  0.0796 (   4)  0.0548 (   3)  0.0437 (  13)
................................................................................
.............................. CYCLE   15 ......................................
................................................................................
   1    -50.7297297 -0.507297E+02  0.139E-01    7.93       0.0  T
   2    -50.7297347 -0.501995E-05  0.104E-01    7.93       1.0  T
   3    -50.7297388 -0.409903E-05  0.133E-02    7.94       1.5  T
   4    -50.7297394 -0.607716E-06  0.285E-03    7.94       6.9  T
   5    -50.7297394 -0.892613E-08  0.171E-03    7.94      11.5  T
speedup  0.89
cpu  time for SCC    0.00 s
wall time for SCC    0.00 s
speedup  0.98
cpu  time for grad    0.01 s
wall time for grad    0.01 s
 E :    -50.43458721  G :  0.011656    pred/act E change: -0.359D-03 -0.306D-03
Maxdispl :   0.1678   ||displ|| :   0.4273   Lambda : -0.111D-02
Largest |displ|/coords:  0.1678 (   3)  0.1592 (   5)  0.1499 (  13)
................................................................................
.............................. CYCLE   16 ......................................
................................................................................
   1    -50.7278295 -0.507278E+02  0.361E-01    7.93       0.0  T
   2    -50.7278543 -0.247719E-04  0.271E-01    7.95       1.0  T
   3    -50.7278832 -0.289675E-04  0.302E-02    8.00       1.0  T
   4    -50.7278848 -0.152650E-05  0.730E-03    7.99       2.7  T
   5    -50.7278848 -0.789065E-07  0.420E-03    7.99       4.7  T
   6    -50.7278849 -0.341526E-07  0.190E-03    7.99      10.3  T
   7    -50.7278849 -0.523402E-08  0.488E-04    7.99      40.2  T
speedup  1.13
cpu  time for SCC    0.01 s
wall time for SCC    0.01 s
speedup  1.01
cpu  time for grad    0.01 s
wall time for grad    0.01 s
 E :    -50.43533216  G :  0.011021    pred/act E change: -0.226D-03 -0.745D-03
Maxdispl :   0.2434   ||displ|| :   0.5096   Lambda : -0.109D-02
Largest |displ|/coords:  0.2434 (   4)  0.1982 (  13)  0.1517 (  11)
................................................................................
.............................. CYCLE   17 ......................................
................................................................................
   1    -50.7173648 -0.507174E+02  0.454E-01    7.94       0.0  T
   2    -50.7174167 -0.518832E-04  0.341E-01    7.95       1.0  T
   3    -50.7174623 -0.456299E-04  0.415E-02    7.99       1.0  T
   4    -50.7174687 -0.645361E-05  0.112E-02    7.99       1.7  T
   5    -50.7174689 -0.111720E-06  0.625E-03    7.99       3.1  T
   6    -50.7174689 -0.773079E-07  0.183E-03    7.99      10.7  T
   7    -50.7174689 -0.723532E-08  0.655E-04    7.99      29.9  T
speedup  0.98
cpu  time for SCC    0.01 s
wall time for SCC    0.01 s
speedup  1.01
cpu  time for grad    0.01 s
wall time for grad    0.01 s
 E :    -50.43502278  G :  0.039915    pred/act E change: -0.657D-03  0.309D-03
Maxdispl :   0.0956   ||displ|| :   0.1872   Lambda : -0.203D-02
Largest |displ|/coords:  0.0956 (   4)  0.0631 (  11)  0.0494 (   7)
................................................................................
.............................. CYCLE   18 ......................................
................................................................................
   1    -50.7262741 -0.507263E+02  0.202E-01    8.06       0.0  T
   2    -50.7263160 -0.419016E-04  0.148E-01    8.05       1.0  T
   3    -50.7263414 -0.253966E-04  0.356E-02    8.04       1.0  T
   4    -50.7263460 -0.455455E-05  0.940E-03    8.04       2.1  T
   5    -50.7263461 -0.152049E-06  0.386E-03    8.04       5.1  T
   6    -50.7263461 -0.123213E-07  0.199E-03    8.04       9.9  T
speedup  1.11
cpu  time for SCC    0.01 s
wall time for SCC    0.01 s
speedup  0.99
cpu  time for grad    0.01 s
wall time for grad    0.01 s
 E :    -50.43577117  G :  0.017622    pred/act E change: -0.685D-03 -0.748D-03
Maxdispl :   0.0827   ||displ|| :   0.1738   Lambda : -0.865D-03
Largest |displ|/coords:  0.0827 (  10)  0.0665 (  15)  0.0638 (   8)
................................................................................
.............................. CYCLE   19 ......................................
................................................................................
   1    -50.7289092 -0.507289E+02  0.176E-01    8.06       0.0  T
   2    -50.7289280 -0.188955E-04  0.131E-01    8.06       1.0  T
   3    -50.7289390 -0.109215E-04  0.255E-02    8.06       1.0  T
   4    -50.7289415 -0.254246E-05  0.675E-03    8.06       2.9  T
   5    -50.7289416 -0.110622E-06  0.250E-03    8.06       7.8  T
   6    -50.7289416 -0.464608E-08  0.138E-03    8.06      14.2  T
speedup  1.13
cpu  time for SCC    0.01 s
wall time for SCC    0.01 s
speedup  0.99
cpu  time for grad    0.01 s
wall time for grad    0.01 s
 E :    -50.43574426  G :  0.017105    pred/act E change: -0.105D-02  0.269D-04
Maxdispl :   0.0805   ||displ|| :   0.1852   Lambda : -0.811D-03
Largest |displ|/coords:  0.0805 (   4)  0.0791 (   8)  0.0719 (   1)
................................................................................
.............................. CYCLE   20 ......................................
................................................................................
   1    -50.7284489 -0.507284E+02  0.156E-01    8.08       0.0  T
   2    -50.7284549 -0.600194E-05  0.117E-01    8.07       1.0  T
   3    -50.7284591 -0.411374E-05  0.135E-02    8.07       1.5  T
   4    -50.7284600 -0.936815E-06  0.516E-03    8.07       3.8  T
   5    -50.7284600 -0.498341E-07  0.173E-03    8.08      11.3  T
   6    -50.7284600 -0.281952E-08  0.919E-04    8.08      21.3  T
speedup  0.93
cpu  time for SCC    0.00 s
wall time for SCC    0.01 s
speedup  0.97
cpu  time for grad    0.01 s
wall time for grad    0.01 s
 E :    -50.43626449  G :  0.008620    pred/act E change: -0.446D-03 -0.520D-03
Maxdispl :   0.1425   ||displ|| :   0.3123   Lambda : -0.540D-03
Largest |displ|/coords:  0.1425 (   8)  0.1239 (  13)  0.1181 (   4)
................................................................................
.............................. CYCLE   21 ......................................
................................................................................
   1    -50.7215155 -0.507215E+02  0.257E-01    8.01       0.0  T
   2    -50.7215297 -0.142239E-04  0.192E-01    8.03       1.0  T
   3    -50.7215412 -0.114828E-04  0.199E-02    8.06       1.0  T
   4    -50.7215430 -0.175156E-05  0.783E-03    8.05       2.5  T
   5    -50.7215430 -0.528734E-07  0.285E-03    8.05       6.9  T
   6    -50.7215430 -0.106719E-07  0.125E-03    8.05      15.7  T
speedup  0.93
cpu  time for SCC    0.01 s
wall time for SCC    0.01 s
speedup  0.99
cpu  time for grad    0.01 s
wall time for grad    0.01 s
 E :    -50.43640882  G :  0.022181    pred/act E change: -0.419D-03 -0.144D-03
Maxdispl :   0.0900   ||displ|| :   0.2212   Lambda : -0.704D-03
Largest |displ|/coords:  0.0900 (  10)  0.0701 (   5)  0.0678 (   8)
................................................................................
.............................. CYCLE   22 ......................................
................................................................................
   1    -50.7260046 -0.507260E+02  0.152E-01    8.08       0.0  T
   2    -50.7260132 -0.859513E-05  0.113E-01    8.06       1.0  T
   3    -50.7260173 -0.411585E-05  0.169E-02    8.03       1.2  T
   4    -50.7260188 -0.155814E-05  0.459E-03    8.04       4.3  T
   5    -50.7260189 -0.150345E-07  0.167E-03    8.04      11.8  T
speedup  1.11
cpu  time for SCC    0.00 s
wall time for SCC    0.00 s
speedup  0.98
cpu  time for grad    0.01 s
wall time for grad    0.01 s
 E :    -50.43678873  G :  0.019514    pred/act E change: -0.297D-03 -0.380D-03
Maxdispl :   0.0887   ||displ|| :   0.2104   Lambda : -0.730D-03
Largest |displ|/coords:  0.0887 (  10)  0.0712 (  22)  0.0568 (   1)
................................................................................
.............................. CYCLE   23 ......................................
................................................................................
   1    -50.7317498 -0.507317E+02  0.121E-01    8.08       0.0  T
   2    -50.7317555 -0.569356E-05  0.902E-02    8.08       1.0  T
   3    -50.7317599 -0.440875E-05  0.148E-02    8.07       1.3  T
   4    -50.7317606 -0.659185E-06  0.519E-03    8.07       3.8  T
   5    -50.7317606 -0.434237E-07  0.153E-03    8.07      12.8  T
   6    -50.7317606 -0.213947E-08  0.842E-04    8.07      23.3  T
speedup  0.93
cpu  time for SCC    0.00 s
wall time for SCC    0.01 s
speedup  0.99
cpu  time for grad    0.01 s
wall time for grad    0.01 s
 E :    -50.43717848  G :  0.012083    pred/act E change: -0.369D-03 -0.390D-03
Maxdispl :   0.1679   ||displ|| :   0.4142   Lambda : -0.696D-03
Largest |displ|/coords:  0.1679 (   8)  0.1596 (   5)  0.1472 (  10)
................................................................................
.............................. CYCLE   24 ......................................
................................................................................
   1    -50.7277959 -0.507278E+02  0.283E-01    7.95       0.0  T
   2    -50.7278090 -0.131045E-04  0.213E-01    7.96       1.0  T
   3    -50.7278218 -0.127429E-04  0.193E-02    7.97       1.0  T
   4    -50.7278230 -0.127099E-05  0.744E-03    7.97       2.6  T
   5    -50.7278231 -0.555592E-07  0.255E-03    7.97       7.7  T
   6    -50.7278231 -0.506424E-08  0.116E-03    7.97      17.0  T
speedup  1.13
cpu  time for SCC    0.01 s
wall time for SCC    0.01 s
speedup  0.99
cpu  time for grad    0.01 s
wall time for grad    0.01 s
 E :    -50.43770559  G :  0.011683    pred/act E change: -0.381D-03 -0.527D-03
Maxdispl :   0.1907   ||displ|| :   0.4648   Lambda : -0.862D-03
Largest |displ|/coords:  0.1907 (   8)  0.1744 (  10)  0.1451 (  13)
................................................................................
.............................. CYCLE   25 ......................................
................................................................................
   1    -50.7265957 -0.507266E+02  0.302E-01    7.95       0.0  T
   2    -50.7266113 -0.155843E-04  0.226E-01    7.95       1.0  T
   3    -50.7266258 -0.144499E-04  0.259E-02    7.95       1.0  T
   4    -50.7266273 -0.149519E-05  0.926E-03    7.95       2.1  T
   5    -50.7266274 -0.822390E-07  0.275E-03    7.95       7.1  T
   6    -50.7266274 -0.697071E-08  0.147E-03    7.95      13.3  T
speedup  0.93
cpu  time for SCC    0.00 s
wall time for SCC    0.01 s
speedup  0.90
cpu  time for grad    0.01 s
wall time for grad    0.01 s
 E :    -50.43800760  G :  0.020935    pred/act E change: -0.408D-03 -0.302D-03
Maxdispl :   0.1283   ||displ|| :   0.3557   Lambda : -0.839D-03
Largest |displ|/coords:  0.1283 (   5)  0.1218 (   4)  0.1193 (   1)

generating ANC from model Hessian ...
 Shifting diagonal of input Hessian by   5.099986394683727E-003
 Lowest  eigenvalues of input Hessian
    0.005000   -0.000000   -0.000000   -0.000000    0.000000    0.000000
    0.000000    0.005156    0.005292    0.005424    0.005738    0.005899
    0.006170    0.006230    0.006417    0.007267    0.007544    0.007987
 Highest eigenvalues
    1.380056    1.393618    1.403028    2.624584    3.259911    3.649852
 
cpu  time for ANC gen    0.01 s
wall time for ANC gen    0.01 s
................................................................................
.............................. CYCLE   26 ......................................
................................................................................
   1    -50.7220705 -0.507221E+02  0.247E-01    7.87       0.0  T
   2    -50.7220955 -0.249877E-04  0.185E-01    7.87       1.0  T
   3    -50.7221136 -0.181453E-04  0.282E-02    7.87       1.0  T
   4    -50.7221171 -0.346229E-05  0.837E-03    7.87       2.3  T
   5    -50.7221172 -0.119704E-06  0.343E-03    7.87       5.7  T
   6    -50.7221172 -0.121245E-07  0.175E-03    7.87      11.2  T
   7    -50.7221172 -0.749746E-08  0.472E-04    7.87      41.6  T
   8    -50.7221172 -0.645187E-09  0.201E-04    7.87      97.4  T
speedup  0.99
cpu  time for SCC    0.01 s
wall time for SCC    0.01 s
speedup  1.02
cpu  time for grad    0.02 s
wall time for grad    0.02 s
 E :    -50.43806626  G :  0.033887    pred/act E change:  0.000D+00 -0.587D-04
Maxdispl :   0.1010   ||displ|| :   0.2491   Lambda : -0.193D-02
Largest |displ|/coords:  0.1010 (  12)  0.0836 (   6)  0.0742 (  11)
................................................................................
.............................. CYCLE   27 ......................................
................................................................................
   1    -50.7278164 -0.507278E+02  0.266E-01    7.99       0.0  T
   2    -50.7278306 -0.142267E-04  0.201E-01    7.98       1.0  T
   3    -50.7278425 -0.118281E-04  0.234E-02    7.97       1.0  T
   4    -50.7278443 -0.182868E-05  0.735E-03    7.98       2.7  T
   5    -50.7278444 -0.705961E-07  0.261E-03    7.98       7.5  T
   6    -50.7278444 -0.520858E-08  0.135E-03    7.98      14.5  T
speedup  0.96
cpu  time for SCC    0.00 s
wall time for SCC    0.01 s
speedup  1.00
cpu  time for grad    0.01 s
wall time for grad    0.01 s
 E :    -50.43924373  G :  0.017758    pred/act E change:  0.000D+00 -0.118D-02
Maxdispl :   0.1310   ||displ|| :   0.3311   Lambda : -0.140D-02
Largest |displ|/coords:  0.1310 (  10)  0.1197 (  11)  0.1191 (   4)
................................................................................
.............................. CYCLE   28 ......................................
................................................................................
   1    -50.7345449 -0.507345E+02  0.239E-01    8.09       0.0  T
   2    -50.7345602 -0.152605E-04  0.178E-01    8.09       1.0  T
   3    -50.7345701 -0.999248E-05  0.258E-02    8.10       1.0  T
   4    -50.7345722 -0.204216E-05  0.805E-03    8.10       2.4  T
   5    -50.7345723 -0.903898E-07  0.265E-03    8.10       7.4  T
   6    -50.7345723 -0.833492E-08  0.159E-03    8.10      12.4  T
speedup  0.93
cpu  time for SCC    0.00 s
wall time for SCC    0.01 s
speedup  0.97
cpu  time for grad    0.01 s
wall time for grad    0.01 s
 E :    -50.43986330  G :  0.011965    pred/act E change: -0.102D-02 -0.620D-03
Maxdispl :   0.1365   ||displ|| :   0.3395   Lambda : -0.973D-03
Largest |displ|/coords:  0.1365 (   6)  0.1165 (  12)  0.1156 (  14)
................................................................................
.............................. CYCLE   29 ......................................
................................................................................
   1    -50.7325910 -0.507326E+02  0.284E-01    8.13       0.0  T
   2    -50.7326038 -0.128059E-04  0.214E-01    8.14       1.0  T
   3    -50.7326173 -0.135565E-04  0.218E-02    8.14       1.0  T
   4    -50.7326186 -0.124736E-05  0.796E-03    8.14       2.5  T
   5    -50.7326186 -0.739729E-07  0.299E-03    8.14       6.6  T
   6    -50.7326187 -0.123365E-07  0.166E-03    8.14      11.8  T
speedup  0.93
cpu  time for SCC    0.00 s
wall time for SCC    0.01 s
speedup  0.98
cpu  time for grad    0.01 s
wall time for grad    0.01 s
 E :    -50.44027703  G :  0.020728    pred/act E change: -0.777D-03 -0.414D-03
Maxdispl :   0.0950   ||displ|| :   0.2261   Lambda : -0.973D-03
Largest |displ|/coords:  0.0950 (   7)  0.0895 (  12)  0.0867 (  28)
................................................................................
.............................. CYCLE   30 ......................................
................................................................................
   1    -50.7336364 -0.507336E+02  0.191E-01    8.15       0.0  T
   2    -50.7336487 -0.123760E-04  0.143E-01    8.15       1.0  T
   3    -50.7336575 -0.876936E-05  0.237E-02    8.15       1.0  T
   4    -50.7336591 -0.157101E-05  0.820E-03    8.15       2.4  T
   5    -50.7336592 -0.103172E-06  0.222E-03    8.15       8.8  T
   6    -50.7336592 -0.465251E-08  0.131E-03    8.15      15.0  T
speedup  0.96
cpu  time for SCC    0.01 s
wall time for SCC    0.01 s
speedup  0.99
cpu  time for grad    0.01 s
wall time for grad    0.01 s
 E :    -50.44067472  G :  0.013031    pred/act E change: -0.543D-03 -0.398D-03
Maxdispl :   0.1637   ||displ|| :   0.3975   Lambda : -0.127D-02
Largest |displ|/coords:  0.1637 (   3)  0.1481 (  11)  0.1271 (  12)
................................................................................
.............................. CYCLE   31 ......................................
................................................................................
   1    -50.7276922 -0.507277E+02  0.330E-01    8.05       0.0  T
   2    -50.7277135 -0.212461E-04  0.249E-01    8.05       1.0  T
   3    -50.7277335 -0.200124E-04  0.286E-02    8.06       1.0  T
   4    -50.7277358 -0.228239E-05  0.115E-02    8.06       1.7  T
   5    -50.7277359 -0.143031E-06  0.319E-03    8.06       6.1  T
   6    -50.7277359 -0.134203E-07  0.200E-03    8.06       9.8  T
   7    -50.7277359 -0.895754E-08  0.584E-04    8.06      33.6  T
speedup  0.97
cpu  time for SCC    0.01 s
wall time for SCC    0.01 s
speedup  0.99
cpu  time for grad    0.01 s
wall time for grad    0.01 s
 E :    -50.44093407  G :  0.024008    pred/act E change: -0.511D-03 -0.259D-03
Maxdispl :   0.0601   ||displ|| :   0.1807   Lambda : -0.116D-02
Largest |displ|/coords:  0.0601 (  10)  0.0594 (  21)  0.0539 (  17)
................................................................................
.............................. CYCLE   32 ......................................
................................................................................
   1    -50.7320585 -0.507321E+02  0.128E-01    8.04       0.0  T
   2    -50.7320625 -0.399850E-05  0.962E-02    8.04       1.0  T
   3    -50.7320659 -0.339181E-05  0.122E-02    8.04       1.6  T
   4    -50.7320663 -0.441734E-06  0.356E-03    8.04       5.5  T
   5    -50.7320664 -0.233932E-07  0.126E-03    8.04      15.6  T
speedup  1.14
cpu  time for SCC    0.00 s
wall time for SCC    0.00 s
speedup  1.06
cpu  time for grad    0.01 s
wall time for grad    0.01 s
 E :    -50.44167420  G :  0.009259    pred/act E change: -0.733D-03 -0.740D-03
Maxdispl :   0.1605   ||displ|| :   0.4095   Lambda : -0.811D-03
Largest |displ|/coords:  0.1605 (   3)  0.1348 (  11)  0.1298 (  13)
................................................................................
.............................. CYCLE   33 ......................................
................................................................................
   1    -50.7293089 -0.507293E+02  0.259E-01    7.99       0.0  T
   2    -50.7293169 -0.795497E-05  0.195E-01    7.99       1.0  T
   3    -50.7293260 -0.910987E-05  0.155E-02    7.99       1.3  T
   4    -50.7293266 -0.585970E-06  0.675E-03    7.99       2.9  T
   5    -50.7293267 -0.583926E-07  0.234E-03    7.99       8.4  T
   6    -50.7293267 -0.721150E-08  0.129E-03    7.99      15.2  T
speedup  1.09
cpu  time for SCC    0.01 s
wall time for SCC    0.01 s
speedup  0.97
cpu  time for grad    0.01 s
wall time for grad    0.01 s
 E :    -50.44211901  G :  0.017317    pred/act E change: -0.600D-03 -0.445D-03
Maxdispl :   0.1229   ||displ|| :   0.3655   Lambda : -0.902D-03
Largest |displ|/coords:  0.1229 (  13)  0.1223 (   7)  0.1027 (   3)
................................................................................
.............................. CYCLE   34 ......................................
................................................................................
   1    -50.7321489 -0.507321E+02  0.221E-01    7.95       0.0  T
   2    -50.7321564 -0.756343E-05  0.166E-01    7.95       1.0  T
   3    -50.7321647 -0.821317E-05  0.153E-02    7.94       1.3  T
   4    -50.7321653 -0.610358E-06  0.430E-03    7.95       4.6  T
   5    -50.7321653 -0.189694E-07  0.224E-03    7.95       8.7  T
   6    -50.7321653 -0.891941E-08  0.913E-04    7.95      21.5  T
speedup  0.94
cpu  time for SCC    0.00 s
wall time for SCC    0.01 s
speedup  0.98
cpu  time for grad    0.01 s
wall time for grad    0.01 s
 E :    -50.44257379  G :  0.014070    pred/act E change: -0.474D-03 -0.455D-03
Maxdispl :   0.1076   ||displ|| :   0.3094   Lambda : -0.602D-03
Largest |displ|/coords:  0.1076 (   8)  0.1025 (   5)  0.0949 (  13)
................................................................................
.............................. CYCLE   35 ......................................
................................................................................
   1    -50.7283371 -0.507283E+02  0.207E-01    7.95       0.0  T
   2    -50.7283463 -0.915086E-05  0.157E-01    7.96       1.0  T
   3    -50.7283574 -0.110630E-04  0.160E-02    7.96       1.2  T
   4    -50.7283581 -0.712752E-06  0.609E-03    7.96       3.2  T
   5    -50.7283581 -0.407324E-07  0.261E-03    7.96       7.5  T
   6    -50.7283581 -0.124450E-07  0.123E-03    7.96      16.0  T
speedup  0.75
cpu  time for SCC    0.00 s
wall time for SCC    0.01 s
speedup  0.91
cpu  time for grad    0.01 s
wall time for grad    0.01 s
 E :    -50.44279589  G :  0.019361    pred/act E change: -0.511D-03 -0.222D-03
Maxdispl :   0.1276   ||displ|| :   0.2585   Lambda : -0.101D-02
Largest |displ|/coords:  0.1276 (  13)  0.0840 (   7)  0.0733 (   2)
................................................................................
.............................. CYCLE   36 ......................................
................................................................................
   1    -50.7329740 -0.507330E+02  0.189E-01    8.17       0.0  T
   2    -50.7329854 -0.113466E-04  0.139E-01    8.18       1.0  T
   3    -50.7329925 -0.710841E-05  0.251E-02    8.19       1.0  T
   4    -50.7329938 -0.130376E-05  0.863E-03    8.19       2.3  T
   5    -50.7329939 -0.991955E-07  0.224E-03    8.19       8.8  T
   6    -50.7329939 -0.522250E-08  0.135E-03    8.19      14.5  T
speedup  1.13
cpu  time for SCC    0.01 s
wall time for SCC    0.01 s
speedup  1.06
cpu  time for grad    0.01 s
wall time for grad    0.01 s
 E :    -50.44307095  G :  0.020068    pred/act E change: -0.330D-03 -0.275D-03
Maxdispl :   0.0683   ||displ|| :   0.1740   Lambda : -0.700D-03
Largest |displ|/coords:  0.0683 (   4)  0.0617 (  21)  0.0597 (  10)
................................................................................
.............................. CYCLE   37 ......................................
................................................................................
   1    -50.7351349 -0.507351E+02  0.113E-01    8.14       0.0  T
   2    -50.7351401 -0.517671E-05  0.848E-02    8.14       1.0  T
   3    -50.7351435 -0.346173E-05  0.148E-02    8.13       1.3  T
   4    -50.7351442 -0.674805E-06  0.375E-03    8.13       5.2  T
   5    -50.7351442 -0.316883E-07  0.143E-03    8.13      13.7  T
speedup  1.16
cpu  time for SCC    0.00 s
wall time for SCC    0.00 s
speedup  0.98
cpu  time for grad    0.01 s
wall time for grad    0.01 s
 E :    -50.44349515  G :  0.007749    pred/act E change: -0.541D-03 -0.424D-03
Maxdispl :   0.1906   ||displ|| :   0.4462   Lambda : -0.582D-03
Largest |displ|/coords:  0.1906 (  13)  0.1405 (   6)  0.1332 (  11)
................................................................................
.............................. CYCLE   38 ......................................
................................................................................
   1    -50.7286803 -0.507287E+02  0.285E-01    7.95       0.0  T
   2    -50.7286961 -0.157308E-04  0.216E-01    7.95       1.0  T
   3    -50.7287144 -0.183587E-04  0.195E-02    7.96       1.0  T
   4    -50.7287156 -0.120272E-05  0.889E-03    7.96       2.2  T
   5    -50.7287157 -0.104810E-06  0.301E-03    7.96       6.5  T
   6    -50.7287157 -0.124507E-07  0.168E-03    7.96      11.7  T
   7    -50.7287157 -0.762087E-08  0.438E-04    7.96      44.8  T
speedup  0.98
cpu  time for SCC    0.01 s
wall time for SCC    0.01 s
speedup  1.00
cpu  time for grad    0.01 s
wall time for grad    0.01 s
 E :    -50.44346179  G :  0.027980    pred/act E change: -0.361D-03  0.334D-04
Maxdispl :   0.0447   ||displ|| :   0.1256   Lambda : -0.914D-03
Largest |displ|/coords:  0.0447 (   3)  0.0416 (   4)  0.0403 (  16)
................................................................................
.............................. CYCLE   39 ......................................
................................................................................
   1    -50.7354790 -0.507355E+02  0.104E-01    8.16       0.0  T
   2    -50.7354859 -0.685518E-05  0.748E-02    8.16       1.0  T
   3    -50.7354904 -0.455072E-05  0.179E-02    8.16       1.1  T
   4    -50.7354910 -0.575894E-06  0.588E-03    8.16       3.3  T
   5    -50.7354911 -0.610589E-07  0.157E-03    8.16      12.5  T
speedup  0.91
cpu  time for SCC    0.00 s
wall time for SCC    0.00 s
speedup  0.98
cpu  time for grad    0.01 s
wall time for grad    0.01 s
 E :    -50.44391773  G :  0.009099    pred/act E change: -0.349D-03 -0.456D-03
Maxdispl :   0.1184   ||displ|| :   0.2094   Lambda : -0.343D-03
Largest |displ|/coords:  0.1184 (  13)  0.0694 (  15)  0.0687 (   7)
................................................................................
.............................. CYCLE   40 ......................................
................................................................................
   1    -50.7349808 -0.507350E+02  0.145E-01    8.13       0.0  T
   2    -50.7349841 -0.325561E-05  0.109E-01    8.13       1.0  T
   3    -50.7349872 -0.307612E-05  0.112E-02    8.13       1.8  T
   4    -50.7349875 -0.344842E-06  0.294E-03    8.13       6.7  T
   5    -50.7349875 -0.129657E-07  0.142E-03    8.13      13.8  T
speedup  0.89
cpu  time for SCC    0.00 s
wall time for SCC    0.00 s
speedup  0.96
cpu  time for grad    0.01 s
wall time for grad    0.01 s
 E :    -50.44408814  G :  0.008884    pred/act E change: -0.464D-03 -0.170D-03
Maxdispl :   0.1443   ||displ|| :   0.2998   Lambda : -0.403D-03
Largest |displ|/coords:  0.1443 (  13)  0.1217 (   6)  0.0893 (  15)
................................................................................
.............................. CYCLE   41 ......................................
................................................................................
   1    -50.7372194 -0.507372E+02  0.192E-01    8.21       0.0  T
   2    -50.7372262 -0.678216E-05  0.145E-01    8.21       1.0  T
   3    -50.7372326 -0.638869E-05  0.167E-02    8.20       1.2  T
   4    -50.7372334 -0.795236E-06  0.606E-03    8.21       3.2  T
   5    -50.7372335 -0.463367E-07  0.204E-03    8.21       9.6  T
   6    -50.7372335 -0.375140E-08  0.112E-03    8.21      17.5  T
speedup  1.15
cpu  time for SCC    0.01 s
wall time for SCC    0.01 s
speedup  1.06
cpu  time for grad    0.01 s
wall time for grad    0.01 s
 E :    -50.44430552  G :  0.014583    pred/act E change: -0.179D-03 -0.217D-03
Maxdispl :   0.1360   ||displ|| :   0.3020   Lambda : -0.333D-03
Largest |displ|/coords:  0.1360 (  13)  0.1073 (   6)  0.1025 (  11)
................................................................................
.............................. CYCLE   42 ......................................
................................................................................
   1    -50.7326885 -0.507327E+02  0.203E-01    8.10       0.0  T
   2    -50.7326948 -0.622165E-05  0.153E-01    8.10       1.0  T
   3    -50.7327015 -0.669293E-05  0.146E-02    8.10       1.3  T
   4    -50.7327020 -0.526015E-06  0.450E-03    8.10       4.4  T
   5    -50.7327020 -0.261897E-07  0.202E-03    8.10       9.7  T
   6    -50.7327020 -0.683436E-08  0.987E-04    8.10      19.9  T
speedup  0.96
cpu  time for SCC    0.00 s
wall time for SCC    0.01 s
speedup  0.99
cpu  time for grad    0.01 s
wall time for grad    0.01 s
 E :    -50.44442939  G :  0.017936    pred/act E change: -0.219D-03 -0.124D-03
Maxdispl :   0.1075   ||displ|| :   0.2706   Lambda : -0.773D-03
Largest |displ|/coords:  0.1075 (   6)  0.0856 (  11)  0.0797 (   7)
................................................................................
.............................. CYCLE   43 ......................................
................................................................................
   1    -50.7378121 -0.507378E+02  0.172E-01    8.04       0.0  T
   2    -50.7378248 -0.127566E-04  0.128E-01    8.04       1.0  T
   3    -50.7378353 -0.104523E-04  0.222E-02    8.03       1.0  T
   4    -50.7378366 -0.134607E-05  0.599E-03    8.03       3.3  T
   5    -50.7378367 -0.464280E-07  0.262E-03    8.03       7.5  T
   6    -50.7378367 -0.639920E-08  0.122E-03    8.03      16.1  T
speedup  0.96
cpu  time for SCC    0.00 s
wall time for SCC    0.01 s
speedup  0.99
cpu  time for grad    0.01 s
wall time for grad    0.01 s
 E :    -50.44397913  G :  0.030351    pred/act E change: -0.182D-03  0.450D-03
Maxdispl :   0.0851   ||displ|| :   0.1800   Lambda : -0.155D-02
Largest |displ|/coords:  0.0851 (   9)  0.0783 (   7)  0.0686 (  10)
................................................................................
.............................. CYCLE   44 ......................................
................................................................................
   1    -50.7412769 -0.507413E+02  0.137E-01    8.21       0.0  T
   2    -50.7412854 -0.853436E-05  0.102E-01    8.20       1.0  T
   3    -50.7412916 -0.616732E-05  0.195E-02    8.19       1.0  T
   4    -50.7412926 -0.103319E-05  0.541E-03    8.19       3.6  T
   5    -50.7412926 -0.474574E-07  0.205E-03    8.19       9.6  T
speedup  1.16
cpu  time for SCC    0.00 s
wall time for SCC    0.00 s
speedup  0.98
cpu  time for grad    0.01 s
wall time for grad    0.01 s
 E :    -50.44469309  G :  0.010543    pred/act E change: -0.415D-03 -0.714D-03
Maxdispl :   0.1311   ||displ|| :   0.2971   Lambda : -0.496D-03
Largest |displ|/coords:  0.1311 (  13)  0.0979 (   7)  0.0866 (  11)
................................................................................
.............................. CYCLE   45 ......................................
................................................................................
   1    -50.7303824 -0.507304E+02  0.200E-01    8.04       0.0  T
   2    -50.7303966 -0.141701E-04  0.150E-01    8.06       1.0  T
   3    -50.7304065 -0.994820E-05  0.225E-02    8.08       1.0  T
   4    -50.7304086 -0.209202E-05  0.660E-03    8.07       3.0  T
   5    -50.7304087 -0.783105E-07  0.280E-03    8.07       7.0  T
   6    -50.7304087 -0.878980E-08  0.144E-03    8.07      13.6  T
speedup  0.96
cpu  time for SCC    0.00 s
wall time for SCC    0.01 s
speedup  0.99
cpu  time for grad    0.01 s
wall time for grad    0.01 s
 E :    -50.44452399  G :  0.022779    pred/act E change: -0.801D-03  0.169D-03
Maxdispl :   0.0489   ||displ|| :   0.1441   Lambda : -0.711D-03
Largest |displ|/coords:  0.0489 (   7)  0.0476 (  13)  0.0467 (   6)
................................................................................
.............................. CYCLE   46 ......................................
................................................................................
   1    -50.7376719 -0.507377E+02  0.959E-02    8.13       0.0  T
   2    -50.7376785 -0.665415E-05  0.707E-02    8.12       1.0  T
   3    -50.7376823 -0.378707E-05  0.156E-02    8.11       1.3  T
   4    -50.7376831 -0.819739E-06  0.370E-03    8.11       5.3  T
   5    -50.7376832 -0.306450E-07  0.159E-03    8.11      12.3  T
speedup  0.93
cpu  time for SCC    0.00 s
wall time for SCC    0.00 s
speedup  0.97
cpu  time for grad    0.01 s
wall time for grad    0.01 s
 E :    -50.44487295  G :  0.008857    pred/act E change: -0.270D-03 -0.349D-03
Maxdispl :   0.0341   ||displ|| :   0.0790   Lambda : -0.182D-03
Largest |displ|/coords:  0.0341 (   6)  0.0230 (  14)  0.0217 (  20)
................................................................................
.............................. CYCLE   47 ......................................
................................................................................
   1    -50.7394288 -0.507394E+02  0.651E-02    8.16       0.0  T
   2    -50.7394297 -0.911024E-06  0.485E-02    8.16       1.0  T
   3    -50.7394304 -0.633829E-06  0.670E-03    8.16       2.9  T
   4    -50.7394305 -0.110138E-06  0.209E-03    8.16       9.4  T
   5    -50.7394305 -0.709169E-08  0.656E-04    8.16      29.9  T
speedup  1.16
cpu  time for SCC    0.00 s
wall time for SCC    0.00 s
speedup  1.06
cpu  time for grad    0.01 s
wall time for grad    0.01 s
 E :    -50.44492413  G :  0.009641    pred/act E change: -0.363D-03 -0.512D-04
Maxdispl :   0.0547   ||displ|| :   0.1210   Lambda : -0.195D-03
Largest |displ|/coords:  0.0547 (  13)  0.0490 (  15)  0.0372 (   7)
................................................................................
.............................. CYCLE   48 ......................................
................................................................................
   1    -50.7388220 -0.507388E+02  0.975E-02    8.15       0.0  T
   2    -50.7388237 -0.162485E-05  0.737E-02    8.15       1.0  T
   3    -50.7388254 -0.177126E-05  0.692E-03    8.15       2.8  T
   4    -50.7388256 -0.154245E-06  0.247E-03    8.15       7.9  T
   5    -50.7388256 -0.730775E-08  0.104E-03    8.15      18.8  T
speedup  1.14
cpu  time for SCC    0.00 s
wall time for SCC    0.00 s
speedup  1.05
cpu  time for grad    0.01 s
wall time for grad    0.01 s
 E :    -50.44507962  G :  0.008322    pred/act E change: -0.915D-04 -0.155D-03
Maxdispl :   0.1737   ||displ|| :   0.3837   Lambda : -0.586D-03
Largest |displ|/coords:  0.1737 (  13)  0.1473 (  15)  0.1026 (   8)
................................................................................
.............................. CYCLE   49 ......................................
................................................................................
   1    -50.7347343 -0.507347E+02  0.307E-01    7.98       0.0  T
   2    -50.7347467 -0.124381E-04  0.232E-01    7.98       1.0  T
   3    -50.7347628 -0.160631E-04  0.189E-02    7.98       1.0  T
   4    -50.7347634 -0.639134E-06  0.790E-03    7.98       2.5  T
   5    -50.7347635 -0.768538E-07  0.313E-03    7.98       6.3  T
   6    -50.7347635 -0.135259E-07  0.158E-03    7.98      12.4  T
   7    -50.7347635 -0.495137E-08  0.372E-04    7.98      52.7  T
speedup  1.00
cpu  time for SCC    0.01 s
wall time for SCC    0.01 s
speedup  1.00
cpu  time for grad    0.01 s
wall time for grad    0.01 s
 E :    -50.44521959  G :  0.017036    pred/act E change: -0.988D-04 -0.140D-03
Maxdispl :   0.0847   ||displ|| :   0.1850   Lambda : -0.605D-03
Largest |displ|/coords:  0.0847 (   9)  0.0687 (  11)  0.0639 (  13)
................................................................................
.............................. CYCLE   50 ......................................
................................................................................
   1    -50.7357877 -0.507358E+02  0.123E-01    8.09       0.0  T
   2    -50.7357978 -0.100258E-04  0.900E-02    8.11       1.0  T
   3    -50.7358025 -0.475367E-05  0.198E-02    8.13       1.0  T
   4    -50.7358038 -0.125263E-05  0.488E-03    8.12       4.0  T
   5    -50.7358038 -0.429088E-07  0.177E-03    8.12      11.1  T
   6    -50.7358038 -0.422763E-08  0.912E-04    8.12      21.5  T
speedup  0.96
cpu  time for SCC    0.00 s
wall time for SCC    0.01 s
speedup  0.99
cpu  time for grad    0.01 s
wall time for grad    0.01 s
 E :    -50.44529258  G :  0.016975    pred/act E change: -0.336D-03 -0.730D-04
Maxdispl :   0.0677   ||displ|| :   0.1771   Lambda : -0.778D-03
Largest |displ|/coords:  0.0677 (   9)  0.0597 (   2)  0.0564 (  14)
................................................................................
.............................. CYCLE   51 ......................................
................................................................................
   1    -50.7396054 -0.507396E+02  0.137E-01    8.26       0.0  T
   2    -50.7396135 -0.811666E-05  0.102E-01    8.25       1.0  T
   3    -50.7396172 -0.363113E-05  0.174E-02    8.22       1.1  T
   4    -50.7396185 -0.135813E-05  0.402E-03    8.23       4.9  T
   5    -50.7396186 -0.236674E-07  0.173E-03    8.23      11.3  T
   6    -50.7396186 -0.273830E-08  0.735E-04    8.23      26.7  T
speedup  1.11
cpu  time for SCC    0.01 s
wall time for SCC    0.01 s
speedup  1.05
cpu  time for grad    0.01 s
wall time for grad    0.01 s
 E :    -50.44540446  G :  0.017318    pred/act E change: -0.313D-03 -0.112D-03
Maxdispl :   0.0407   ||displ|| :   0.1254   Lambda : -0.614D-03
Largest |displ|/coords:  0.0407 (   1)  0.0391 (  14)  0.0345 (  21)
................................................................................
.............................. CYCLE   52 ......................................
................................................................................
   1    -50.7410351 -0.507410E+02  0.132E-01    8.08       0.0  T
   2    -50.7410417 -0.660599E-05  0.988E-02    8.08       1.0  T
   3    -50.7410467 -0.503557E-05  0.156E-02    8.08       1.3  T
   4    -50.7410475 -0.808443E-06  0.480E-03    8.08       4.1  T
   5    -50.7410476 -0.422307E-07  0.169E-03    8.08      11.6  T
   6    -50.7410476 -0.228411E-08  0.893E-04    8.08      22.0  T
speedup  0.94
cpu  time for SCC    0.00 s
wall time for SCC    0.01 s
speedup  0.98
cpu  time for grad    0.01 s
wall time for grad    0.01 s
 E :    -50.44561754  G :  0.010944    pred/act E change: -0.401D-03 -0.213D-03
Maxdispl :   0.0802   ||displ|| :   0.2157   Lambda : -0.377D-03
Largest |displ|/coords:  0.0802 (  15)  0.0765 (   8)  0.0691 (   4)

generating ANC from model Hessian ...
 Shifting diagonal of input Hessian by   5.113744593152123E-003
 Lowest  eigenvalues of input Hessian
    0.005000   -0.000000   -0.000000   -0.000000   -0.000000    0.000000
    0.000000    0.005182    0.005535    0.005638    0.005749    0.006092
    0.006264    0.006527    0.006763    0.007295    0.007381    0.007787
 Highest eigenvalues
    1.376376    1.380073    1.406360    2.711065    3.319855    3.753373
 
cpu  time for ANC gen    0.02 s
wall time for ANC gen    0.02 s
................................................................................
.............................. CYCLE   53 ......................................
................................................................................
   1    -50.7352943 -0.507353E+02  0.151E-01    8.09       0.0  T
   2    -50.7352988 -0.442345E-05  0.114E-01    8.10       1.0  T
   3    -50.7353032 -0.440024E-05  0.113E-02    8.11       1.7  T
   4    -50.7353036 -0.471933E-06  0.484E-03    8.11       4.1  T
   5    -50.7353037 -0.292029E-07  0.172E-03    8.11      11.4  T
   6    -50.7353037 -0.360757E-08  0.862E-04    8.11      22.7  T
   7    -50.7353037 -0.166215E-08  0.207E-04    8.11      94.6  T
speedup  0.98
cpu  time for SCC    0.01 s
wall time for SCC    0.01 s
speedup  1.02
cpu  time for grad    0.01 s
wall time for grad    0.01 s
 E :    -50.44570597  G :  0.012237    pred/act E change:  0.000D+00 -0.884D-04
Maxdispl :   0.0872   ||displ|| :   0.2005   Lambda : -0.569D-03
Largest |displ|/coords:  0.0872 (  13)  0.0803 (   4)  0.0778 (   3)
................................................................................
.............................. CYCLE   54 ......................................
................................................................................
   1    -50.7372743 -0.507373E+02  0.148E-01    8.11       0.0  T
   2    -50.7372767 -0.235834E-05  0.111E-01    8.10       1.0  T
   3    -50.7372797 -0.300590E-05  0.794E-03    8.10       2.5  T
   4    -50.7372798 -0.141753E-06  0.315E-03    8.10       6.2  T
   5    -50.7372798 -0.151895E-07  0.127E-03    8.10      15.4  T
   6    -50.7372799 -0.387773E-08  0.720E-04    8.10      27.2  T
speedup  0.94
cpu  time for SCC    0.00 s
wall time for SCC    0.01 s
speedup  0.98
cpu  time for grad    0.01 s
wall time for grad    0.01 s
 E :    -50.44609982  G :  0.006718    pred/act E change:  0.000D+00 -0.394D-03
Maxdispl :   0.1282   ||displ|| :   0.2576   Lambda : -0.426D-03
Largest |displ|/coords:  0.1282 (  13)  0.1223 (   4)  0.1043 (   3)
................................................................................
.............................. CYCLE   55 ......................................
................................................................................
   1    -50.7373301 -0.507373E+02  0.199E-01    8.08       0.0  T
   2    -50.7373346 -0.450065E-05  0.150E-01    8.08       1.0  T
   3    -50.7373405 -0.588775E-05  0.123E-02    8.07       1.6  T
   4    -50.7373407 -0.224422E-06  0.402E-03    8.07       4.9  T
   5    -50.7373407 -0.212761E-07  0.196E-03    8.07      10.0  T
   6    -50.7373407 -0.528808E-08  0.778E-04    8.07      25.2  T
speedup  0.96
cpu  time for SCC    0.00 s
wall time for SCC    0.01 s
speedup  0.98
cpu  time for grad    0.01 s
wall time for grad    0.01 s
 E :    -50.44634028  G :  0.011677    pred/act E change: -0.296D-03 -0.240D-03
Maxdispl :   0.0849   ||displ|| :   0.1936   Lambda : -0.292D-03
Largest |displ|/coords:  0.0849 (   3)  0.0788 (  11)  0.0646 (   4)
................................................................................
.............................. CYCLE   56 ......................................
................................................................................
   1    -50.7383183 -0.507383E+02  0.111E-01    8.05       0.0  T
   2    -50.7383220 -0.365429E-05  0.832E-02    8.05       1.0  T
   3    -50.7383249 -0.293186E-05  0.117E-02    8.04       1.7  T
   4    -50.7383254 -0.447827E-06  0.348E-03    8.04       5.6  T
   5    -50.7383254 -0.179436E-07  0.134E-03    8.04      14.6  T
   6    -50.7383254 -0.189157E-08  0.644E-04    8.04      30.4  T
speedup  0.96
cpu  time for SCC    0.00 s
wall time for SCC    0.01 s
speedup  0.98
cpu  time for grad    0.01 s
wall time for grad    0.01 s
 E :    -50.44652864  G :  0.006399    pred/act E change: -0.227D-03 -0.188D-03
Maxdispl :   0.1274   ||displ|| :   0.2550   Lambda : -0.241D-03
Largest |displ|/coords:  0.1274 (   3)  0.1136 (  13)  0.0907 (   4)
................................................................................
.............................. CYCLE   57 ......................................
................................................................................
   1    -50.7376251 -0.507376E+02  0.138E-01    8.03       0.0  T
   2    -50.7376290 -0.397374E-05  0.104E-01    8.03       1.0  T
   3    -50.7376335 -0.450552E-05  0.122E-02    8.02       1.6  T
   4    -50.7376339 -0.346132E-06  0.461E-03    8.02       4.3  T
   5    -50.7376339 -0.287029E-07  0.160E-03    8.02      12.2  T
   6    -50.7376339 -0.348177E-08  0.793E-04    8.02      24.7  T
speedup  1.15
cpu  time for SCC    0.01 s
wall time for SCC    0.01 s
speedup  0.98
cpu  time for grad    0.01 s
wall time for grad    0.01 s
 E :    -50.44669270  G :  0.006003    pred/act E change: -0.152D-03 -0.164D-03
Maxdispl :   0.1381   ||displ|| :   0.2438   Lambda : -0.180D-03
Largest |displ|/coords:  0.1381 (   3)  0.1054 (  13)  0.0824 (   4)
................................................................................
.............................. CYCLE   58 ......................................
................................................................................
   1    -50.7375168 -0.507375E+02  0.127E-01    8.03       0.0  T
   2    -50.7375199 -0.304106E-05  0.955E-02    8.03       1.0  T
   3    -50.7375229 -0.303850E-05  0.103E-02    8.02       1.9  T
   4    -50.7375232 -0.339226E-06  0.469E-03    8.02       4.2  T
   5    -50.7375233 -0.276181E-07  0.133E-03    8.02      14.7  T
   6    -50.7375233 -0.232489E-08  0.732E-04    8.02      26.8  T
speedup  0.78
cpu  time for SCC    0.00 s
wall time for SCC    0.01 s
speedup  0.92
cpu  time for grad    0.01 s
wall time for grad    0.01 s
 E :    -50.44681309  G :  0.004298    pred/act E change: -0.128D-03 -0.120D-03
Maxdispl :   0.1312   ||displ|| :   0.2096   Lambda : -0.104D-03
Largest |displ|/coords:  0.1312 (   3)  0.0854 (  13)  0.0665 (   4)
................................................................................
.............................. CYCLE   59 ......................................
................................................................................
   1    -50.7374654 -0.507375E+02  0.121E-01    8.03       0.0  T
   2    -50.7374673 -0.189144E-05  0.913E-02    8.03       1.0  T
   3    -50.7374696 -0.236139E-05  0.738E-03    8.03       2.7  T
   4    -50.7374697 -0.126045E-06  0.343E-03    8.03       5.7  T
   5    -50.7374698 -0.135021E-07  0.102E-03    8.03      19.2  T
   6    -50.7374698 -0.125430E-08  0.563E-04    8.03      34.8  T
speedup  0.98
cpu  time for SCC    0.00 s
wall time for SCC    0.01 s
speedup  0.99
cpu  time for grad    0.01 s
wall time for grad    0.01 s
 E :    -50.44688662  G :  0.004893    pred/act E change: -0.952D-04 -0.735D-04
Maxdispl :   0.1281   ||displ|| :   0.2004   Lambda : -0.940D-04
Largest |displ|/coords:  0.1281 (   3)  0.0693 (   1)  0.0673 (  13)
................................................................................
.............................. CYCLE   60 ......................................
................................................................................
   1    -50.7384567 -0.507385E+02  0.105E-01    8.06       0.0  T
   2    -50.7384586 -0.193804E-05  0.795E-02    8.06       1.0  T
   3    -50.7384607 -0.207473E-05  0.828E-03    8.07       2.4  T
   4    -50.7384609 -0.211516E-06  0.333E-03    8.07       5.9  T
   5    -50.7384609 -0.147793E-07  0.105E-03    8.07      18.7  T
   6    -50.7384609 -0.140616E-08  0.536E-04    8.07      36.6  T
speedup  0.96
cpu  time for SCC    0.00 s
wall time for SCC    0.01 s
speedup  0.99
cpu  time for grad    0.01 s
wall time for grad    0.01 s
 E :    -50.44694057  G :  0.003788    pred/act E change: -0.543D-04 -0.540D-04
Maxdispl :   0.1950   ||displ|| :   0.3222   Lambda : -0.102D-03
Largest |displ|/coords:  0.1950 (   3)  0.1283 (  13)  0.1118 (   4)
................................................................................
.............................. CYCLE   61 ......................................
................................................................................
   1    -50.7351842 -0.507352E+02  0.193E-01    8.05       0.0  T
   2    -50.7351899 -0.569667E-05  0.146E-01    8.05       1.0  T
   3    -50.7351964 -0.646535E-05  0.127E-02    8.05       1.5  T
   4    -50.7351969 -0.524642E-06  0.505E-03    8.05       3.9  T
   5    -50.7351970 -0.340356E-07  0.209E-03    8.05       9.4  T
   6    -50.7351970 -0.506691E-08  0.926E-04    8.05      21.2  T
   7    -50.7351970 -0.286755E-08  0.199E-04    8.05      98.4  T
speedup  0.98
cpu  time for SCC    0.01 s
wall time for SCC    0.01 s
speedup  0.95
cpu  time for grad    0.01 s
wall time for grad    0.01 s
 E :    -50.44686259  G :  0.012876    pred/act E change: -0.489D-04  0.780D-04
Maxdispl :   0.0781   ||displ|| :   0.1479   Lambda : -0.282D-03
Largest |displ|/coords:  0.0781 (   3)  0.0712 (  13)  0.0656 (   4)
................................................................................
.............................. CYCLE   62 ......................................
................................................................................
   1    -50.7386180 -0.507386E+02  0.894E-02    8.07       0.0  T
   2    -50.7386210 -0.298458E-05  0.671E-02    8.07       1.0  T
   3    -50.7386235 -0.249599E-05  0.949E-03    8.08       2.1  T
   4    -50.7386239 -0.381866E-06  0.342E-03    8.08       5.7  T
   5    -50.7386239 -0.173263E-07  0.139E-03    8.08      14.1  T
   6    -50.7386239 -0.213016E-08  0.613E-04    8.08      32.0  T
speedup  0.96
cpu  time for SCC    0.00 s
wall time for SCC    0.01 s
speedup  0.98
cpu  time for grad    0.01 s
wall time for grad    0.01 s
 E :    -50.44698069  G :  0.003849    pred/act E change: -0.565D-04 -0.118D-03
Maxdispl :   0.0192   ||displ|| :   0.0493   Lambda : -0.393D-04
Largest |displ|/coords:  0.0192 (  18)  0.0182 (   3)  0.0146 (   4)
................................................................................
.............................. CYCLE   63 ......................................
................................................................................
   1    -50.7384974 -0.507385E+02  0.475E-02    8.08       0.0  T
   2    -50.7384979 -0.475824E-06  0.361E-02    8.08       1.0  T
   3    -50.7384985 -0.593452E-06  0.352E-03    8.07       5.6  T
   4    -50.7384985 -0.281977E-07  0.148E-03    8.07      13.2  T
   5    -50.7384985 -0.252301E-08  0.434E-04    8.07      45.1  T
   6    -50.7384985 -0.204828E-09  0.241E-04    8.07      81.4  T
speedup  0.94
cpu  time for SCC    0.00 s
wall time for SCC    0.01 s
speedup  1.01
cpu  time for grad    0.01 s
wall time for grad    0.01 s
 E :    -50.44698993  G :  0.002977    pred/act E change: -0.144D-03 -0.924D-05
Maxdispl :   0.0452   ||displ|| :   0.0726   Lambda : -0.219D-04
Largest |displ|/coords:  0.0452 (   1)  0.0398 (   3)  0.0156 (  13)
................................................................................
.............................. CYCLE   64 ......................................
................................................................................
   1    -50.7383053 -0.507383E+02  0.471E-02    8.08       0.0  T
   2    -50.7383055 -0.228647E-06  0.357E-02    8.07       1.0  T
   3    -50.7383058 -0.291337E-06  0.247E-03    8.07       7.9  T
   4    -50.7383058 -0.104273E-07  0.907E-04    8.07      21.6  T
   5    -50.7383058 -0.779650E-09  0.338E-04    8.07      58.1  T
speedup  1.14
cpu  time for SCC    0.00 s
wall time for SCC    0.00 s
speedup  1.01
cpu  time for grad    0.01 s
wall time for grad    0.01 s
 E :    -50.44700582  G :  0.001045    pred/act E change: -0.197D-04 -0.159D-04
Maxdispl :   0.0884   ||displ|| :   0.1237   Lambda : -0.178D-04
Largest |displ|/coords:  0.0884 (   1)  0.0567 (   3)  0.0303 (  13)
................................................................................
.............................. CYCLE   65 ......................................
................................................................................
   1    -50.7379849 -0.507380E+02  0.663E-02    8.07       0.0  T
   2    -50.7379854 -0.504632E-06  0.501E-02    8.07       1.0  T
   3    -50.7379860 -0.638601E-06  0.374E-03    8.07       5.2  T
   4    -50.7379861 -0.263010E-07  0.143E-03    8.07      13.7  T
   5    -50.7379861 -0.228625E-08  0.532E-04    8.07      36.8  T
   6    -50.7379861 -0.331056E-09  0.280E-04    8.07      70.1  T
speedup  0.74
cpu  time for SCC    0.00 s
wall time for SCC    0.01 s
speedup  0.99
cpu  time for grad    0.01 s
wall time for grad    0.01 s
 E :    -50.44701655  G :  0.002029    pred/act E change: -0.110D-04 -0.107D-04
Maxdispl :   0.0631   ||displ|| :   0.0768   Lambda : -0.875D-05
Largest |displ|/coords:  0.0631 (   1)  0.0242 (   3)  0.0180 (  10)
................................................................................
[...]
Maxdispl :   0.0084   ||displ|| :   0.0154   Lambda : -0.491D-06
Largest |displ|/coords:  0.0084 (   6)  0.0066 (   9)  0.0058 (   4)
................................................................................
.............................. CYCLE   85 ......................................
................................................................................
   1    -50.7386370 -0.507386E+02  0.100E-02    8.06       0.0  T
   2    -50.7386370 -0.103377E-07  0.751E-03    8.06       2.6  T
   3    -50.7386371 -0.119118E-07  0.541E-04    8.06      36.2  T
   4    -50.7386371 -0.551680E-09  0.180E-04    8.06     109.0  T
speedup  1.14
cpu  time for SCC    0.00 s
wall time for SCC    0.00 s
speedup  1.00
cpu  time for grad    0.01 s
wall time for grad    0.01 s
 E :    -50.44706341  G :  0.000279    pred/act E change: -0.464D-06 -0.385D-06
Maxdispl :   0.0166   ||displ|| :   0.0285   Lambda : -0.740D-06
Largest |displ|/coords:  0.0166 (   6)  0.0112 (   4)  0.0109 (   9)
................................................................................
.............................. CYCLE   86 ......................................
................................................................................
   1    -50.7385824 -0.507386E+02  0.177E-02    8.06       0.0  T
   2    -50.7385824 -0.330535E-07  0.132E-02    8.06       1.5  T
   3    -50.7385825 -0.391052E-07  0.100E-03    8.06      19.5  T
   4    -50.7385825 -0.146283E-08  0.416E-04    8.06      47.2  T
   5    -50.7385825 -0.182162E-09  0.116E-04    8.06     168.4  T
speedup  1.14
cpu  time for SCC    0.00 s
wall time for SCC    0.00 s
speedup  1.01
cpu  time for grad    0.01 s
wall time for grad    0.01 s
 E :    -50.44706394  G :  0.000315    pred/act E change: -0.246D-06 -0.525D-06
Maxdispl :   0.0158   ||displ|| :   0.0278   Lambda : -0.597D-06
Largest |displ|/coords:  0.0158 (   6)  0.0124 (   4)  0.0100 (   7)
................................................................................
.............................. CYCLE   87 ......................................
................................................................................
   1    -50.7385464 -0.507385E+02  0.166E-02    8.06       0.0  T
   2    -50.7385465 -0.289267E-07  0.124E-02    8.06       1.6  T
   3    -50.7385465 -0.358411E-07  0.922E-04    8.06      21.3  T
   4    -50.7385465 -0.106299E-08  0.407E-04    8.06      48.1  T
speedup  0.86
cpu  time for SCC    0.00 s
wall time for SCC    0.00 s
speedup  1.00
cpu  time for grad    0.01 s
wall time for grad    0.01 s
 E :    -50.44706437  G :  0.000296    pred/act E change: -0.370D-06 -0.439D-06
Maxdispl :   0.0128   ||displ|| :   0.0230   Lambda : -0.520D-06
Largest |displ|/coords:  0.0128 (   6)  0.0101 (   4)  0.0092 (   7)
................................................................................
.............................. CYCLE   88 ......................................
................................................................................
   1    -50.7385603 -0.507386E+02  0.133E-02    8.07       0.0  T
   2    -50.7385603 -0.205894E-07  0.994E-03    8.07       2.0  T
   3    -50.7385603 -0.234356E-07  0.818E-04    8.07      24.0  T
   4    -50.7385603 -0.121850E-08  0.387E-04    8.07      50.7  T
speedup  0.86
cpu  time for SCC    0.00 s
wall time for SCC    0.00 s
speedup  0.99
cpu  time for grad    0.01 s
wall time for grad    0.01 s
 E :    -50.44706479  G :  0.000255    pred/act E change: -0.299D-06 -0.414D-06
Maxdispl :   0.0125   ||displ|| :   0.0248   Lambda : -0.473D-06
Largest |displ|/coords:  0.0125 (   6)  0.0108 (   4)  0.0107 (   7)
................................................................................
.............................. CYCLE   89 ......................................
................................................................................
   1    -50.7385964 -0.507386E+02  0.141E-02    8.07       0.0  T
   2    -50.7385965 -0.226588E-07  0.106E-02    8.07       1.9  T
   3    -50.7385965 -0.266984E-07  0.894E-04    8.07      21.9  T
   4    -50.7385965 -0.118148E-08  0.381E-04    8.07      51.5  T
speedup  0.83
cpu  time for SCC    0.00 s
wall time for SCC    0.00 s
speedup  0.98
cpu  time for grad    0.01 s
wall time for grad    0.01 s
 E :    -50.44706513  G :  0.000236    pred/act E change: -0.260D-06 -0.345D-06
Maxdispl :   0.0082   ||displ|| :   0.0169   Lambda : -0.254D-06
Largest |displ|/coords:  0.0082 (   6)  0.0069 (   1)  0.0068 (   7)
................................................................................
.............................. CYCLE   90 ......................................
................................................................................
   1    -50.7386199 -0.507386E+02  0.958E-03    8.07       0.0  T
   2    -50.7386199 -0.100433E-07  0.716E-03    8.07       2.7  T
   3    -50.7386200 -0.123887E-07  0.658E-04    8.07      29.8  T
   4    -50.7386200 -0.415376E-09  0.191E-04    8.07     102.7  T
speedup  1.05
cpu  time for SCC    0.00 s
wall time for SCC    0.00 s
speedup  0.98
cpu  time for grad    0.01 s
wall time for grad    0.01 s
 E :    -50.44706534  G :  0.000204    pred/act E change: -0.237D-06 -0.203D-06
Maxdispl :   0.0116   ||displ|| :   0.0250   Lambda : -0.301D-06
Largest |displ|/coords:  0.0116 (   6)  0.0102 (   1)  0.0101 (   4)
................................................................................
.............................. CYCLE   91 ......................................
................................................................................
   1    -50.7386150 -0.507386E+02  0.142E-02    8.07       0.0  T
   2    -50.7386151 -0.227261E-07  0.106E-02    8.07       1.8  T
   3    -50.7386151 -0.283400E-07  0.101E-03    8.07      19.4  T
   4    -50.7386151 -0.918092E-09  0.265E-04    8.07      74.0  T
   5    -50.7386151 -0.115932E-09  0.112E-04    8.07     174.9  T
speedup  0.89
cpu  time for SCC    0.00 s
wall time for SCC    0.00 s
speedup  0.98
cpu  time for grad    0.01 s
wall time for grad    0.01 s
 E :    -50.44706555  G :  0.000169    pred/act E change: -0.127D-06 -0.209D-06
Maxdispl :   0.0048   ||displ|| :   0.0097   Lambda : -0.160D-06
Largest |displ|/coords:  0.0048 (   2)  0.0043 (   1)  0.0032 (   6)
................................................................................
.............................. CYCLE   92 ......................................
................................................................................
   1    -50.7386097 -0.507386E+02  0.541E-03    8.07       0.0  T
   2    -50.7386097 -0.420771E-08  0.403E-03    8.07       4.9  T
   3    -50.7386097 -0.398783E-08  0.479E-04    8.07      40.9  T
   4    -50.7386097 -0.422659E-09  0.170E-04    8.07     115.6  T
speedup  1.11
cpu  time for SCC    0.00 s
wall time for SCC    0.00 s
speedup  0.98
cpu  time for grad    0.01 s
wall time for grad    0.01 s
 E :    -50.44706566  G :  0.000139    pred/act E change: -0.151D-06 -0.114D-06
Maxdispl :   0.0070   ||displ|| :   0.0138   Lambda : -0.165D-06
Largest |displ|/coords:  0.0070 (   2)  0.0063 (   1)  0.0048 (   4)
................................................................................
.............................. CYCLE   93 ......................................
................................................................................
   1    -50.7385718 -0.507386E+02  0.762E-03    8.07       0.0  T
   2    -50.7385719 -0.773972E-08  0.568E-03    8.07       3.4  T
   3    -50.7385719 -0.791387E-08  0.629E-04    8.07      31.2  T
   4    -50.7385719 -0.661011E-09  0.218E-04    8.07      90.2  T
speedup  1.11
cpu  time for SCC    0.00 s
wall time for SCC    0.00 s
speedup  0.98
cpu  time for grad    0.01 s
wall time for grad    0.01 s
 E :    -50.44706578  G :  0.000125    pred/act E change: -0.802D-07 -0.117D-06
Maxdispl :   0.0068   ||displ|| :   0.0115   Lambda : -0.118D-06
Largest |displ|/coords:  0.0068 (   2)  0.0054 (   1)  0.0040 (   4)
................................................................................
.............................. CYCLE   94 ......................................
................................................................................
   1    -50.7385423 -0.507385E+02  0.600E-03    8.07       0.0  T
   2    -50.7385423 -0.481216E-08  0.449E-03    8.07       4.4  T
   3    -50.7385423 -0.474380E-08  0.445E-04    8.07      44.1  T
   4    -50.7385423 -0.473506E-09  0.179E-04    8.07     109.7  T
speedup  0.83
cpu  time for SCC    0.00 s
wall time for SCC    0.00 s
speedup  0.97
cpu  time for grad    0.01 s
wall time for grad    0.01 s
 E :    -50.44706587  G :  0.000132    pred/act E change: -0.827D-07 -0.962D-07
Maxdispl :   0.0131   ||displ|| :   0.0222   Lambda : -0.195D-06
Largest |displ|/coords:  0.0131 (   2)  0.0112 (   1)  0.0078 (   4)

   *** GEOMETRY OPTIMIZATION CONVERGED AFTER 94 ITERATIONS ***

------------------------------------------------------------------------
 total energy gain (kcal):     -0.0025
------------------------------------------------------------------------
================
 final structure:
================
$coord
       -0.75630207004553       -0.53318196410109        3.40924805485833      S 
       -0.02933370295526        1.28390872551948        5.26159574496809      O 
        1.26996410062755       -2.21554748464714        2.63912626619530      O 
       -1.72127428206961        0.87182273950620        1.01650603095565      O 
       -3.03570200343178       -2.06878987702327        4.18478194275468      O 
       -3.45613938997630       -3.13910730097633        2.56670559584886      H 
       -0.62891194861543        2.39819721930505        0.77555176790255      H 
        2.82546123285312       -2.99144759745448       -2.18003284633861      O 
        4.15951749343340       -1.76860842516199       -2.29158396525082      H 
        2.29330883956198       -2.98864609436979       -0.42119112119531      H 
        5.01163506089273        1.08224376562483        1.98846703196111      O 
        5.89712244053960        1.34266632552491        3.54862137317998      H 
        3.80309207646313       -0.27980433188461        2.31510862239119      H 
       -2.02730305269012       -2.10636468023769       -3.72023129897250      O 
       -0.24001171956913       -2.51077760451765       -3.54265977718570      H 
       -2.11138833991411       -0.25898536185367       -3.72659923346956      H 
        1.45326538501189        4.54358579227462        1.13190900959001      O 
        2.98759190372891        3.49136360692664        1.22625784478793      H 
        1.06646972281398        4.97355900863273        2.85724965228943      H 
       -3.64548829286703       -4.52403694006031        0.21084262326443      O 
       -2.40357015740437       -5.84821067002976        0.24591769589279      H 
       -3.21059224737789       -3.46429438149257       -1.32048552302489      H 
       -1.83361740813762        3.16555513081174       -4.04306779620956      N 
       -1.95568127383607        3.82826046818353       -5.83362896903529      H 
       -0.31920429997662        3.98359445287109       -3.20623931530051      H 
       -3.39290806689737        3.73304544090475       -3.09216942989007      H 
$end
 
 Bond Distances (Angstroems)
 ---------------------------
S1-O2=1.4260         S1-O3=1.4520         S1-O4=1.5546         S1-O5=1.5112         O2-S1=1.4260         O3-S1=1.4520         
O4-S1=1.5546         O4-H7=1.0014         O5-S1=1.5112         O5-H6=1.0505         H6-O5=1.0505         H7-O4=1.0014         
O8-H9=0.9595         O8-H10=0.9724        H9-O8=0.9595         H10-O8=0.9724        O11-H12=0.9593       O11-H13=0.9790       
H12-O11=0.9593       H13-O11=0.9790       O14-H15=0.9742       O14-H16=0.9786       H15-O14=0.9742       H16-O14=0.9786       
O17-H18=0.9858       O17-H19=0.9629       H18-O17=0.9858       H19-O17=0.9629       O20-H21=0.9609       O20-H22=1.0120       
H21-O20=0.9609       H22-O20=1.0120       N23-H24=1.0124       N23-H25=1.0128       N23-H26=1.0120       H24-N23=1.0124       
H25-N23=1.0128       H26-N23=1.0120       
 N  H  Rav=1.0124 sigma=0.0003  Rmin=1.0120  Rmax=1.0128     3
 O  H  Rav=0.9830 sigma=0.0258  Rmin=0.9593  Rmax=1.0505    12
 S  O  Rav=1.4859 sigma=0.0502  Rmin=1.4260  Rmax=1.5546     4
 
 selected bond angles (degree)
 --------------------
O3-S1-O2=114.03                O4-S1-O2=109.03                O4-S1-O3=107.89                O5-S1-O2=113.03                
O5-S1-O3=109.63                O5-S1-O4=102.48                H7-O4-S1=107.45                H6-O5-S1=103.75                
H10-O8-H9=105.72               
 
 selected dihedral angles (degree)
 ---------------------------------
H7-O4-S1-O2= 38.09            H7-O4-S1-O3=273.76            H7-O4-S1-O5=158.10            H6-O5-S1-O2=173.43            
H6-O5-S1-O3=301.85            H6-O5-S1-O4= 56.24            
 
 CMA Distance (Angstroems)
 ---------------------------
R(CMA):  2.3867

========================================================================
 FINAL SINGLEPOINT CALCULATION ON OPTIMIZED GEOMETRY
========================================================================

 Ncao       : 65
 Nao        : 64
 Nshell     : 38
 Nel        : 80
 T(el)      :   300.0
 intcut     :    25.0
 scfconv/Eh :  0.100E-05
   qconv/e  :  0.100E-03
 intneglect :  0.100E-07
 broydamp   :      0.250
 iter      E             dE          RMSdq      gap      omega  full diag
   1    -50.7385423 -0.507385E+02  0.591E-05    8.07       0.0  T
   2    -50.7385423 -0.324718E-11  0.382E-05    8.07     513.7  T
   3    -50.7385423 -0.181188E-11  0.793E-06    8.07    2474.3  T
speedup  1.11
cpu  time for SCC    0.00 s
wall time for SCC    0.00 s

   *** convergence criteria satisfied after 3 iterations ***

          eigenvalues
 #    :          28         29         30         31         32         33         34         35
 occ. :        2.000      2.000      2.000      2.000      2.000      2.000      2.000      2.000
 eps  :       -13.690    -13.455    -13.297    -12.995    -12.812    -12.789    -12.739    -12.586
 #    :          36         37         38         39         40         41         42         43
 occ. :        2.000      2.000      2.000      2.000      2.000      0.000      0.000      0.000
 eps  :       -12.446    -12.358    -11.945    -11.542    -11.065     -2.995     -0.984     -0.372
 #    :          44         45         46         47         48         49         50         51
 occ. :        0.000      0.000      0.000      0.000      0.000      0.000      0.000      0.000
 eps  :         0.381      0.708      1.330      1.414      2.358      3.387      4.733      5.171


   #   Z            q   n(s)   n(p)   n(d)      C6AA      α(0)
   1  16 S      1.721  1.579  1.764  0.936    88.285    15.814
   2   8 O     -0.686  1.752  4.934  0.000    28.335     7.137
   3   8 O     -0.743  1.768  4.974  0.000    29.895     7.331
   4   8 O     -0.624  1.756  4.868  0.000    25.737     6.849
   5   8 O     -0.608  1.758  4.850  0.000    25.367     6.799
   6   1 H      0.401  0.599  0.000  0.000     0.475     1.079
   7   1 H      0.388  0.612  0.000  0.000     0.504     1.113
   8   8 O     -0.608  1.743  4.865  0.000    25.384     6.800
   9   1 H      0.293  0.707  0.000  0.000     0.742     1.353
  10   1 H      0.317  0.683  0.000  0.000     0.671     1.287
  11   8 O     -0.614  1.743  4.872  0.000    25.533     6.820
  12   1 H      0.296  0.704  0.000  0.000     0.732     1.344
  13   1 H      0.321  0.679  0.000  0.000     0.661     1.277
  14   8 O     -0.624  1.753  4.871  0.000    25.768     6.851
  15   1 H      0.318  0.682  0.000  0.000     0.669     1.284
  16   1 H      0.314  0.686  0.000  0.000     0.681     1.297
  17   8 O     -0.609  1.751  4.858  0.000    25.410     6.803
  18   1 H      0.335  0.665  0.000  0.000     0.624     1.241
  19   1 H      0.309  0.691  0.000  0.000     0.695     1.310
  20   8 O     -0.606  1.758  4.849  0.000    25.310     6.791
  21   1 H      0.305  0.695  0.000  0.000     0.705     1.319
  22   1 H      0.361  0.639  0.000  0.000     0.564     1.180
  23   7 N     -0.442  1.371  4.070  0.000    31.575     8.345
  24   1 H      0.157  0.843  0.000  0.000     1.353     1.822
  25   1 H      0.168  0.832  0.000  0.000     1.284     1.775
  26   1 H      0.158  0.842  0.000  0.000     1.345     1.817

 Mol. C6AA /au·bohr⁶  :       5457.630884
 Mol. C8AA /au·bohr⁸  :     117719.673431
 Mol. α(0) /au        :        106.836259

 
 Wiberg/Mayer (AO) data. WBOs > 0.1 written file <wbo>
 largest (>0.05) Wiberg bond orders for each atom
           total WBO             WBO to atom ...
     1  S   4.817    O    2 1.451    O    3 1.294    O    5 1.068    O    4 0.966
     2  O   1.763    S    1 1.451    O    3 0.119    O    4 0.092    O    5 0.080
     3  O   1.726    S    1 1.294    O    2 0.119    O    5 0.089    O    4 0.086    H   13 0.057
     4  O   1.961    S    1 0.966    H    7 0.709    O    2 0.092    O    3 0.086    O    5 0.057
     5  O   1.986    S    1 1.068    H    6 0.619    O    3 0.089    O    2 0.080    O   20 0.058    O    4 0.057
     6  H   0.839    O    5 0.619    O   20 0.203
     7  H   0.850    O    4 0.709    O   17 0.119
     8  O   1.855    H    9 0.909    H   10 0.855
     9  H   0.914    O    8 0.909
    10  H   0.899    O    8 0.855
    11  O   1.873    H   12 0.909    H   13 0.835    H   18 0.066
    12  H   0.912    O   11 0.909
    13  H   0.897    O   11 0.835    O    3 0.057
    14  O   1.907    H   15 0.853    H   16 0.840    H   22 0.113
    15  H   0.899    O   14 0.853
    16  H   0.902    O   14 0.840    N   23 0.056
    17  O   1.923    H   19 0.898    H   18 0.819    H    7 0.119
    18  H   0.887    O   17 0.819    O   11 0.066
    19  H   0.905    O   17 0.898
    20  O   1.973    H   21 0.904    H   22 0.752    H    6 0.203    O    5 0.058
    21  H   0.907    O   20 0.904
    22  H   0.870    O   20 0.752    O   14 0.113
    23  N   3.002    H   26 0.973    H   24 0.973    H   25 0.965    H   16 0.056
    24  H   0.975    N   23 0.973
    25  H   0.972    N   23 0.965
    26  H   0.975    N   23 0.973
 MOs/occ written to file <molden.input>
 
molecular dipole:
                 x           y           z       tot (Debye)
 q only:        0.383       0.770      -0.521
   full:        0.700       1.207      -0.086       3.553
molecular quadrupole (traceless):
                xx          xy          yy          xz          yz          zz
 q only:        1.177      -0.810       4.963       4.758      -4.243      -6.139
  q+dip:       -0.165      -3.825       6.258       6.371      -7.209      -6.093
   full:       -0.033      -3.467       6.058       6.346      -7.465      -6.025

SCC energy    :     -50.7385423
rep           :       0.2910809
ES            :       0.2310302
AES           :      -0.0513417
AXC           :      -0.0070970
disp          :      -0.0191563
XB            :       0.0000000
fix           :       0.0000000
total E       :     -50.4470659
atomizationE  :       4.9773700     3123.35
(atE without considering molecular charge,
 total energy contains solvation terms)
H-L gap (eV)  :          8.0697
optimized geometry written to: xtbopt.xyz


------------------------------------------------------------------------
 * finished run on 2019/09/16 at 11:48:08.980     
------------------------------------------------------------------------
 total:
 * wall-time:     0 d,  0 h,  0 min,  2.144 sec
 *  cpu-time:     0 d,  0 h,  0 min,  2.120 sec
 * ratio c/w:     0.989 speedup
 SCF:
 * wall-time:     0 d,  0 h,  0 min,  0.152 sec
 *  cpu-time:     0 d,  0 h,  0 min,  0.148 sec
 * ratio c/w:     0.970 speedup
 ANC optimizer:
 * wall-time:     0 d,  0 h,  0 min,  1.966 sec
 *  cpu-time:     0 d,  0 h,  0 min,  1.949 sec
 * ratio c/w:     0.991 speedup

