      -----------------------------------------------------------      
     |                   =====================                   |     
     |                           x T B                           |     
     |                   =====================                   |     
     |                         S. Grimme                         |     
     |          Mulliken Center for Theoretical Chemistry        |     
     |                    University of Bonn                     |     
     |                 Version 6.0.1 (SAW181210)                 |     
      -----------------------------------------------------------      

   This program is distributed in the hope that it will be useful,
   but WITHOUT ANY WARRANTY; without even the implied warranty of
   MERCHANTABILITY or FITNESS FOR A PARTICULAR PURPOSE.
   
   FOR NON-COMMERCIAL, ACADEMIA USE ONLY.
   
   Cite this work as:
   S. Grimme, C. Bannwarth, P. Shushkov, J. Comput. Theory Chem., 2017,
   13, 1989-2009.
   C. Bannwarth, S. Ehlert and S. Grimme., ChemRxiv, 2018, preprint.
   http://doi.org/10.26434/chemrxiv.7246238.v1
   
   for sTDA-xTB:
   S. Grimme and C. Bannwarth, J. Chem. Phys., 2016, 145, 054103.
   
   in the mass-spec context:
   V. Asgeirsson, C. Bauer and S. Grimme, Chem. Sci., 2017, 8, 4879.
   
   if GBSA is used:
   P. Shushkov, F. März and S. Grimme, unpublished.
   
   for ANC optimizer:
   S. Grimme, unpublished.
   Rational Function algorithm used in ANCopt:
   F. Eckert, P. Pulay, H.-J. Werner, J. Comput. Chem., 1997, 18, 1473.
   
   with help from (in alphabetical order)
   C. Bannwarth, F. Bohle, G. Brandenburg, E. Caldeweyher, M. Checinski,
   S. Dohm, S. Ehlert, S. Ehrlich, F. März, H. Neugebauer, J. Pisarek,
   P. Pracht, P. Shushkov, and S. Spicher.
   
 * started run on 2019/09/16 at 12:19:51.261     
========================================================================
 # omp threads = 1
========================================================================
number of atoms            : 26
number of electrons        : 80
charge                     : 0
spin                       : .0
first test random number   : .9763

########################################################################
# WARNING! Please study the warnings concerning your input carefully
#  - XTBPATH is not set, using XTBHOME instead
#  - the use of '-opt' is discouraged, please use '--opt' next time
#  - the use of '-chrg' is discouraged, please use '--chrg' next time
#  - the use of '-uhf' is discouraged, please use '--uhf' next time
########################################################################

           ------------------------------------------------- 
          |                 G F N 2 - x T B                 |
          | Geometry, Frequencies, Noncovalent interactions |
          |            JCTC 2018 parametrisation            |
           ------------------------------------------------- 
      method parameters     
 k(s)        :  1.8500
 k(p)        :  2.2300
 k(d)        :  2.2300
 k(f)        :  2.0000
 kEN (H0ij)  : -2.0000
 D4 a1       :  0.5200
 D4 a2       :  5.0000
 D4 s6       :  1.0000
 D4 s8       :  2.7000
 D4 s9       :  5.0000
 alphaj      :  2.0000


            Z     q(EN)     CN     RAES       Cart. coordinates
     1  S   6.0    0.67    4.14    3.94     0.95448     0.61857     1.39832
     2  O   6.0   -0.30    1.20    1.80     1.08592     2.65412     3.33929
     3  O   6.0   -0.34    1.27    1.80     1.62007     1.68125    -1.12276
     4  O   6.0   -0.31    1.22    1.80     2.76877    -1.42982     2.06211
     5  O   6.0   -0.34    1.22    1.80    -1.65682    -0.43129     1.31462
     6  O   6.0   -0.29    2.04    1.83    -1.65296    -5.04679    -1.17044
     7  H   1.0    0.16    0.99    1.43    -2.10865    -5.92732     0.35653
     8  H   1.0    0.16    1.01    1.43    -2.12061    -3.31090    -0.88303
     9  O   6.0   -0.27    1.97    1.82    -1.81588    -4.81801     3.99665
    10  H   1.0    0.15    0.97    1.43    -0.29785    -4.66987     4.99075
    11  H   1.0    0.17    1.04    1.43    -2.05238    -3.18262     3.23234
    12  O   6.0   -0.29    2.02    1.83    -1.24498     5.75182    -2.28155
    13  H   1.0    0.17    1.05    1.44    -0.12932     4.34115    -1.99884
    14  H   1.0    0.15    0.97    1.43    -0.58374     6.60195    -3.74943
    15  O   6.0   -0.29    2.05    1.83     4.07851    -0.80535    -4.74999
    16  H   1.0    0.17    1.05    1.44     3.24246     0.31350    -3.58216
    17  H   1.0    0.15    0.97    1.43     4.92269     0.28389    -5.93975
    18  O   6.0   -0.22    2.91    2.56     3.20527    -4.50707    -1.66902
    19  H   1.0    0.14    1.04    1.43     1.45126    -5.12821    -1.83479
    20  H   1.0    0.14    1.05    1.44     3.70850    -3.43594    -3.11451
    21  H   1.0    0.15    1.07    1.44     3.49262    -3.65228    -0.03248
    22  N   5.0   -0.14    3.96    2.75    -3.37347     4.81985     2.28763
    23  H   1.0    0.12    1.09    1.44    -1.71253     4.35072     3.18519
    24  H   1.0    0.09    0.99    1.43    -4.48235     3.23201     2.10424
    25  H   1.0    0.08    0.99    1.43    -4.32226     6.15581     3.33617
    26  H   1.0    0.11    1.05    1.44    -2.97675     5.54084     0.52490

  Z AO/shell   Hii/eV     exponent
  1     Wed Apr 25 08:07:45 CEST 2018   EN: 2.200 GM2: 0.406  GM3: 0.0800  RAES: 1.40
     1s    -10.707211    1.230000
  7     Wed Apr 25 08:07:45 CEST 2018   EN: 3.040 GM2: 0.461  GM3:-0.0640  RAES: 1.90
     2s    -16.686243    2.339881
     2p    -12.523956    2.014332
  8     Wed Apr 25 08:07:45 CEST 2018   EN: 3.440 GM2: 0.452  GM3:-0.0517  RAES: 1.80
     2s    -20.229985    2.439742
     2p    -15.503117    2.137023
 16     Tue Apr 24 11:44:34 CEST 2018   EN: 2.580 GM2: 0.340  GM3:-0.0502  RAES: 3.10
     3s    -20.029654    1.981333
     3p    -11.377694    2.025643
     3d     -0.420282    1.702555
 no old-style atom pair restraining (fixing) potential

molecular fragmentation (1/2 indicates fragments):
11111222222222222222222222
# atoms in fragment 1/2:     5    21
 fragment masses (1/2) :       96.06      109.12
CMA distance (Bohr)    :   2.638
constraining FC (au)   :  0.0500
           ------------------------------------------------- 
          |        Self-Consistent Charge Iterations        |
           ------------------------------------------------- 

 Ncao       : 65
 Nao        : 64
 Nshell     : 38
 Nel        : 80
 T(el)      :   300.0
 intcut     :    25.0
 scfconv/Eh :  0.100E-05
   qconv/e  :  0.100E-03
 intneglect :  0.100E-07
 broydamp   :      0.250
 iter      E             dE          RMSdq      gap      omega  full diag
   1    -50.6200098 -0.506200E+02  0.698E+00   10.38       0.0  T
   2    -50.6607400 -0.407302E-01  0.501E+00   10.03       1.0  T
   3    -50.6949247 -0.341848E-01  0.108E+00    7.95       1.0  T
   4    -50.6989453 -0.402059E-02  0.544E-01    7.95       1.0  T
   5    -50.6998034 -0.858033E-03  0.231E-01    7.80       1.0  T
   6    -50.7000359 -0.232536E-03  0.122E-01    7.82       1.0  T
   7    -50.7001245 -0.885737E-04  0.453E-02    7.88       1.0  T
   8    -50.7001328 -0.834268E-05  0.271E-02    7.88       1.0  T
   9    -50.7001374 -0.461278E-05  0.841E-03    7.88       2.3  T
  10    -50.7001377 -0.300354E-06  0.184E-03    7.87      10.7  T
  11    -50.7001377 -0.167611E-07  0.917E-04    7.87      21.4  T
  12    -50.7001377 -0.481258E-08  0.294E-04    7.87      66.6  T
speedup  0.98
cpu  time for SCC    0.01 s
wall time for SCC    0.01 s

   *** convergence criteria satisfied after 12 iterations ***

          eigenvalues
 #    :          28         29         30         31         32         33         34         35
 occ. :        2.000      2.000      2.000      2.000      2.000      2.000      2.000      2.000
 eps  :       -12.182    -12.086    -12.073    -11.833    -10.928    -10.784    -10.680    -10.059
 #    :          36         37         38         39         40         41         42         43
 occ. :        2.000      2.000      2.000      2.000      2.000      0.000      0.000      0.000
 eps  :        -9.975     -9.917     -9.725     -9.656     -9.592     -1.717     -0.822      0.501
 #    :          44         45         46         47         48         49         50         51
 occ. :        0.000      0.000      0.000      0.000      0.000      0.000      0.000      0.000
 eps  :         1.878      2.271      2.351      2.612      2.961      3.070      4.059      5.092


   #   Z            q   n(s)   n(p)   n(d)      C6AA      α(0)
   1  16 S      1.503  1.606  1.896  0.994    93.379    16.264
   2   8 O     -0.781  1.783  4.997  0.000    31.001     7.465
   3   8 O     -0.809  1.783  5.026  0.000    31.862     7.568
   4   8 O     -0.777  1.773  5.004  0.000    30.898     7.453
   5   8 O     -0.816  1.783  5.033  0.000    32.068     7.592
   6   8 O     -0.616  1.733  4.883  0.000    25.574     6.825
   7   1 H      0.320  0.680  0.000  0.000     0.664     1.280
   8   1 H      0.325  0.675  0.000  0.000     0.652     1.268
   9   8 O     -0.621  1.742  4.880  0.000    25.698     6.842
  10   1 H      0.280  0.720  0.000  0.000     0.783     1.390
  11   1 H      0.318  0.682  0.000  0.000     0.670     1.285
  12   8 O     -0.625  1.731  4.894  0.000    25.799     6.855
  13   1 H      0.334  0.666  0.000  0.000     0.628     1.244
  14   1 H      0.283  0.717  0.000  0.000     0.774     1.382
  15   8 O     -0.623  1.729  4.894  0.000    25.735     6.847
  16   1 H      0.339  0.661  0.000  0.000     0.615     1.231
  17   1 H      0.286  0.714  0.000  0.000     0.765     1.374
  18   8 O     -0.426  1.642  4.783  0.000    21.296     6.233
  19   1 H      0.405  0.595  0.000  0.000     0.476     1.084
  20   1 H      0.409  0.591  0.000  0.000     0.468     1.075
  21   1 H      0.413  0.587  0.000  0.000     0.462     1.068
  22   7 N     -0.269  1.240  4.029  0.000    26.952     7.711
  23   1 H      0.317  0.683  0.000  0.000     0.664     1.277
  24   1 H      0.277  0.723  0.000  0.000     0.786     1.389
  25   1 H      0.244  0.756  0.000  0.000     0.906     1.491
  26   1 H      0.310  0.690  0.000  0.000     0.685     1.296

 Mol. C6AA /au·bohr⁶  :       5480.356830
 Mol. C8AA /au·bohr⁸  :     119190.179496
 Mol. α(0) /au        :        106.789396

 
 Wiberg/Mayer (AO) data. WBOs > 0.1 written file <wbo>
 largest (>0.05) Wiberg bond orders for each atom
           total WBO             WBO to atom ...
     1  S   4.993    O    2 1.261    O    4 1.257    O    5 1.229    O    3 1.211
     2  O   1.683    S    1 1.261    O    5 0.098    O    3 0.093    H   23 0.092    O    4 0.085
     3  O   1.661    S    1 1.211    O    4 0.094    O    2 0.093    O    5 0.092    H   16 0.061    H   13 0.060
     4  O   1.686    S    1 1.257    H   21 0.104    O    5 0.097    O    3 0.094    O    2 0.085
     5  O   1.639    S    1 1.229    O    2 0.098    O    4 0.097    O    3 0.092
     6  O   1.895    H    7 0.873    H    8 0.859    H   19 0.094
     7  H   0.898    O    6 0.873
     8  H   0.895    O    6 0.859
     9  O   1.823    H   10 0.918    H   11 0.847
    10  H   0.921    O    9 0.918
    11  H   0.899    O    9 0.847
    12  O   1.838    H   14 0.908    H   13 0.825    H   26 0.053
    13  H   0.889    O   12 0.825    O    3 0.060
    14  H   0.920    O   12 0.908
    15  O   1.850    H   17 0.904    H   16 0.820    H   20 0.070
    16  H   0.885    O   15 0.820    O    3 0.061
    17  H   0.918    O   15 0.904
    18  O   2.321    H   20 0.755    H   19 0.739    H   21 0.716
    19  H   0.836    O   18 0.739    O    6 0.094
    20  H   0.832    O   18 0.755    O   15 0.070
    21  H   0.829    O   18 0.716    O    4 0.104
    22  N   3.576    H   25 0.936    H   24 0.914    H   26 0.845    H   23 0.799
    23  H   0.899    N   22 0.799    O    2 0.092
    24  H   0.923    N   22 0.914
    25  H   0.940    N   22 0.936
    26  H   0.904    N   22 0.845    O   12 0.053
 MOs/occ written to file <molden.input>
 
molecular dipole:
                 x           y           z       tot (Debye)
 q only:       -1.610       1.309      -1.401
   full:       -1.439       1.988      -1.301       7.059
molecular quadrupole (traceless):
                xx          xy          yy          xz          yz          zz
 q only:       -0.791     -26.804      12.131     -18.007      10.168     -11.340
  q+dip:        0.136     -23.610       7.309     -18.409       5.926      -7.445
   full:       -0.174     -23.689       7.561     -18.623       5.580      -7.386

SCC energy    :     -50.7001377
rep           :       0.2955652
ES            :       0.3640654
AES           :      -0.0850420
AXC           :      -0.0104446
disp          :      -0.0187906
XB            :       0.0000000
fix           :       0.0000000
total E       :     -50.4043521
atomizationE  :       4.9346562     3096.54
(atE without considering molecular charge,
 total energy contains solvation terms)
H-L gap (eV)  :          7.8750
           ------------------------------------------------- 
          |                 ===============                 |
          |                   A N C O P T                   |
          |                 ===============                 |
          |          Approximate Normal Coordinate          |
          |           Rational Function Optimizer           |
           ------------------------------------------------- 
dumping coords to <xtbopt.coord> and <xtbopt.log>
 optlevel               2
 Maxcycle             520
 Maxmicro              25
 Econv         1.000000000000000E-007
 Gconv         2.000000000000000E-004
 Maxdispl       1.00000000000000     
 Hlow          5.000000000000000E-003
 S6             20.0000000000000     
 Nvar               72

generating ANC from model Hessian ...
 Shifting diagonal of input Hessian by   4.928215917942539E-003
 Lowest  eigenvalues of input Hessian
   -0.000000   -0.000000   -0.000000    0.000000    0.000000    0.000000
    0.005000    0.005080    0.005236    0.005457    0.005769    0.006124
    0.006692    0.006769    0.006862    0.007421    0.007978    0.008139
 Highest eigenvalues
    1.429468    1.556916    1.559954    3.079223    3.084511    3.087623
 
cpu  time for ANC gen    0.01 s
wall time for ANC gen    0.01 s
................................................................................
.............................. CYCLE    1 ......................................
................................................................................
   1    -50.7001377 -0.507001E+02  0.869E-05    7.88       0.0  T
   2    -50.7001377 -0.161080E-10  0.686E-05    7.88     286.0  T
   3    -50.7001377 -0.177209E-10  0.334E-05    7.88     586.3  T
speedup  1.03
cpu  time for SCC    0.00 s
wall time for SCC    0.00 s
speedup  0.97
cpu  time for grad    0.01 s
wall time for grad    0.01 s
 E :    -50.40435210  G :  0.121521    pred/act E change:  0.000D+00 -0.128D-07
Maxdispl :   0.2268   ||displ|| :   0.5424   Lambda : -0.299D-01
Largest |displ|/coords:  0.2268 (  29)  0.2191 (  28)  0.2071 (  25)
................................................................................
.............................. CYCLE    2 ......................................
................................................................................
   1    -50.7041939 -0.507042E+02  0.412E-01    8.23       0.0  T
   2    -50.7045447 -0.350821E-03  0.307E-01    8.35       1.0  T
   3    -50.7046793 -0.134647E-03  0.955E-02    8.58       1.0  T
   4    -50.7047128 -0.334821E-04  0.320E-02    8.58       1.0  T
   5    -50.7047145 -0.168309E-05  0.860E-03    8.57       2.3  T
   6    -50.7047147 -0.172921E-06  0.449E-03    8.57       4.4  T
   7    -50.7047147 -0.768829E-07  0.205E-03    8.57       9.6  T
speedup  1.08
cpu  time for SCC    0.01 s
wall time for SCC    0.01 s
speedup  0.98
cpu  time for grad    0.01 s
wall time for grad    0.01 s
 E :    -50.42971526  G :  0.072308    pred/act E change:  0.000D+00 -0.254D-01
Maxdispl :   0.2165   ||displ|| :   0.5640   Lambda : -0.199D-01
Largest |displ|/coords:  0.2165 (  22)  0.2070 (  30)  0.1863 (  25)
................................................................................
.............................. CYCLE    3 ......................................
................................................................................
   1    -50.7094215 -0.507094E+02  0.333E-01    8.83       0.0  T
   2    -50.7100408 -0.619363E-03  0.240E-01    8.91       1.0  T
   3    -50.7102813 -0.240494E-03  0.110E-01    9.02       1.0  T
   4    -50.7102998 -0.184884E-04  0.348E-02    9.05       1.0  T
   5    -50.7103015 -0.166404E-05  0.103E-02    9.05       1.9  T
   6    -50.7103017 -0.274271E-06  0.533E-03    9.05       3.7  T
   7    -50.7103019 -0.121179E-06  0.255E-03    9.05       7.7  T
speedup  0.97
cpu  time for SCC    0.01 s
wall time for SCC    0.01 s
speedup  0.99
cpu  time for grad    0.01 s
wall time for grad    0.01 s
 E :    -50.44535966  G :  0.042622    pred/act E change: -0.194D-01 -0.156D-01
Maxdispl :   0.1944   ||displ|| :   0.5480   Lambda : -0.110D-01
Largest |displ|/coords:  0.1944 (  22)  0.1727 (  30)  0.1515 (  10)
................................................................................
.............................. CYCLE    4 ......................................
................................................................................
   1    -50.7085700 -0.507086E+02  0.383E-01    9.23       0.0  T
   2    -50.7093731 -0.803115E-03  0.277E-01    9.27       1.0  T
   3    -50.7096853 -0.312149E-03  0.125E-01    9.31       1.0  T
   4    -50.7097081 -0.228432E-04  0.412E-02    9.34       1.0  T
   5    -50.7097106 -0.250764E-05  0.114E-02    9.34       1.7  T
   6    -50.7097110 -0.307712E-06  0.575E-03    9.34       3.4  T
   7    -50.7097111 -0.136049E-06  0.265E-03    9.34       7.4  T
speedup  0.97
cpu  time for SCC    0.01 s
wall time for SCC    0.01 s
speedup  0.99
cpu  time for grad    0.01 s
wall time for grad    0.01 s
 E :    -50.45114438  G :  0.031588    pred/act E change: -0.131D-01 -0.578D-02
Maxdispl :   0.1792   ||displ|| :   0.3735   Lambda : -0.225D-02
Largest |displ|/coords:  0.1792 (  10)  0.1394 (   4)  0.1334 (   3)
................................................................................
.............................. CYCLE    5 ......................................
................................................................................
   1    -50.7129841 -0.507130E+02  0.222E-01    9.46       0.0  T
   2    -50.7130028 -0.186678E-04  0.164E-01    9.46       1.0  T
   3    -50.7130075 -0.472407E-05  0.272E-02    9.47       1.0  T
   4    -50.7130111 -0.358650E-05  0.570E-03    9.47       3.4  T
   5    -50.7130112 -0.628521E-07  0.236E-03    9.47       8.3  T
speedup  0.89
cpu  time for SCC    0.00 s
wall time for SCC    0.00 s
speedup  0.96
cpu  time for grad    0.01 s
wall time for grad    0.01 s
 E :    -50.45242933  G :  0.024262    pred/act E change: -0.713D-02 -0.128D-02
Maxdispl :   0.3173   ||displ|| :   0.5638   Lambda : -0.302D-02
Largest |displ|/coords:  0.3173 (   4)  0.2571 (  10)  0.1584 (   7)
................................................................................
.............................. CYCLE    6 ......................................
................................................................................
   1    -50.7118552 -0.507119E+02  0.556E-01    9.59       0.0  T
   2    -50.7119496 -0.943647E-04  0.420E-01    9.61       1.0  T
   3    -50.7120083 -0.587620E-04  0.558E-02    9.62       1.0  T
   4    -50.7120228 -0.144868E-04  0.209E-02    9.62       1.0  T
   5    -50.7120235 -0.670253E-06  0.425E-03    9.62       4.6  T
   6    -50.7120235 -0.231836E-07  0.258E-03    9.62       7.6  T
speedup  0.94
cpu  time for SCC    0.00 s
wall time for SCC    0.01 s
speedup  0.98
cpu  time for grad    0.01 s
wall time for grad    0.01 s
 E :    -50.45211095  G :  0.049172    pred/act E change: -0.128D-02  0.318D-03
Maxdispl :   0.2077   ||displ|| :   0.3613   Lambda : -0.614D-02
Largest |displ|/coords:  0.2077 (   9)  0.1660 (  12)  0.1206 (   4)
................................................................................
.............................. CYCLE    7 ......................................
................................................................................
   1    -50.7277392 -0.507277E+02  0.462E-01    9.70       0.0  T
   2    -50.7278688 -0.129638E-03  0.345E-01    9.70       1.0  T
   3    -50.7279476 -0.787523E-04  0.671E-02    9.70       1.0  T
   4    -50.7279650 -0.174261E-04  0.135E-02    9.70       1.5  T
   5    -50.7279655 -0.490404E-06  0.604E-03    9.70       3.2  T
   6    -50.7279655 -0.305190E-07  0.298E-03    9.70       6.6  T
   7    -50.7279656 -0.156845E-07  0.638E-04    9.70      30.7  T
speedup  0.97
cpu  time for SCC    0.01 s
wall time for SCC    0.01 s
speedup  0.99
cpu  time for grad    0.01 s
wall time for grad    0.01 s
 E :    -50.45347221  G :  0.031447    pred/act E change: -0.199D-02 -0.136D-02
Maxdispl :   0.1572   ||displ|| :   0.2983   Lambda : -0.226D-02
Largest |displ|/coords:  0.1572 (   2)  0.0808 (  10)  0.0800 (  25)
................................................................................
.............................. CYCLE    8 ......................................
................................................................................
   1    -50.7204821 -0.507205E+02  0.258E-01    9.64       0.0  T
   2    -50.7205180 -0.359243E-04  0.193E-01    9.64       1.0  T
   3    -50.7205315 -0.134720E-04  0.346E-02    9.64       1.0  T
   4    -50.7205376 -0.615828E-05  0.135E-02    9.64       1.4  T
   5    -50.7205379 -0.291716E-06  0.342E-03    9.64       5.7  T
   6    -50.7205379 -0.154487E-07  0.197E-03    9.64      10.0  T
speedup  0.94
cpu  time for SCC    0.01 s
wall time for SCC    0.01 s
speedup  0.96
cpu  time for grad    0.01 s
wall time for grad    0.01 s
 E :    -50.45413636  G :  0.012889    pred/act E change: -0.347D-02 -0.664D-03
Maxdispl :   0.1611   ||displ|| :   0.2938   Lambda : -0.143D-02
Largest |displ|/coords:  0.1611 (   4)  0.1251 (  17)  0.1091 (   8)
................................................................................
.............................. CYCLE    9 ......................................
................................................................................
   1    -50.7130286 -0.507130E+02  0.304E-01    9.61       0.0  T
   2    -50.7130744 -0.458007E-04  0.228E-01    9.61       1.0  T
   3    -50.7130990 -0.246242E-04  0.374E-02    9.59       1.0  T
   4    -50.7131063 -0.723631E-05  0.750E-03    9.60       2.6  T
   5    -50.7131064 -0.145968E-06  0.312E-03    9.60       6.3  T
   6    -50.7131064 -0.126868E-07  0.153E-03    9.60      12.8  T
   7    -50.7131064 -0.538947E-08  0.355E-04    9.60      55.3  T
speedup  0.97
cpu  time for SCC    0.01 s
wall time for SCC    0.01 s
speedup  0.98
cpu  time for grad    0.01 s
wall time for grad    0.01 s
 E :    -50.45388027  G :  0.036081    pred/act E change: -0.123D-02  0.256D-03
Maxdispl :   0.1570   ||displ|| :   0.3220   Lambda : -0.318D-02
Largest |displ|/coords:  0.1570 (   4)  0.1308 (  12)  0.1249 (   2)
................................................................................
.............................. CYCLE   10 ......................................
................................................................................
   1    -50.7199388 -0.507199E+02  0.374E-01    9.59       0.0  T
   2    -50.7200262 -0.874134E-04  0.279E-01    9.58       1.0  T
   3    -50.7200836 -0.574699E-04  0.532E-02    9.57       1.0  T
   4    -50.7200952 -0.115964E-04  0.105E-02    9.58       1.9  T
   5    -50.7200954 -0.181081E-06  0.578E-03    9.58       3.4  T
   6    -50.7200954 -0.285935E-07  0.224E-03    9.58       8.8  T
speedup  0.94
cpu  time for SCC    0.00 s
wall time for SCC    0.01 s
speedup  0.98
cpu  time for grad    0.01 s
wall time for grad    0.01 s
 E :    -50.45370208  G :  0.041827    pred/act E change: -0.779D-03  0.178D-03
Maxdispl :   0.1771   ||displ|| :   0.3235   Lambda : -0.331D-02
Largest |displ|/coords:  0.1771 (   8)  0.1437 (   2)  0.0910 (  12)
................................................................................
.............................. CYCLE   11 ......................................
................................................................................
   1    -50.7231459 -0.507231E+02  0.319E-01    9.63       0.0  T
   2    -50.7232111 -0.651558E-04  0.237E-01    9.63       1.0  T
   3    -50.7232353 -0.241886E-04  0.429E-02    9.63       1.0  T
   4    -50.7232466 -0.113241E-04  0.137E-02    9.64       1.4  T
   5    -50.7232469 -0.311481E-06  0.434E-03    9.64       4.5  T
   6    -50.7232470 -0.312962E-07  0.235E-03    9.64       8.4  T
speedup  1.13
cpu  time for SCC    0.01 s
wall time for SCC    0.01 s
speedup  1.05
cpu  time for grad    0.01 s
wall time for grad    0.01 s
 E :    -50.45456040  G :  0.016909    pred/act E change: -0.175D-02 -0.858D-03
Maxdispl :   0.1670   ||displ|| :   0.2460   Lambda : -0.148D-02
Largest |displ|/coords:  0.1670 (   8)  0.0972 (   1)  0.0680 (   7)
................................................................................
.............................. CYCLE   12 ......................................
................................................................................
   1    -50.7194805 -0.507195E+02  0.228E-01    9.61       0.0  T
   2    -50.7195030 -0.225546E-04  0.171E-01    9.61       1.0  T
   3    -50.7195125 -0.948203E-05  0.255E-02    9.60       1.0  T
   4    -50.7195168 -0.424131E-05  0.898E-03    9.60       2.2  T
   5    -50.7195169 -0.124238E-06  0.291E-03    9.60       6.7  T
   6    -50.7195169 -0.109991E-07  0.159E-03    9.60      12.4  T
speedup  1.13
cpu  time for SCC    0.01 s
wall time for SCC    0.01 s
speedup  1.04
cpu  time for grad    0.01 s
wall time for grad    0.01 s
 E :    -50.45513620  G :  0.014485    pred/act E change: -0.183D-02 -0.576D-03
Maxdispl :   0.1239   ||displ|| :   0.2014   Lambda : -0.564D-03
Largest |displ|/coords:  0.1239 (   4)  0.0843 (   5)  0.0669 (   8)
................................................................................
.............................. CYCLE   13 ......................................
................................................................................
   1    -50.7191832 -0.507192E+02  0.143E-01    9.59       0.0  T
   2    -50.7191924 -0.916665E-05  0.107E-01    9.58       1.0  T
   3    -50.7191957 -0.338968E-05  0.162E-02    9.57       1.2  T
   4    -50.7191976 -0.182177E-05  0.515E-03    9.57       3.8  T
   5    -50.7191976 -0.459221E-07  0.173E-03    9.57      11.3  T
   6    -50.7191976 -0.327763E-08  0.883E-04    9.57      22.2  T
speedup  1.13
cpu  time for SCC    0.01 s
wall time for SCC    0.01 s
speedup  1.04
cpu  time for grad    0.01 s
wall time for grad    0.01 s
 E :    -50.45533093  G :  0.012802    pred/act E change: -0.787D-03 -0.195D-03
Maxdispl :   0.0624   ||displ|| :   0.1404   Lambda : -0.412D-03
Largest |displ|/coords:  0.0624 (   1)  0.0615 (   4)  0.0529 (   3)
................................................................................
.............................. CYCLE   14 ......................................
................................................................................
   1    -50.7212280 -0.507212E+02  0.916E-02    9.59       0.0  T
   2    -50.7212350 -0.695948E-05  0.687E-02    9.58       1.0  T
   3    -50.7212375 -0.249158E-05  0.153E-02    9.58       1.3  T
   4    -50.7212386 -0.116483E-05  0.381E-03    9.58       5.1  T
   5    -50.7212387 -0.320260E-07  0.126E-03    9.58      15.6  T
   6    -50.7212387 -0.208135E-08  0.678E-04    9.58      28.9  T
speedup  0.94
cpu  time for SCC    0.01 s
wall time for SCC    0.01 s
speedup  0.97
cpu  time for grad    0.01 s
wall time for grad    0.01 s
 E :    -50.45556765  G :  0.010170    pred/act E change: -0.293D-03 -0.237D-03
Maxdispl :   0.0953   ||displ|| :   0.2333   Lambda : -0.406D-03
Largest |displ|/coords:  0.0953 (   4)  0.0906 (   1)  0.0689 (   3)
................................................................................
.............................. CYCLE   15 ......................................
................................................................................
   1    -50.7218003 -0.507218E+02  0.133E-01    9.58       0.0  T
   2    -50.7218070 -0.670230E-05  0.100E-01    9.58       1.0  T
   3    -50.7218101 -0.311242E-05  0.154E-02    9.57       1.3  T
   4    -50.7218113 -0.124290E-05  0.439E-03    9.57       4.5  T
   5    -50.7218114 -0.341398E-07  0.163E-03    9.57      12.0  T
   6    -50.7218114 -0.267367E-08  0.875E-04    9.57      22.4  T
speedup  0.91
cpu  time for SCC    0.00 s
wall time for SCC    0.01 s
speedup  0.96
cpu  time for grad    0.01 s
wall time for grad    0.01 s
 E :    -50.45586032  G :  0.009726    pred/act E change: -0.210D-03 -0.293D-03
Maxdispl :   0.2035   ||displ|| :   0.4174   Lambda : -0.617D-03
Largest |displ|/coords:  0.2035 (   1)  0.1669 (   4)  0.1251 (   5)
................................................................................
.............................. CYCLE   16 ......................................
................................................................................
   1    -50.7231413 -0.507231E+02  0.242E-01    9.56       0.0  T
   2    -50.7231668 -0.255469E-04  0.183E-01    9.56       1.0  T
   3    -50.7231799 -0.130630E-04  0.302E-02    9.55       1.0  T
   4    -50.7231844 -0.454991E-05  0.993E-03    9.55       2.0  T
   5    -50.7231846 -0.165064E-06  0.306E-03    9.55       6.4  T
   6    -50.7231846 -0.869562E-08  0.176E-03    9.55      11.1  T
   7    -50.7231846 -0.707021E-08  0.428E-04    9.55      45.8  T
speedup  0.97
cpu  time for SCC    0.01 s
wall time for SCC    0.01 s
speedup  0.98
cpu  time for grad    0.01 s
wall time for grad    0.01 s
 E :    -50.45625491  G :  0.012904    pred/act E change: -0.214D-03 -0.395D-03
Maxdispl :   0.2397   ||displ|| :   0.4941   Lambda : -0.625D-03
Largest |displ|/coords:  0.2397 (   1)  0.1881 (   4)  0.1622 (   5)
................................................................................
.............................. CYCLE   17 ......................................
................................................................................
   1    -50.7215545 -0.507216E+02  0.254E-01    9.51       0.0  T
   2    -50.7215851 -0.305650E-04  0.191E-01    9.49       1.0  T
   3    -50.7216002 -0.151452E-04  0.335E-02    9.45       1.0  T
   4    -50.7216052 -0.495277E-05  0.120E-02    9.46       1.6  T
   5    -50.7216054 -0.236104E-06  0.322E-03    9.46       6.1  T
   6    -50.7216054 -0.129942E-07  0.197E-03    9.46       9.9  T
   7    -50.7216054 -0.920078E-08  0.482E-04    9.46      40.7  T
speedup  0.95
cpu  time for SCC    0.01 s
wall time for SCC    0.01 s
speedup  0.98
cpu  time for grad    0.01 s
wall time for grad    0.01 s
 E :    -50.45641678  G :  0.022994    pred/act E change: -0.362D-03 -0.162D-03
Maxdispl :   0.1293   ||displ|| :   0.2865   Lambda : -0.105D-02
Largest |displ|/coords:  0.1293 (   1)  0.1086 (   5)  0.1001 (  11)
................................................................................
.............................. CYCLE   18 ......................................
................................................................................
   1    -50.7211107 -0.507211E+02  0.219E-01    9.38       0.0  T
   2    -50.7211414 -0.307709E-04  0.164E-01    9.40       1.0  T
   3    -50.7211619 -0.204527E-04  0.321E-02    9.45       1.0  T
   4    -50.7211659 -0.401402E-05  0.855E-03    9.42       2.3  T
   5    -50.7211660 -0.920079E-07  0.343E-03    9.42       5.7  T
   6    -50.7211660 -0.132795E-07  0.194E-03    9.42      10.1  T
speedup  0.93
cpu  time for SCC    0.00 s
wall time for SCC    0.01 s
speedup  0.97
cpu  time for grad    0.01 s
wall time for grad    0.01 s
 E :    -50.45636766  G :  0.029844    pred/act E change: -0.389D-03  0.491D-04
Maxdispl :   0.1143   ||displ|| :   0.2435   Lambda : -0.196D-02
Largest |displ|/coords:  0.1143 (  11)  0.0948 (   9)  0.0815 (  15)
................................................................................
.............................. CYCLE   19 ......................................
................................................................................
   1    -50.7397529 -0.507398E+02  0.205E-01    9.63       0.0  T
   2    -50.7397807 -0.277749E-04  0.153E-01    9.60       1.0  T
   3    -50.7397974 -0.166861E-04  0.294E-02    9.55       1.0  T
   4    -50.7398008 -0.345808E-05  0.100E-02    9.57       2.0  T
   5    -50.7398010 -0.181366E-06  0.310E-03    9.58       6.3  T
   6    -50.7398010 -0.694893E-08  0.179E-03    9.58      11.0  T
speedup  0.91
cpu  time for SCC    0.00 s
wall time for SCC    0.01 s
speedup  1.04
cpu  time for grad    0.01 s
wall time for grad    0.01 s
 E :    -50.45563750  G :  0.042346    pred/act E change: -0.566D-03  0.730D-03
Maxdispl :   0.0940   ||displ|| :   0.2639   Lambda : -0.382D-02
Largest |displ|/coords:  0.0940 (  15)  0.0858 (   4)  0.0767 (   9)
................................................................................
.............................. CYCLE   20 ......................................
................................................................................
   1    -50.7211709 -0.507212E+02  0.244E-01    9.51       0.0  T
   2    -50.7212467 -0.757685E-04  0.177E-01    9.51       1.0  T
   3    -50.7212889 -0.422231E-04  0.459E-02    9.53       1.0  T
   4    -50.7212955 -0.660922E-05  0.147E-02    9.52       1.3  T
   5    -50.7212959 -0.343283E-06  0.460E-03    9.52       4.3  T
   6    -50.7212959 -0.324194E-07  0.261E-03    9.52       7.5  T
speedup  1.09
cpu  time for SCC    0.01 s
wall time for SCC    0.01 s
speedup  1.03
cpu  time for grad    0.01 s
wall time for grad    0.01 s
 E :    -50.45589081  G :  0.045247    pred/act E change: -0.104D-02 -0.253D-03
Maxdispl :   0.0895   ||displ|| :   0.2525   Lambda : -0.350D-02
Largest |displ|/coords:  0.0895 (   4)  0.0860 (  14)  0.0788 (   7)
................................................................................
.............................. CYCLE   21 ......................................
................................................................................
   1    -50.7230449 -0.507230E+02  0.251E-01    9.40       0.0  T
   2    -50.7231025 -0.575065E-04  0.185E-01    9.41       1.0  T
   3    -50.7231390 -0.365207E-04  0.414E-02    9.43       1.0  T
   4    -50.7231452 -0.621410E-05  0.852E-03    9.42       2.3  T
   5    -50.7231453 -0.110122E-06  0.448E-03    9.42       4.4  T
   6    -50.7231453 -0.154159E-07  0.160E-03    9.42      12.3  T
speedup  0.94
cpu  time for SCC    0.01 s
wall time for SCC    0.01 s
speedup  0.96
cpu  time for grad    0.01 s
wall time for grad    0.01 s
 E :    -50.45650994  G :  0.026208    pred/act E change: -0.205D-02 -0.619D-03
Maxdispl :   0.0884   ||displ|| :   0.2128   Lambda : -0.175D-02
Largest |displ|/coords:  0.0884 (   1)  0.0867 (   9)  0.0827 (   4)
................................................................................
.............................. CYCLE   22 ......................................
................................................................................
   1    -50.7267910 -0.507268E+02  0.180E-01    9.49       0.0  T
   2    -50.7268077 -0.167088E-04  0.134E-01    9.49       1.0  T
   3    -50.7268169 -0.918706E-05  0.231E-02    9.48       1.0  T
   4    -50.7268193 -0.247297E-05  0.655E-03    9.48       3.0  T
   5    -50.7268194 -0.698119E-07  0.236E-03    9.48       8.3  T
   6    -50.7268194 -0.738095E-08  0.141E-03    9.48      13.9  T
speedup  0.94
cpu  time for SCC    0.00 s
wall time for SCC    0.01 s
speedup  0.98
cpu  time for grad    0.01 s
wall time for grad    0.01 s
 E :    -50.45706323  G :  0.019783    pred/act E change: -0.186D-02 -0.553D-03
Maxdispl :   0.0744   ||displ|| :   0.1862   Lambda : -0.873D-03
Largest |displ|/coords:  0.0744 (   8)  0.0678 (   1)  0.0628 (   2)
................................................................................
.............................. CYCLE   23 ......................................
................................................................................
   1    -50.7300844 -0.507301E+02  0.146E-01    9.51       0.0  T
   2    -50.7301056 -0.212628E-04  0.108E-01    9.51       1.0  T
   3    -50.7301169 -0.112324E-04  0.261E-02    9.50       1.0  T
   4    -50.7301195 -0.258382E-05  0.824E-03    9.50       2.4  T
   5    -50.7301196 -0.133131E-06  0.251E-03    9.50       7.8  T
   6    -50.7301196 -0.584348E-08  0.143E-03    9.50      13.7  T
speedup  0.93
cpu  time for SCC    0.01 s
wall time for SCC    0.01 s
speedup  0.97
cpu  time for grad    0.01 s
wall time for grad    0.01 s
 E :    -50.45722776  G :  0.020314    pred/act E change: -0.916D-03 -0.165D-03
Maxdispl :   0.1690   ||displ|| :   0.2517   Lambda : -0.644D-03
Largest |displ|/coords:  0.1690 (   1)  0.0721 (   4)  0.0647 (  13)
................................................................................
.............................. CYCLE   24 ......................................
................................................................................
   1    -50.7265411 -0.507265E+02  0.148E-01    9.46       0.0  T
   2    -50.7265537 -0.126229E-04  0.111E-01    9.46       1.0  T
   3    -50.7265601 -0.636031E-05  0.212E-02    9.45       1.0  T
   4    -50.7265620 -0.193242E-05  0.700E-03    9.45       2.8  T
   5    -50.7265621 -0.916046E-07  0.212E-03    9.45       9.2  T
   6    -50.7265621 -0.589934E-08  0.130E-03    9.45      15.1  T
speedup  0.94
cpu  time for SCC    0.00 s
wall time for SCC    0.01 s
speedup  0.97
cpu  time for grad    0.01 s
wall time for grad    0.01 s
 E :    -50.45754522  G :  0.012803    pred/act E change: -0.452D-03 -0.317D-03
Maxdispl :   0.1151   ||displ|| :   0.1733   Lambda : -0.303D-03
Largest |displ|/coords:  0.1151 (   1)  0.0590 (   4)  0.0448 (   7)
................................................................................
.............................. CYCLE   25 ......................................
................................................................................
   1    -50.7279460 -0.507279E+02  0.925E-02    9.43       0.0  T
   2    -50.7279606 -0.145880E-04  0.694E-02    9.43       1.0  T
   3    -50.7279666 -0.607009E-05  0.224E-02    9.42       1.0  T
   4    -50.7279681 -0.144303E-05  0.685E-03    9.42       2.9  T
   5    -50.7279682 -0.107168E-06  0.200E-03    9.42       9.8  T
   6    -50.7279682 -0.477958E-08  0.114E-03    9.42      17.2  T
speedup  1.09
cpu  time for SCC    0.01 s
wall time for SCC    0.01 s
speedup  1.02
cpu  time for grad    0.01 s
wall time for grad    0.01 s
 E :    -50.45774211  G :  0.009649    pred/act E change: -0.342D-03 -0.197D-03
Maxdispl :   0.2683   ||displ|| :   0.3740   Lambda : -0.439D-03
Largest |displ|/coords:  0.2683 (   1)  0.0951 (   4)  0.0913 (   2)

generating ANC from model Hessian ...
 Shifting diagonal of input Hessian by   4.786161967119329E-003
 Lowest  eigenvalues of input Hessian
   -0.000000   -0.000000   -0.000000    0.000000    0.000000    0.000000
    0.005000    0.005066    0.005428    0.006113    0.006604    0.006692
    0.007540    0.007582    0.008004    0.008194    0.009381    0.010261
 Highest eigenvalues
    1.396664    1.407924    1.528450    3.103537    3.271780    3.424365
 
cpu  time for ANC gen    0.01 s
wall time for ANC gen    0.01 s
................................................................................
.............................. CYCLE   26 ......................................
................................................................................
   1    -50.7307070 -0.507307E+02  0.203E-01    9.43       0.0  T
   2    -50.7307552 -0.482639E-04  0.153E-01    9.43       1.0  T
   3    -50.7307739 -0.186708E-04  0.422E-02    9.42       1.0  T
   4    -50.7307807 -0.676634E-05  0.131E-02    9.42       1.5  T
   5    -50.7307810 -0.339528E-06  0.368E-03    9.42       5.3  T
   6    -50.7307810 -0.159441E-07  0.216E-03    9.42       9.1  T
   7    -50.7307811 -0.821986E-08  0.507E-04    9.42      38.7  T
   8    -50.7307811 -0.100518E-08  0.118E-04    9.42     165.5  T
speedup  0.99
cpu  time for SCC    0.01 s
wall time for SCC    0.01 s
speedup  0.96
cpu  time for grad    0.01 s
wall time for grad    0.02 s
 E :    -50.45807761  G :  0.011313    pred/act E change:  0.000D+00 -0.335D-03
Maxdispl :   0.0629   ||displ|| :   0.1314   Lambda : -0.332D-03
Largest |displ|/coords:  0.0629 (   1)  0.0435 (  10)  0.0412 (  19)
................................................................................
.............................. CYCLE   27 ......................................
................................................................................
   1    -50.7314632 -0.507315E+02  0.124E-01    9.41       0.0  T
   2    -50.7314665 -0.334354E-05  0.936E-02    9.41       1.0  T
   3    -50.7314691 -0.256588E-05  0.107E-02    9.40       1.8  T
   4    -50.7314695 -0.466707E-06  0.349E-03    9.40       5.6  T
   5    -50.7314695 -0.188641E-07  0.113E-03    9.40      17.3  T
   6    -50.7314695 -0.736442E-09  0.654E-04    9.40      30.0  T
speedup  1.07
cpu  time for SCC    0.01 s
wall time for SCC    0.01 s
speedup  1.01
cpu  time for grad    0.01 s
wall time for grad    0.01 s
 E :    -50.45828143  G :  0.007436    pred/act E change:  0.000D+00 -0.204D-03
Maxdispl :   0.1081   ||displ|| :   0.1662   Lambda : -0.256D-03
Largest |displ|/coords:  0.1081 (   1)  0.0609 (   3)  0.0575 (   2)
................................................................................
.............................. CYCLE   28 ......................................
................................................................................
   1    -50.7325705 -0.507326E+02  0.119E-01    9.40       0.0  T
   2    -50.7325749 -0.436509E-05  0.892E-02    9.39       1.0  T
   3    -50.7325772 -0.227132E-05  0.134E-02    9.38       1.5  T
   4    -50.7325779 -0.719572E-06  0.418E-03    9.38       4.7  T
   5    -50.7325779 -0.316955E-07  0.121E-03    9.38      16.2  T
   6    -50.7325779 -0.148686E-08  0.768E-04    9.38      25.5  T
speedup  0.91
cpu  time for SCC    0.00 s
wall time for SCC    0.01 s
speedup  1.02
cpu  time for grad    0.01 s
wall time for grad    0.01 s
 E :    -50.45843767  G :  0.006809    pred/act E change: -0.169D-03 -0.156D-03
Maxdispl :   0.1671   ||displ|| :   0.2227   Lambda : -0.198D-03
Largest |displ|/coords:  0.1671 (   1)  0.0733 (   2)  0.0604 (   3)
................................................................................
.............................. CYCLE   29 ......................................
................................................................................
   1    -50.7321483 -0.507321E+02  0.160E-01    9.37       0.0  T
   2    -50.7321552 -0.685752E-05  0.120E-01    9.37       1.0  T
   3    -50.7321589 -0.375662E-05  0.168E-02    9.36       1.2  T
   4    -50.7321601 -0.114327E-05  0.522E-03    9.36       3.8  T
   5    -50.7321601 -0.509298E-07  0.173E-03    9.36      11.3  T
   6    -50.7321601 -0.278504E-08  0.108E-03    9.36      18.1  T
speedup  1.11
cpu  time for SCC    0.01 s
wall time for SCC    0.01 s
speedup  1.04
cpu  time for grad    0.01 s
wall time for grad    0.01 s
 E :    -50.45858606  G :  0.008652    pred/act E change: -0.132D-03 -0.148D-03
Maxdispl :   0.2261   ||displ|| :   0.2966   Lambda : -0.260D-03
Largest |displ|/coords:  0.2261 (   1)  0.0991 (   3)  0.0874 (   2)
................................................................................
.............................. CYCLE   30 ......................................
................................................................................
   1    -50.7328568 -0.507329E+02  0.167E-01    9.36       0.0  T
   2    -50.7328694 -0.126476E-04  0.125E-01    9.35       1.0  T
   3    -50.7328751 -0.564828E-05  0.235E-02    9.33       1.0  T
   4    -50.7328771 -0.207354E-05  0.697E-03    9.33       2.8  T
   5    -50.7328772 -0.105378E-06  0.235E-03    9.33       8.3  T
   6    -50.7328772 -0.600011E-08  0.150E-03    9.33      13.1  T
speedup  0.91
cpu  time for SCC    0.00 s
wall time for SCC    0.01 s
speedup  0.96
cpu  time for grad    0.01 s
wall time for grad    0.01 s
 E :    -50.45876747  G :  0.010127    pred/act E change: -0.104D-03 -0.181D-03
Maxdispl :   0.1780   ||displ|| :   0.2514   Lambda : -0.305D-03
Largest |displ|/coords:  0.1780 (   1)  0.1118 (   3)  0.0590 (  17)
................................................................................
.............................. CYCLE   31 ......................................
................................................................................
   1    -50.7365391 -0.507365E+02  0.100E-01    9.34       0.0  T
   2    -50.7365528 -0.136964E-04  0.747E-02    9.34       1.0  T
   3    -50.7365595 -0.672156E-05  0.242E-02    9.32       1.0  T
   4    -50.7365609 -0.141349E-05  0.717E-03    9.32       2.7  T
   5    -50.7365610 -0.119750E-06  0.231E-03    9.32       8.5  T
   6    -50.7365610 -0.652758E-08  0.134E-03    9.32      14.6  T
speedup  1.11
cpu  time for SCC    0.01 s
wall time for SCC    0.01 s
speedup  1.04
cpu  time for grad    0.01 s
wall time for grad    0.01 s
 E :    -50.45892893  G :  0.006810    pred/act E change: -0.141D-03 -0.161D-03
Maxdispl :   0.2545   ||displ|| :   0.3003   Lambda : -0.229D-03
Largest |displ|/coords:  0.2545 (   1)  0.0661 (   3)  0.0537 (  19)
................................................................................
.............................. CYCLE   32 ......................................
................................................................................
   1    -50.7381054 -0.507381E+02  0.150E-01    9.33       0.0  T
   2    -50.7381249 -0.195780E-04  0.113E-01    9.32       1.0  T
   3    -50.7381356 -0.106228E-04  0.284E-02    9.30       1.0  T
   4    -50.7381382 -0.267080E-05  0.827E-03    9.30       2.4  T
   5    -50.7381384 -0.168403E-06  0.293E-03    9.31       6.7  T
   6    -50.7381384 -0.897271E-08  0.175E-03    9.31      11.2  T
speedup  0.93
cpu  time for SCC    0.00 s
wall time for SCC    0.01 s
speedup  0.96
cpu  time for grad    0.01 s
wall time for grad    0.01 s
 E :    -50.45899552  G :  0.011747    pred/act E change: -0.162D-03 -0.666D-04
Maxdispl :   0.0342   ||displ|| :   0.0787   Lambda : -0.189D-03
Largest |displ|/coords:  0.0342 (   2)  0.0264 (   6)  0.0260 (   3)
................................................................................
.............................. CYCLE   33 ......................................
................................................................................
   1    -50.7386844 -0.507387E+02  0.654E-02    9.30       0.0  T
   2    -50.7386864 -0.201689E-05  0.491E-02    9.31       1.0  T
   3    -50.7386879 -0.141608E-05  0.818E-03    9.32       2.4  T
   4    -50.7386881 -0.284696E-06  0.206E-03    9.31       9.5  T
   5    -50.7386881 -0.731905E-08  0.887E-04    9.31      22.1  T
speedup  0.87
cpu  time for SCC    0.00 s
wall time for SCC    0.00 s
speedup  1.01
cpu  time for grad    0.01 s
wall time for grad    0.01 s
 E :    -50.45908263  G :  0.004843    pred/act E change: -0.125D-03 -0.871D-04
Maxdispl :   0.0597   ||displ|| :   0.1158   Lambda : -0.149D-03
Largest |displ|/coords:  0.0597 (   2)  0.0421 (   3)  0.0350 (   5)
................................................................................
.............................. CYCLE   34 ......................................
................................................................................
   1    -50.7402281 -0.507402E+02  0.111E-01    9.33       0.0  T
   2    -50.7402325 -0.436536E-05  0.841E-02    9.32       1.0  T
   3    -50.7402352 -0.267754E-05  0.127E-02    9.32       1.5  T
   4    -50.7402359 -0.685294E-06  0.425E-03    9.32       4.6  T
   5    -50.7402359 -0.329254E-07  0.116E-03    9.32      16.9  T
   6    -50.7402359 -0.977920E-09  0.666E-04    9.32      29.5  T
speedup  0.94
cpu  time for SCC    0.00 s
wall time for SCC    0.01 s
speedup  0.97
cpu  time for grad    0.01 s
wall time for grad    0.01 s
 E :    -50.45909877  G :  0.008985    pred/act E change: -0.952D-04 -0.161D-04
Maxdispl :   0.1171   ||displ|| :   0.1306   Lambda : -0.104D-03
Largest |displ|/coords:  0.1171 (   1)  0.0333 (   3)  0.0202 (  19)
................................................................................
.............................. CYCLE   35 ......................................
................................................................................
   1    -50.7396699 -0.507397E+02  0.687E-02    9.31       0.0  T
   2    -50.7396723 -0.241044E-05  0.516E-02    9.31       1.0  T
   3    -50.7396737 -0.138468E-05  0.933E-03    9.30       2.1  T
   4    -50.7396741 -0.379297E-06  0.278E-03    9.30       7.0  T
   5    -50.7396741 -0.174044E-07  0.110E-03    9.30      17.9  T
speedup  0.85
cpu  time for SCC    0.00 s
wall time for SCC    0.00 s
speedup  0.94
cpu  time for grad    0.01 s
wall time for grad    0.01 s
 E :    -50.45916817  G :  0.002766    pred/act E change: -0.754D-04 -0.694D-04
Maxdispl :   0.1202   ||displ|| :   0.1493   Lambda : -0.570D-04
Largest |displ|/coords:  0.1202 (   1)  0.0528 (   4)  0.0288 (  19)
................................................................................
.............................. CYCLE   36 ......................................
................................................................................
   1    -50.7397202 -0.507397E+02  0.729E-02    9.30       0.0  T
   2    -50.7397231 -0.291647E-05  0.549E-02    9.29       1.0  T
   3    -50.7397249 -0.181795E-05  0.101E-02    9.28       1.9  T
   4    -50.7397254 -0.439543E-06  0.289E-03    9.28       6.8  T
   5    -50.7397254 -0.184773E-07  0.113E-03    9.28      17.4  T
   6    -50.7397254 -0.154070E-08  0.649E-04    9.28      30.2  T
   7    -50.7397254 -0.777824E-09  0.149E-04    9.28     132.0  T
speedup  0.94
cpu  time for SCC    0.01 s
wall time for SCC    0.01 s
speedup  0.99
cpu  time for grad    0.01 s
wall time for grad    0.02 s
 E :    -50.45918700  G :  0.004837    pred/act E change: -0.531D-04 -0.188D-04
Maxdispl :   0.0394   ||displ|| :   0.0669   Lambda : -0.394D-04
Largest |displ|/coords:  0.0394 (   1)  0.0243 (   2)  0.0212 (  10)
................................................................................
.............................. CYCLE   37 ......................................
................................................................................
   1    -50.7398036 -0.507398E+02  0.344E-02    9.28       0.0  T
   2    -50.7398041 -0.462817E-06  0.257E-02    9.28       1.0  T
   3    -50.7398043 -0.260850E-06  0.441E-03    9.27       4.5  T
   4    -50.7398044 -0.701892E-07  0.138E-03    9.27      14.2  T
   5    -50.7398044 -0.277943E-08  0.346E-04    9.27      56.6  T
speedup  0.87
cpu  time for SCC    0.00 s
wall time for SCC    0.00 s
speedup  1.02
cpu  time for grad    0.01 s
wall time for grad    0.01 s
 E :    -50.45921275  G :  0.002563    pred/act E change: -0.292D-04 -0.258D-04
Maxdispl :   0.0365   ||displ|| :   0.0894   Lambda : -0.277D-04
Largest |displ|/coords:  0.0365 (   5)  0.0356 (   1)  0.0336 (   2)
................................................................................
.............................. CYCLE   38 ......................................
................................................................................
   1    -50.7400484 -0.507400E+02  0.510E-02    9.27       0.0  T
   2    -50.7400490 -0.570765E-06  0.384E-02    9.27       1.0  T
   3    -50.7400495 -0.487936E-06  0.507E-03    9.27       3.9  T
   4    -50.7400495 -0.728164E-07  0.168E-03    9.27      11.7  T
   5    -50.7400495 -0.305504E-08  0.453E-04    9.27      43.3  T
   6    -50.7400495 -0.203187E-09  0.284E-04    9.27      69.1  T
speedup  0.91
cpu  time for SCC    0.00 s
wall time for SCC    0.01 s
speedup  0.99
cpu  time for grad    0.01 s
wall time for grad    0.01 s
 E :    -50.45923128  G :  0.001711    pred/act E change: -0.198D-04 -0.185D-04
Maxdispl :   0.0878   ||displ|| :   0.1310   Lambda : -0.229D-04
Largest |displ|/coords:  0.0878 (   1)  0.0511 (   4)  0.0418 (   5)
................................................................................
.............................. CYCLE   39 ......................................
................................................................................
   1    -50.7399013 -0.507399E+02  0.616E-02    9.26       0.0  T
   2    -50.7399019 -0.613862E-06  0.466E-02    9.26       1.0  T
   3    -50.7399026 -0.703621E-06  0.454E-03    9.26       4.3  T
   4    -50.7399027 -0.490475E-07  0.171E-03    9.26      11.5  T
   5    -50.7399027 -0.309820E-08  0.526E-04    9.26      37.3  T
   6    -50.7399027 -0.314110E-09  0.294E-04    9.26      66.7  T
speedup  1.11
cpu  time for SCC    0.01 s
wall time for SCC    0.01 s
speedup  1.00
cpu  time for grad    0.01 s
wall time for grad    0.01 s
 E :    -50.45924625  G :  0.002034    pred/act E change: -0.140D-04 -0.150D-04
Maxdispl :   0.0803   ||displ|| :   0.1192   Lambda : -0.197D-04
Largest |displ|/coords:  0.0803 (   1)  0.0461 (   5)  0.0372 (   4)
................................................................................
.............................. CYCLE   40 ......................................
................................................................................
   1    -50.7400177 -0.507400E+02  0.549E-02    9.26       0.0  T
   2    -50.7400182 -0.488318E-06  0.415E-02    9.26       1.0  T
   3    -50.7400187 -0.509580E-06  0.410E-03    9.26       4.8  T
   4    -50.7400188 -0.475299E-07  0.148E-03    9.26      13.2  T
   5    -50.7400188 -0.273647E-08  0.429E-04    9.26      45.8  T
   6    -50.7400188 -0.194859E-09  0.235E-04    9.26      83.4  T
speedup  0.91
cpu  time for SCC    0.00 s
wall time for SCC    0.01 s
speedup  0.99
cpu  time for grad    0.01 s
wall time for grad    0.01 s
 E :    -50.45925986  G :  0.002087    pred/act E change: -0.116D-04 -0.136D-04
Maxdispl :   0.0978   ||displ|| :   0.1322   Lambda : -0.213D-04
Largest |displ|/coords:  0.0978 (   1)  0.0470 (   5)  0.0450 (   4)
................................................................................
.............................. CYCLE   41 ......................................
................................................................................
   1    -50.7398897 -0.507399E+02  0.603E-02    9.27       0.0  T
   2    -50.7398904 -0.629193E-06  0.455E-02    9.27       1.0  T
   3    -50.7398909 -0.581434E-06  0.460E-03    9.27       4.3  T
   4    -50.7398910 -0.794423E-07  0.168E-03    9.27      11.7  T
   5    -50.7398910 -0.341393E-08  0.474E-04    9.27      41.4  T
   6    -50.7398910 -0.301256E-09  0.241E-04    9.27      81.5  T
speedup  1.07
cpu  time for SCC    0.01 s
wall time for SCC    0.01 s
speedup  0.98
cpu  time for grad    0.01 s
wall time for grad    0.01 s
 E :    -50.45927467  G :  0.002763    pred/act E change: -0.997D-05 -0.148D-04
Maxdispl :   0.1001   ||displ|| :   0.1355   Lambda : -0.229D-04
Largest |displ|/coords:  0.1001 (   1)  0.0492 (   5)  0.0436 (   4)
................................................................................
.............................. CYCLE   42 ......................................
................................................................................
   1    -50.7400442 -0.507400E+02  0.604E-02    9.29       0.0  T
   2    -50.7400449 -0.658852E-06  0.455E-02    9.29       1.0  T
   3    -50.7400454 -0.563426E-06  0.479E-03    9.29       4.1  T
   4    -50.7400455 -0.894120E-07  0.170E-03    9.29      11.5  T
   5    -50.7400455 -0.434331E-08  0.551E-04    9.29      35.6  T
   6    -50.7400455 -0.385562E-09  0.293E-04    9.29      67.0  T
speedup  0.94
cpu  time for SCC    0.00 s
wall time for SCC    0.01 s
speedup  0.93
cpu  time for grad    0.01 s
wall time for grad    0.01 s
 E :    -50.45929077  G :  0.003009    pred/act E change: -0.108D-04 -0.161D-04
Maxdispl :   0.1473   ||displ|| :   0.1843   Lambda : -0.262D-04
Largest |displ|/coords:  0.1473 (   1)  0.0516 (   4)  0.0498 (   5)
................................................................................
.............................. CYCLE   43 ......................................
................................................................................
   1    -50.7398081 -0.507398E+02  0.884E-02    9.30       0.0  T
   2    -50.7398090 -0.874931E-06  0.666E-02    9.31       1.0  T
   3    -50.7398099 -0.887873E-06  0.566E-03    9.31       3.5  T
   4    -50.7398100 -0.972008E-07  0.214E-03    9.31       9.2  T
   5    -50.7398100 -0.553577E-08  0.695E-04    9.31      28.2  T
   6    -50.7398100 -0.538648E-09  0.337E-04    9.31      58.2  T
speedup  0.89
cpu  time for SCC    0.00 s
wall time for SCC    0.01 s
speedup  0.91
cpu  time for grad    0.01 s
wall time for grad    0.01 s
 E :    -50.45930828  G :  0.003398    pred/act E change: -0.117D-04 -0.175D-04
Maxdispl :   0.0852   ||displ|| :   0.1261   Lambda : -0.306D-04
Largest |displ|/coords:  0.0852 (   1)  0.0409 (   2)  0.0337 (   4)
................................................................................
.............................. CYCLE   44 ......................................
................................................................................
   1    -50.7406667 -0.507407E+02  0.713E-02    9.33       0.0  T
   2    -50.7406676 -0.901787E-06  0.536E-02    9.33       1.0  T
   3    -50.7406683 -0.716662E-06  0.546E-03    9.34       3.6  T
   4    -50.7406684 -0.122014E-06  0.174E-03    9.34      11.3  T
   5    -50.7406684 -0.381487E-08  0.696E-04    9.34      28.2  T
   6    -50.7406684 -0.407816E-09  0.333E-04    9.34      58.8  T
speedup  0.91
cpu  time for SCC    0.00 s
wall time for SCC    0.01 s
speedup  0.98
cpu  time for grad    0.01 s
wall time for grad    0.01 s
 E :    -50.45932156  G :  0.003225    pred/act E change: -0.136D-04 -0.133D-04
Maxdispl :   0.1298   ||displ|| :   0.1579   Lambda : -0.236D-04
Largest |displ|/coords:  0.1298 (   1)  0.0510 (   4)  0.0381 (   5)
................................................................................
.............................. CYCLE   45 ......................................
................................................................................
   1    -50.7399129 -0.507399E+02  0.728E-02    9.33       0.0  T
   2    -50.7399136 -0.705142E-06  0.550E-02    9.33       1.0  T
   3    -50.7399143 -0.668978E-06  0.463E-03    9.33       4.2  T
   4    -50.7399144 -0.895731E-07  0.167E-03    9.33      11.7  T
   5    -50.7399144 -0.345216E-08  0.616E-04    9.33      31.8  T
   6    -50.7399144 -0.527649E-09  0.283E-04    9.33      69.2  T
speedup  0.89
cpu  time for SCC    0.00 s
wall time for SCC    0.01 s
speedup  0.98
cpu  time for grad    0.01 s
wall time for grad    0.01 s
 E :    -50.45933481  G :  0.002714    pred/act E change: -0.156D-04 -0.132D-04
Maxdispl :   0.0344   ||displ|| :   0.0458   Lambda : -0.167D-04
Largest |displ|/coords:  0.0344 (   1)  0.0125 (   6)  0.0118 (  10)
................................................................................
.............................. CYCLE   46 ......................................
................................................................................
   1    -50.7404116 -0.507404E+02  0.215E-02    9.33       0.0  T
   2    -50.7404117 -0.112312E-06  0.162E-02    9.32       1.2  T
   3    -50.7404117 -0.616688E-07  0.194E-03    9.32      10.1  T
   4    -50.7404118 -0.195936E-07  0.575E-04    9.32      34.1  T
   5    -50.7404118 -0.586972E-09  0.231E-04    9.32      84.7  T
speedup  1.04
cpu  time for SCC    0.00 s
wall time for SCC    0.00 s
speedup  1.03
cpu  time for grad    0.01 s
wall time for grad    0.01 s
 E :    -50.45934571  G :  0.001827    pred/act E change: -0.121D-04 -0.109D-04
Maxdispl :   0.0718   ||displ|| :   0.0946   Lambda : -0.117D-04
Largest |displ|/coords:  0.0718 (   1)  0.0281 (   4)  0.0199 (  10)
................................................................................
.............................. CYCLE   47 ......................................
................................................................................
   1    -50.7403688 -0.507404E+02  0.465E-02    9.32       0.0  T
   2    -50.7403689 -0.159892E-06  0.350E-02    9.32       1.0  T
   3    -50.7403691 -0.190949E-06  0.191E-03    9.32      10.3  T
   4    -50.7403691 -0.106682E-07  0.902E-04    9.32      21.7  T
   5    -50.7403691 -0.981061E-09  0.322E-04    9.32      60.8  T
speedup  1.09
cpu  time for SCC    0.00 s
wall time for SCC    0.00 s
speedup  0.98
cpu  time for grad    0.01 s
wall time for grad    0.01 s
 E :    -50.45935372  G :  0.001435    pred/act E change: -0.839D-05 -0.801D-05
Maxdispl :   0.0817   ||displ|| :   0.1018   Lambda : -0.952D-05
Largest |displ|/coords:  0.0817 (   1)  0.0251 (   3)  0.0219 (  14)
................................................................................
.............................. CYCLE   48 ......................................
................................................................................
   1    -50.7406179 -0.507406E+02  0.523E-02    9.32       0.0  T
   2    -50.7406181 -0.240028E-06  0.394E-02    9.32       1.0  T
   3    -50.7406183 -0.217955E-06  0.264E-03    9.32       7.4  T
   4    -50.7406184 -0.282311E-07  0.114E-03    9.32      17.3  T
   5    -50.7406184 -0.152926E-08  0.359E-04    9.32      54.6  T
   6    -50.7406184 -0.115229E-09  0.183E-04    9.32     107.3  T
speedup  0.93
cpu  time for SCC    0.00 s
wall time for SCC    0.01 s
speedup  0.99
cpu  time for grad    0.01 s
wall time for grad    0.01 s
 E :    -50.45935914  G :  0.001831    pred/act E change: -0.590D-05 -0.542D-05
Maxdispl :   0.0586   ||displ|| :   0.0756   Lambda : -0.630D-05
Largest |displ|/coords:  0.0586 (   1)  0.0198 (   3)  0.0193 (   4)
................................................................................
.............................. CYCLE   49 ......................................
................................................................................
   1    -50.7404865 -0.507405E+02  0.347E-02    9.32       0.0  T
   2    -50.7404866 -0.162909E-06  0.261E-02    9.32       1.0  T
   3    -50.7404868 -0.139614E-06  0.221E-03    9.32       8.9  T
   4    -50.7404868 -0.212561E-07  0.878E-04    9.32      22.3  T
   5    -50.7404868 -0.123006E-08  0.301E-04    9.32      65.2  T
speedup  1.09
cpu  time for SCC    0.00 s
wall time for SCC    0.00 s
speedup  0.98
cpu  time for grad    0.01 s
wall time for grad    0.01 s
 E :    -50.45936263  G :  0.001057    pred/act E change: -0.481D-05 -0.349D-05
Maxdispl :   0.0133   ||displ|| :   0.0237   Lambda : -0.313D-05
Largest |displ|/coords:  0.0133 (   1)  0.0119 (   3)  0.0075 (   7)
................................................................................
.............................. CYCLE   50 ......................................
................................................................................
   1    -50.7406160 -0.507406E+02  0.143E-02    9.32       0.0  T
   2    -50.7406161 -0.391792E-07  0.107E-02    9.32       1.8  T
   3    -50.7406161 -0.213738E-07  0.133E-03    9.32      14.8  T
   4    -50.7406161 -0.717907E-08  0.472E-04    9.32      41.5  T
   5    -50.7406161 -0.219345E-09  0.128E-04    9.32     153.5  T
speedup  1.09
cpu  time for SCC    0.00 s
wall time for SCC    0.00 s
speedup  1.05
cpu  time for grad    0.01 s
wall time for grad    0.01 s
 E :    -50.45936501  G :  0.000842    pred/act E change: -0.317D-05 -0.239D-05
Maxdispl :   0.0567   ||displ|| :   0.0724   Lambda : -0.527D-05
Largest |displ|/coords:  0.0567 (   1)  0.0280 (   3)  0.0135 (   4)
................................................................................
.............................. CYCLE   51 ......................................
................................................................................
   1    -50.7404237 -0.507404E+02  0.384E-02    9.33       0.0  T
   2    -50.7404240 -0.235476E-06  0.288E-02    9.33       1.0  T
   3    -50.7404241 -0.160219E-06  0.345E-03    9.33       5.7  T
   4    -50.7404242 -0.366603E-07  0.109E-03    9.33      18.0  T
   5    -50.7404242 -0.148118E-08  0.331E-04    9.33      59.2  T
   6    -50.7404242 -0.963709E-10  0.191E-04    9.33     102.8  T
speedup  0.91
cpu  time for SCC    0.00 s
wall time for SCC    0.01 s
speedup  0.99
cpu  time for grad    0.01 s
wall time for grad    0.01 s
 E :    -50.45936701  G :  0.001739    pred/act E change: -0.157D-05 -0.200D-05
Maxdispl :   0.0378   ||displ|| :   0.0545   Lambda : -0.535D-05
Largest |displ|/coords:  0.0378 (   1)  0.0200 (   5)  0.0160 (   4)
................................................................................
.............................. CYCLE   52 ......................................
................................................................................
   1    -50.7410033 -0.507410E+02  0.232E-02    9.33       0.0  T
   2    -50.7410034 -0.114896E-06  0.175E-02    9.33       1.1  T
   3    -50.7410035 -0.987858E-07  0.187E-03    9.33      10.5  T
   4    -50.7410035 -0.160070E-07  0.789E-04    9.33      24.9  T
   5    -50.7410035 -0.886800E-09  0.242E-04    9.33      81.0  T
speedup  1.09
cpu  time for SCC    0.00 s
wall time for SCC    0.00 s
speedup  1.04
cpu  time for grad    0.01 s
wall time for grad    0.01 s
 E :    -50.45936850  G :  0.001565    pred/act E change: -0.265D-05 -0.149D-05
Maxdispl :   0.0192   ||displ|| :   0.0265   Lambda : -0.316D-05
Largest |displ|/coords:  0.0192 (   1)  0.0086 (   4)  0.0073 (   5)

generating ANC from model Hessian ...
 Shifting diagonal of input Hessian by   4.809097082380107E-003
 Lowest  eigenvalues of input Hessian
   -0.000000   -0.000000   -0.000000   -0.000000   -0.000000    0.000000
    0.005000    0.005051    0.005298    0.005883    0.006148    0.006714
    0.007066    0.007571    0.007783    0.007903    0.007988    0.009170
 Highest eigenvalues
    1.403068    1.407276    1.525993    3.010241    3.328853    3.452579
 
cpu  time for ANC gen    0.01 s
wall time for ANC gen    0.02 s
................................................................................
.............................. CYCLE   53 ......................................
................................................................................
   1    -50.7406697 -0.507407E+02  0.116E-02    9.33       0.0  T
   2    -50.7406697 -0.218478E-07  0.876E-03    9.33       2.2  T
   3    -50.7406697 -0.160491E-07  0.810E-04    9.33      24.2  T
   4    -50.7406697 -0.345348E-08  0.291E-04    9.33      67.4  T
speedup  1.08
cpu  time for SCC    0.00 s
wall time for SCC    0.00 s
speedup  0.98
cpu  time for grad    0.01 s
wall time for grad    0.01 s
 E :    -50.45937068  G :  0.000892    pred/act E change:  0.000D+00 -0.218D-05
Maxdispl :   0.0104   ||displ|| :   0.0210   Lambda : -0.461D-05
Largest |displ|/coords:  0.0104 (   3)  0.0080 (  11)  0.0067 (   1)
................................................................................
.............................. CYCLE   54 ......................................
................................................................................
   1    -50.7405613 -0.507406E+02  0.188E-02    9.33       0.0  T
   2    -50.7405613 -0.460454E-07  0.142E-02    9.33       1.4  T
   3    -50.7405614 -0.551312E-07  0.966E-04    9.33      20.3  T
   4    -50.7405614 -0.267799E-08  0.385E-04    9.33      50.9  T
speedup  1.08
cpu  time for SCC    0.00 s
wall time for SCC    0.00 s
speedup  1.06
cpu  time for grad    0.01 s
wall time for grad    0.01 s
 E :    -50.45937440  G :  0.000498    pred/act E change:  0.000D+00 -0.372D-05
Maxdispl :   0.0367   ||displ|| :   0.0572   Lambda : -0.899D-05
Largest |displ|/coords:  0.0367 (   3)  0.0184 (  21)  0.0180 (   1)
................................................................................
.............................. CYCLE   55 ......................................
................................................................................
   1    -50.7402682 -0.507403E+02  0.467E-02    9.32       0.0  T
   2    -50.7402685 -0.269300E-06  0.353E-02    9.32       1.0  T
   3    -50.7402688 -0.305008E-06  0.254E-03    9.32       7.7  T
   4    -50.7402688 -0.192251E-07  0.960E-04    9.32      20.4  T
   5    -50.7402688 -0.964882E-09  0.355E-04    9.32      55.3  T
speedup  0.89
cpu  time for SCC    0.00 s
wall time for SCC    0.00 s
speedup  0.99
cpu  time for grad    0.01 s
wall time for grad    0.01 s
 E :    -50.45937968  G :  0.000860    pred/act E change: -0.231D-05 -0.528D-05
Maxdispl :   0.0177   ||displ|| :   0.0280   Lambda : -0.268D-05
Largest |displ|/coords:  0.0177 (   3)  0.0110 (   1)  0.0085 (  21)
................................................................................
.............................. CYCLE   56 ......................................
................................................................................
   1    -50.7402474 -0.507402E+02  0.201E-02    9.32       0.0  T
   2    -50.7402474 -0.512814E-07  0.152E-02    9.32       1.3  T
   3    -50.7402475 -0.524292E-07  0.110E-03    9.32      17.9  T
   4    -50.7402475 -0.511435E-08  0.383E-04    9.32      51.2  T
   5    -50.7402475 -0.184130E-09  0.149E-04    9.32     131.4  T
speedup  1.09
cpu  time for SCC    0.00 s
wall time for SCC    0.00 s
speedup  0.98
cpu  time for grad    0.01 s
wall time for grad    0.01 s
 E :    -50.45938152  G :  0.000760    pred/act E change: -0.451D-05 -0.184D-05
Maxdispl :   0.0275   ||displ|| :   0.0383   Lambda : -0.307D-05
Largest |displ|/coords:  0.0275 (   3)  0.0151 (   1)  0.0103 (  21)
................................................................................
.............................. CYCLE   57 ......................................
................................................................................
   1    -50.7402932 -0.507403E+02  0.238E-02    9.32       0.0  T
   2    -50.7402933 -0.779799E-07  0.180E-02    9.32       1.1  T
   3    -50.7402934 -0.658039E-07  0.146E-03    9.32      13.5  T
   4    -50.7402934 -0.105576E-07  0.471E-04    9.32      41.6  T
   5    -50.7402934 -0.281211E-09  0.187E-04    9.32     105.1  T
speedup  1.09
cpu  time for SCC    0.00 s
wall time for SCC    0.00 s
speedup  0.91
cpu  time for grad    0.01 s
wall time for grad    0.01 s
 E :    -50.45938349  G :  0.000446    pred/act E change: -0.134D-05 -0.197D-05
Maxdispl :   0.0126   ||displ|| :   0.0213   Lambda : -0.126D-05
Largest |displ|/coords:  0.0126 (   3)  0.0106 (   1)  0.0060 (   4)
................................................................................
.............................. CYCLE   58 ......................................
................................................................................
   1    -50.7403517 -0.507404E+02  0.104E-02    9.32       0.0  T
   2    -50.7403517 -0.217745E-07  0.787E-03    9.32       2.5  T
   3    -50.7403517 -0.159941E-07  0.792E-04    9.32      24.8  T
   4    -50.7403517 -0.331282E-08  0.232E-04    9.32      84.7  T
speedup  1.03
cpu  time for SCC    0.00 s
wall time for SCC    0.00 s
speedup  0.95
cpu  time for grad    0.01 s
wall time for grad    0.01 s
 E :    -50.45938428  G :  0.000383    pred/act E change: -0.154D-05 -0.791D-06
Maxdispl :   0.0124   ||displ|| :   0.0191   Lambda : -0.643D-06
Largest |displ|/coords:  0.0124 (   3)  0.0102 (   1)  0.0043 (   4)
................................................................................
.............................. CYCLE   59 ......................................
................................................................................
   1    -50.7403082 -0.507403E+02  0.959E-03    9.32       0.0  T
   2    -50.7403082 -0.156974E-07  0.724E-03    9.32       2.7  T
   3    -50.7403082 -0.141620E-07  0.623E-04    9.32      31.5  T
   4    -50.7403082 -0.195835E-08  0.209E-04    9.32      93.8  T
speedup  1.05
cpu  time for SCC    0.00 s
wall time for SCC    0.00 s
speedup  1.05
cpu  time for grad    0.01 s
wall time for grad    0.01 s
 E :    -50.45938465  G :  0.000290    pred/act E change: -0.630D-06 -0.371D-06
Maxdispl :   0.0054   ||displ|| :   0.0077   Lambda : -0.265D-06
Largest |displ|/coords:  0.0054 (   1)  0.0029 (   4)  0.0021 (   3)
................................................................................
.............................. CYCLE   60 ......................................
................................................................................
   1    -50.7402761 -0.507403E+02  0.299E-03    9.32       0.0  T
   2    -50.7402761 -0.200953E-08  0.225E-03    9.32       8.7  T
   3    -50.7402761 -0.162912E-08  0.267E-04    9.32      73.4  T
   4    -50.7402761 -0.245237E-09  0.128E-04    9.32     153.6  T
speedup  1.05
cpu  time for SCC    0.00 s
wall time for SCC    0.00 s
speedup  0.96
cpu  time for grad    0.01 s
wall time for grad    0.01 s
 E :    -50.45938483  G :  0.000176    pred/act E change: -0.322D-06 -0.178D-06
Maxdispl :   0.0039   ||displ|| :   0.0062   Lambda : -0.158D-06
Largest |displ|/coords:  0.0039 (   1)  0.0023 (   8)  0.0021 (   7)
................................................................................
.............................. CYCLE   61 ......................................
................................................................................
   1    -50.7402604 -0.507403E+02  0.256E-03    9.32       0.0  T
   2    -50.7402604 -0.243665E-08  0.191E-03    9.32      10.3  T
   3    -50.7402604 -0.125963E-08  0.315E-04    9.32      62.2  T
   4    -50.7402604 -0.375039E-09  0.138E-04    9.32     141.8  T
speedup  1.08
cpu  time for SCC    0.00 s
wall time for SCC    0.00 s
speedup  1.06
cpu  time for grad    0.01 s
wall time for grad    0.01 s
 E :    -50.45938493  G :  0.000115    pred/act E change: -0.133D-06 -0.104D-06
Maxdispl :   0.0052   ||displ|| :   0.0065   Lambda : -0.953D-07
Largest |displ|/coords:  0.0052 (   1)  0.0019 (   4)  0.0015 (   5)
................................................................................
.............................. CYCLE   62 ......................................
................................................................................
   1    -50.7402331 -0.507402E+02  0.267E-03    9.32       0.0  T
   2    -50.7402331 -0.148970E-08  0.200E-03    9.32       9.8  T
   3    -50.7402331 -0.123296E-08  0.283E-04    9.32      69.3  T
   4    -50.7402331 -0.196707E-09  0.119E-04    9.32     164.3  T
speedup  0.81
cpu  time for SCC    0.00 s
wall time for SCC    0.00 s
speedup  0.97
cpu  time for grad    0.01 s
wall time for grad    0.01 s
 E :    -50.45938500  G :  0.000127    pred/act E change: -0.792D-07 -0.648D-07
Maxdispl :   0.0041   ||displ|| :   0.0063   Lambda : -0.780D-07
Largest |displ|/coords:  0.0041 (   1)  0.0022 (   5)  0.0021 (   8)

   *** GEOMETRY OPTIMIZATION CONVERGED AFTER 62 ITERATIONS ***

------------------------------------------------------------------------
 total energy gain (kcal):     -0.0090
------------------------------------------------------------------------
================
 final structure:
================
$coord
        1.12019387427250        0.74214148236903        1.04617235506565      S 
        0.73127769526541        2.28971001117076        3.29775203267429      O 
        2.21645352094094        2.21523217620632       -1.01848360685892      O 
        2.90663540821952       -1.39998876321951        1.76689260306791      O 
       -1.30959749492612       -0.34941543618852        0.23200857700413      O 
       -1.93291097665170       -5.40643258520832       -0.77615682956271      O 
       -2.10083811777937       -5.78442446622444        1.00223729737608      H 
       -2.09486323954516       -3.58135258875960       -0.86803503082645      H 
       -1.53131070863080       -3.49386746167446        4.31641442807060      O 
        0.13375260718090       -3.46685950623467        5.03341186203926      H 
       -1.51306868064923       -2.21597364053649        3.00521453798408      H 
       -0.67348525517136        6.18942858336989       -1.74198862169352      O 
        0.47155386552360        4.71325367597683       -1.67831319229254      H 
        0.37111635822361        7.63165521283056       -1.40389587368108      H 
        2.86220986916094       -0.81582791825197       -4.95171380968356      O 
        2.53960641437105        0.40580927263682       -3.59453362927623      H 
        4.41777138781863       -0.30599550419331       -5.72879023324015      H 
        2.94040331726528       -4.62551908165827       -1.65328421038392      O 
        1.19964182214761       -5.29080724842456       -1.50828721281358      H 
        2.93868279632366       -3.51845138261998       -3.14646503699234      H 
        3.02377085826917       -2.81988796550636        0.34109157157406      H 
       -3.45731528803045        3.83484894179876        1.63450477375327      N 
       -1.82772948825205        3.47898056172963        2.82543154391359      H 
       -3.56953383073553        2.07993290603477        0.75643405570229      H 
       -5.06114999015947        4.36312521605277        2.54173272099741      H 
       -2.80126674335103        5.13068550854213        0.27064892808345      H 
$end
 
 Bond Distances (Angstroems)
 ---------------------------
S1-O2=1.4604         S1-O3=1.4622         S1-O4=1.5245         S1-O5=1.4740         O2-S1=1.4604         O3-S1=1.4622         
O4-S1=1.5245         O4-H21=1.0666        O5-S1=1.4740         O6-H7=0.9662         O6-H8=0.9708         H7-O6=0.9662         
H8-O6=0.9708         O9-H10=0.9594        O9-H11=0.9689        H10-O9=0.9594        H11-O9=0.9689        O12-H13=0.9892       
O12-H14=0.9592       H13-O12=0.9892       H14-O12=0.9592       O15-H16=0.9813       O15-H17=0.9589       H16-O15=0.9813       
H17-O15=0.9589       O18-H19=0.9891       O18-H20=0.9836       H19-O18=0.9891       H20-O18=0.9836       H21-O4=1.0666        
N22-H23=1.0846       N22-H24=1.0401       N22-H25=1.0144       N22-H26=1.0543       H23-N22=1.0846       H24-N22=1.0401       
H25-N22=1.0144       H26-N22=1.0543       
 N  H  Rav=1.0483 sigma=0.0253  Rmin=1.0144  Rmax=1.0846     4
 O  H  Rav=0.9812 sigma=0.0292  Rmin=0.9589  Rmax=1.0666    11
 S  O  Rav=1.4802 sigma=0.0261  Rmin=1.4604  Rmax=1.5245     4
 
 selected bond angles (degree)
 --------------------
O3-S1-O2=111.51                O4-S1-O2=107.47                O4-S1-O3=109.71                O5-S1-O2=109.59                
O5-S1-O3=109.67                O5-S1-O4=108.82                H21-O4-S1=112.51               H8-O6-H7=104.28                
H11-O9-H10=105.29              
 
 selected dihedral angles (degree)
 ---------------------------------
H21-O4-S1-O2=169.14           H21-O4-S1-O3=290.55           H21-O4-S1-O5= 50.54           
 
 CMA Distance (Angstroems)
 ---------------------------
R(CMA):  1.3302

========================================================================
 FINAL SINGLEPOINT CALCULATION ON OPTIMIZED GEOMETRY
========================================================================

 Ncao       : 65
 Nao        : 64
 Nshell     : 38
 Nel        : 80
 T(el)      :   300.0
 intcut     :    25.0
 scfconv/Eh :  0.100E-05
   qconv/e  :  0.100E-03
 intneglect :  0.100E-07
 broydamp   :      0.250
 iter      E             dE          RMSdq      gap      omega  full diag
   1    -50.7402331 -0.507402E+02  0.411E-05    9.32       0.0  T
   2    -50.7402331 -0.881073E-12  0.257E-05    9.32     762.4  T
   3    -50.7402331 -0.525802E-12  0.538E-06    9.32    3645.8  T
speedup  0.74
cpu  time for SCC    0.00 s
wall time for SCC    0.00 s

   *** convergence criteria satisfied after 3 iterations ***

          eigenvalues
 #    :          28         29         30         31         32         33         34         35
 occ. :        2.000      2.000      2.000      2.000      2.000      2.000      2.000      2.000
 eps  :       -13.461    -13.133    -12.726    -12.669    -12.465    -12.385    -12.115    -12.056
 #    :          36         37         38         39         40         41         42         43
 occ. :        2.000      2.000      2.000      2.000      2.000      0.000      0.000      0.000
 eps  :       -12.004    -11.939    -11.893    -11.754    -11.670     -2.348     -1.045      0.002
 #    :          44         45         46         47         48         49         50         51
 occ. :        0.000      0.000      0.000      0.000      0.000      0.000      0.000      0.000
 eps  :         0.614      0.855      1.238      2.072      2.698      3.773      3.837      4.720


   #   Z            q   n(s)   n(p)   n(d)      C6AA      α(0)
   1  16 S      1.721  1.585  1.759  0.935    88.299    15.815
   2   8 O     -0.740  1.770  4.970  0.000    29.820     7.322
   3   8 O     -0.771  1.779  4.991  0.000    30.705     7.429
   4   8 O     -0.651  1.765  4.886  0.000    26.419     6.938
   5   8 O     -0.803  1.781  5.022  0.000    31.678     7.546
   6   8 O     -0.604  1.749  4.855  0.000    25.275     6.785
   7   1 H      0.311  0.689  0.000  0.000     0.688     1.303
   8   1 H      0.315  0.685  0.000  0.000     0.678     1.294
   9   8 O     -0.612  1.739  4.874  0.000    25.485     6.813
  10   1 H      0.288  0.712  0.000  0.000     0.759     1.368
  11   1 H      0.296  0.704  0.000  0.000     0.733     1.345
  12   8 O     -0.608  1.741  4.867  0.000    25.391     6.801
  13   1 H      0.331  0.669  0.000  0.000     0.636     1.252
  14   1 H      0.294  0.706  0.000  0.000     0.739     1.350
  15   8 O     -0.610  1.745  4.865  0.000    25.437     6.807
  16   1 H      0.320  0.680  0.000  0.000     0.664     1.280
  17   1 H      0.289  0.711  0.000  0.000     0.756     1.366
  18   8 O     -0.609  1.764  4.845  0.000    25.372     6.800
  19   1 H      0.342  0.658  0.000  0.000     0.608     1.226
  20   1 H      0.335  0.665  0.000  0.000     0.625     1.242
  21   1 H      0.393  0.607  0.000  0.000     0.491     1.098
  22   7 N     -0.347  1.266  4.080  0.000    28.913     7.986
  23   1 H      0.304  0.696  0.000  0.000     0.702     1.312
  24   1 H      0.280  0.720  0.000  0.000     0.776     1.380
  25   1 H      0.243  0.757  0.000  0.000     0.911     1.495
  26   1 H      0.295  0.705  0.000  0.000     0.730     1.338

 Mol. C6AA /au·bohr⁶  :       5464.104541
 Mol. C8AA /au·bohr⁸  :     118193.792228
 Mol. α(0) /au        :        106.692732

 
 Wiberg/Mayer (AO) data. WBOs > 0.1 written file <wbo>
 largest (>0.05) Wiberg bond orders for each atom
           total WBO             WBO to atom ...
     1  S   4.805    O    2 1.274    O    3 1.240    O    5 1.209    O    4 1.036
     2  O   1.752    S    1 1.274    H   23 0.138    O    3 0.101    O    5 0.100    O    4 0.065    N   22 0.056
     3  O   1.713    S    1 1.240    O    2 0.101    O    5 0.100    O    4 0.083    H   13 0.071    H   16 0.061
     4  O   1.941    S    1 1.036    H   21 0.595    O    3 0.083    O    5 0.082    O    2 0.065    O   18 0.065
     5  O   1.671    S    1 1.209    O    3 0.100    O    2 0.100    O    4 0.082    H   24 0.050
     6  O   1.890    H    7 0.887    H    8 0.867    H   19 0.073
     7  H   0.903    O    6 0.887
     8  H   0.901    O    6 0.867
     9  O   1.825    H   10 0.913    H   11 0.865
    10  H   0.917    O    9 0.913
    11  H   0.912    O    9 0.865
    12  O   1.900    H   14 0.908    H   13 0.816    H   26 0.093
    13  H   0.891    O   12 0.816    O    3 0.071
    14  H   0.914    O   12 0.908
    15  O   1.871    H   17 0.914    H   16 0.833    H   20 0.063
    16  H   0.898    O   15 0.833    O    3 0.061
    17  H   0.917    O   15 0.914
    18  O   2.006    H   20 0.823    H   19 0.809    H   21 0.231    O    4 0.065
    19  H   0.883    O   18 0.809    O    6 0.073
    20  H   0.888    O   18 0.823    O   15 0.063
    21  H   0.845    O    4 0.595    O   18 0.231
    22  N   3.517    H   25 0.936    H   24 0.863    H   26 0.815    H   23 0.759    O    2 0.056
    23  H   0.908    N   22 0.759    O    2 0.138
    24  H   0.922    N   22 0.863    O    5 0.050
    25  H   0.941    N   22 0.936
    26  H   0.913    N   22 0.815    O   12 0.093
 MOs/occ written to file <molden.input>
 
molecular dipole:
                 x           y           z       tot (Debye)
 q only:       -1.382       2.068       0.092
   full:       -0.836       2.462       0.201       6.628
molecular quadrupole (traceless):
                xx          xy          yy          xz          yz          zz
 q only:        5.721     -12.205       4.078      -8.978       3.242      -9.799
  q+dip:        7.947      -9.517       1.255      -9.597       2.020      -9.202
   full:        7.882      -9.621       1.547      -9.728       1.915      -9.429

SCC energy    :     -50.7402331
rep           :       0.2806092
ES            :       0.2709864
AES           :      -0.0782483
AXC           :      -0.0094872
disp          :      -0.0200626
XB            :       0.0000000
fix           :       0.0000000
total E       :     -50.4593850
atomizationE  :       4.9896892     3131.08
(atE without considering molecular charge,
 total energy contains solvation terms)
H-L gap (eV)  :          9.3219
optimized geometry written to: xtbopt.xyz


------------------------------------------------------------------------
 * finished run on 2019/09/16 at 12:19:52.825     
------------------------------------------------------------------------
 total:
 * wall-time:     0 d,  0 h,  0 min,  1.560 sec
 *  cpu-time:     0 d,  0 h,  0 min,  1.541 sec
 * ratio c/w:     0.988 speedup
 SCF:
 * wall-time:     0 d,  0 h,  0 min,  0.151 sec
 *  cpu-time:     0 d,  0 h,  0 min,  0.146 sec
 * ratio c/w:     0.964 speedup
 ANC optimizer:
 * wall-time:     0 d,  0 h,  0 min,  1.382 sec
 *  cpu-time:     0 d,  0 h,  0 min,  1.372 sec
 * ratio c/w:     0.992 speedup

