      -----------------------------------------------------------      
     |                   =====================                   |     
     |                           x T B                           |     
     |                   =====================                   |     
     |                         S. Grimme                         |     
     |          Mulliken Center for Theoretical Chemistry        |     
     |                    University of Bonn                     |     
     |                 Version 6.0.1 (SAW181210)                 |     
      -----------------------------------------------------------      

   This program is distributed in the hope that it will be useful,
   but WITHOUT ANY WARRANTY; without even the implied warranty of
   MERCHANTABILITY or FITNESS FOR A PARTICULAR PURPOSE.
   
   FOR NON-COMMERCIAL, ACADEMIA USE ONLY.
   
   Cite this work as:
   S. Grimme, C. Bannwarth, P. Shushkov, J. Comput. Theory Chem., 2017,
   13, 1989-2009.
   C. Bannwarth, S. Ehlert and S. Grimme., ChemRxiv, 2018, preprint.
   http://doi.org/10.26434/chemrxiv.7246238.v1
   
   for sTDA-xTB:
   S. Grimme and C. Bannwarth, J. Chem. Phys., 2016, 145, 054103.
   
   in the mass-spec context:
   V. Asgeirsson, C. Bauer and S. Grimme, Chem. Sci., 2017, 8, 4879.
   
   if GBSA is used:
   P. Shushkov, F. März and S. Grimme, unpublished.
   
   for ANC optimizer:
   S. Grimme, unpublished.
   Rational Function algorithm used in ANCopt:
   F. Eckert, P. Pulay, H.-J. Werner, J. Comput. Chem., 1997, 18, 1473.
   
   with help from (in alphabetical order)
   C. Bannwarth, F. Bohle, G. Brandenburg, E. Caldeweyher, M. Checinski,
   S. Dohm, S. Ehlert, S. Ehrlich, F. März, H. Neugebauer, J. Pisarek,
   P. Pracht, P. Shushkov, and S. Spicher.
   
 * started run on 2019/09/16 at 11:30:30.047     
========================================================================
 # omp threads = 1
========================================================================
number of atoms            : 26
number of electrons        : 80
charge                     : 0
spin                       : .0
first test random number   : .1477

########################################################################
# WARNING! Please study the warnings concerning your input carefully
#  - XTBPATH is not set, using XTBHOME instead
#  - the use of '-opt' is discouraged, please use '--opt' next time
#  - the use of '-chrg' is discouraged, please use '--chrg' next time
#  - the use of '-uhf' is discouraged, please use '--uhf' next time
########################################################################

           ------------------------------------------------- 
          |                 G F N 2 - x T B                 |
          | Geometry, Frequencies, Noncovalent interactions |
          |            JCTC 2018 parametrisation            |
           ------------------------------------------------- 
      method parameters     
 k(s)        :  1.8500
 k(p)        :  2.2300
 k(d)        :  2.2300
 k(f)        :  2.0000
 kEN (H0ij)  : -2.0000
 D4 a1       :  0.5200
 D4 a2       :  5.0000
 D4 s6       :  1.0000
 D4 s8       :  2.7000
 D4 s9       :  5.0000
 alphaj      :  2.0000


            Z     q(EN)     CN     RAES       Cart. coordinates
     1  S   6.0    0.68    4.09    3.84    -1.85196     1.27536     0.61075
     2  O   6.0   -0.34    1.25    1.80    -1.89752    -1.03389    -0.99965
     3  O   6.0   -0.31    1.25    1.80    -2.71487     3.48977    -0.89919
     4  O   6.0   -0.30    1.22    1.80    -3.56701     0.91654     2.81484
     5  O   6.0   -0.34    1.24    1.80     0.77154     1.72904     1.52701
     6  O   6.0   -0.29    2.04    1.83    -1.26318    -5.26618     1.77850
     7  H   1.0    0.15    0.97    1.43    -1.17003    -6.76350     0.74702
     8  H   1.0    0.17    1.05    1.44    -1.54133    -3.89531     0.61318
     9  O   6.0   -0.29    2.07    1.83     0.52253    -0.40536    -5.39949
    10  H   1.0    0.15    1.03    1.43     2.19726     0.06997    -4.86664
    11  H   1.0    0.17    1.04    1.43    -0.26618    -1.12415    -3.92440
    12  O   6.0   -0.29    2.05    1.83     2.73021     0.15704     5.85879
    13  H   1.0    0.15    0.97    1.43     4.12574     1.16660     6.44860
    14  H   1.0    0.17    1.05    1.44     2.24801     0.88791     4.26257
    15  O   6.0   -0.22    2.88    2.51    -2.95463     3.00294    -5.67683
    16  H   1.0    0.16    1.09    1.44    -2.94011     3.62802    -3.91645
    17  H   1.0    0.14    1.05    1.44    -1.56088     1.80318    -6.00554
    18  H   1.0    0.12    0.96    1.42    -4.61572     2.29169    -6.15262
    19  O   6.0   -0.22    2.91    2.57    -1.47985    -2.35134     5.72688
    20  H   1.0    0.15    1.07    1.44    -2.66433    -1.06056     5.07823
    21  H   1.0    0.14    1.04    1.43    -1.33237    -3.81090     4.57018
    22  H   1.0    0.14    1.05    1.44     0.18814    -1.62151     6.14718
    23  N   5.0   -0.22    2.99    1.92     4.53919     1.51354    -2.55824
    24  H   1.0    0.11    0.99    1.43     5.20676     3.30593    -2.78792
    25  H   1.0    0.10    0.99    1.43     6.02200     0.48552    -1.88331
    26  H   1.0    0.13    1.03    1.43     3.26859     1.60966    -1.11346

  Z AO/shell   Hii/eV     exponent
  1     Wed Apr 25 08:07:45 CEST 2018   EN: 2.200 GM2: 0.406  GM3: 0.0800  RAES: 1.40
     1s    -10.707211    1.230000
  7     Wed Apr 25 08:07:45 CEST 2018   EN: 3.040 GM2: 0.461  GM3:-0.0640  RAES: 1.90
     2s    -16.686243    2.339881
     2p    -12.523956    2.014332
  8     Wed Apr 25 08:07:45 CEST 2018   EN: 3.440 GM2: 0.452  GM3:-0.0517  RAES: 1.80
     2s    -20.229985    2.439742
     2p    -15.503117    2.137023
 16     Tue Apr 24 11:44:34 CEST 2018   EN: 2.580 GM2: 0.340  GM3:-0.0502  RAES: 3.10
     3s    -20.029654    1.981333
     3p    -11.377694    2.025643
     3d     -0.420282    1.702555
 no old-style atom pair restraining (fixing) potential

molecular fragmentation (1/2 indicates fragments):
11111222222222222222222222
# atoms in fragment 1/2:     5    21
 fragment masses (1/2) :       96.06      109.12
CMA distance (Bohr)    :   2.882
constraining FC (au)   :  0.0500
           ------------------------------------------------- 
          |        Self-Consistent Charge Iterations        |
           ------------------------------------------------- 

 Ncao       : 65
 Nao        : 64
 Nshell     : 38
 Nel        : 80
 T(el)      :   300.0
 intcut     :    25.0
 scfconv/Eh :  0.100E-05
   qconv/e  :  0.100E-03
 intneglect :  0.100E-07
 broydamp   :      0.250
 iter      E             dE          RMSdq      gap      omega  full diag
   1    -50.5943630 -0.505944E+02  0.696E+00   10.08       0.0  T
   2    -50.6338146 -0.394516E-01  0.499E+00    9.69       1.0  T
   3    -50.6657463 -0.319317E-01  0.109E+00    8.01       1.0  T
   4    -50.6704146 -0.466834E-02  0.484E-01    7.95       1.0  T
   5    -50.6709987 -0.584146E-03  0.243E-01    7.83       1.0  T
   6    -50.6712698 -0.271009E-03  0.121E-01    7.88       1.0  T
   7    -50.6713576 -0.878481E-04  0.458E-02    7.94       1.0  T
   8    -50.6713674 -0.979020E-05  0.264E-02    7.94       1.0  T
   9    -50.6713717 -0.434535E-05  0.952E-03    7.93       2.1  T
  10    -50.6713722 -0.430780E-06  0.209E-03    7.93       9.4  T
  11    -50.6713722 -0.161908E-07  0.957E-04    7.93      20.5  T
  12    -50.6713722 -0.479514E-08  0.327E-04    7.93      60.0  T
speedup  0.97
cpu  time for SCC    0.01 s
wall time for SCC    0.01 s

   *** convergence criteria satisfied after 12 iterations ***

          eigenvalues
 #    :          28         29         30         31         32         33         34         35
 occ. :        2.000      2.000      2.000      2.000      2.000      2.000      2.000      2.000
 eps  :       -12.158    -12.041    -11.951    -11.888    -10.777    -10.671    -10.376    -10.093
 #    :          36         37         38         39         40         41         42         43
 occ. :        2.000      2.000      2.000      2.000      2.000      0.000      0.000      0.000
 eps  :        -9.962     -9.912     -9.749     -9.609     -9.547     -1.618     -0.940      0.436
 #    :          44         45         46         47         48         49         50         51
 occ. :        0.000      0.000      0.000      0.000      0.000      0.000      0.000      0.000
 eps  :         1.884      2.059      2.486      2.629      2.903      4.208      4.644      5.770


   #   Z            q   n(s)   n(p)   n(d)      C6AA      α(0)
   1  16 S      1.513  1.601  1.889  0.996    93.131    16.242
   2   8 O     -0.807  1.781  5.027  0.000    31.808     7.562
   3   8 O     -0.781  1.774  5.007  0.000    31.012     7.466
   4   8 O     -0.779  1.780  5.000  0.000    30.965     7.461
   5   8 O     -0.797  1.782  5.015  0.000    31.488     7.523
   6   8 O     -0.623  1.728  4.895  0.000    25.731     6.846
   7   1 H      0.287  0.713  0.000  0.000     0.763     1.372
   8   1 H      0.337  0.663  0.000  0.000     0.620     1.237
   9   8 O     -0.633  1.735  4.898  0.000    25.989     6.880
  10   1 H      0.319  0.681  0.000  0.000     0.667     1.283
  11   1 H      0.327  0.673  0.000  0.000     0.646     1.262
  12   8 O     -0.626  1.729  4.897  0.000    25.820     6.858
  13   1 H      0.287  0.713  0.000  0.000     0.763     1.372
  14   1 H      0.341  0.659  0.000  0.000     0.609     1.226
  15   8 O     -0.399  1.642  4.757  0.000    20.778     6.156
  16   1 H      0.422  0.578  0.000  0.000     0.446     1.049
  17   1 H      0.415  0.585  0.000  0.000     0.458     1.063
  18   1 H      0.374  0.626  0.000  0.000     0.535     1.149
  19   8 O     -0.421  1.641  4.781  0.000    21.209     6.220
  20   1 H      0.414  0.586  0.000  0.000     0.459     1.065
  21   1 H      0.412  0.588  0.000  0.000     0.464     1.070
  22   1 H      0.414  0.586  0.000  0.000     0.461     1.066
  23   7 N     -0.465  1.398  4.067  0.000    32.252     8.434
  24   1 H      0.137  0.863  0.000  0.000     1.490     1.912
  25   1 H      0.136  0.864  0.000  0.000     1.500     1.919
  26   1 H      0.197  0.803  0.000  0.000     1.121     1.658

 Mol. C6AA /au·bohr⁶  :       5526.147644
 Mol. C8AA /au·bohr⁸  :     119945.182616
 Mol. α(0) /au        :        107.354423

 
 Wiberg/Mayer (AO) data. WBOs > 0.1 written file <wbo>
 largest (>0.05) Wiberg bond orders for each atom
           total WBO             WBO to atom ...
     1  S   4.997    O    4 1.255    O    3 1.242    O    5 1.238    O    2 1.219
     2  O   1.660    S    1 1.219    O    5 0.096    O    3 0.094    O    4 0.093    H    8 0.059    H   11 0.051
     3  O   1.695    S    1 1.242    H   16 0.130    O    2 0.094    O    5 0.089    O    4 0.081
     4  O   1.686    S    1 1.255    H   20 0.106    O    5 0.099    O    2 0.093    O    3 0.081
     5  O   1.663    S    1 1.238    O    4 0.099    O    2 0.096    O    3 0.089    H   14 0.063
     6  O   1.848    H    7 0.905    H    8 0.823    H   21 0.068
     7  H   0.918    O    6 0.905
     8  H   0.887    O    6 0.823    O    2 0.059
     9  O   1.902    H   10 0.850    H   11 0.838    H   17 0.117
    10  H   0.898    O    9 0.850
    11  H   0.893    O    9 0.838    O    2 0.051
    12  O   1.848    H   13 0.903    H   14 0.816    H   22 0.072
    13  H   0.918    O   12 0.903
    14  H   0.884    O   12 0.816    O    5 0.063
    15  O   2.334    H   18 0.853    H   17 0.706    H   16 0.681
    16  H   0.822    O   15 0.681    O    3 0.130
    17  H   0.828    O   15 0.706    O    9 0.117
    18  H   0.860    O   15 0.853
    19  O   2.325    H   21 0.756    H   22 0.750    H   20 0.714
    20  H   0.828    O   19 0.714    O    4 0.106
    21  H   0.831    O   19 0.756    O    6 0.068
    22  H   0.829    O   19 0.750    O   12 0.072
    23  N   2.970    H   25 0.978    H   24 0.978    H   26 0.926
    24  H   0.981    N   23 0.978
    25  H   0.981    N   23 0.978
    26  H   0.961    N   23 0.926
 MOs/occ written to file <molden.input>
 
molecular dipole:
                 x           y           z       tot (Debye)
 q only:        0.151      -1.190      -1.182
   full:        0.496      -0.919      -1.037       3.742
molecular quadrupole (traceless):
                xx          xy          yy          xz          yz          zz
 q only:       -9.821       3.206     -10.343      17.880     -17.515      20.164
  q+dip:       -2.518       5.589      -7.511      21.405     -11.124      10.029
   full:       -2.534       5.680      -7.403      21.473     -11.242       9.937

SCC energy    :     -50.6713722
rep           :       0.2897699
ES            :       0.3414395
AES           :      -0.0798586
AXC           :      -0.0087091
disp          :      -0.0183814
XB            :       0.0000000
fix           :       0.0000000
total E       :     -50.3813311
atomizationE  :       4.9116353     3082.10
(atE without considering molecular charge,
 total energy contains solvation terms)
H-L gap (eV)  :          7.9287
           ------------------------------------------------- 
          |                 ===============                 |
          |                   A N C O P T                   |
          |                 ===============                 |
          |          Approximate Normal Coordinate          |
          |           Rational Function Optimizer           |
           ------------------------------------------------- 
dumping coords to <xtbopt.coord> and <xtbopt.log>
 optlevel               2
 Maxcycle             520
 Maxmicro              25
 Econv         1.000000000000000E-007
 Gconv         2.000000000000000E-004
 Maxdispl       1.00000000000000     
 Hlow          5.000000000000000E-003
 S6             20.0000000000000     
 Nvar               72

generating ANC from model Hessian ...
 Shifting diagonal of input Hessian by   4.915908853642253E-003
 Lowest  eigenvalues of input Hessian
   -0.000000   -0.000000    0.000000    0.000000    0.000000    0.000000
    0.005000    0.005073    0.005155    0.005395    0.005524    0.006084
    0.006185    0.006351    0.006870    0.007104    0.007608    0.008034
 Highest eigenvalues
    1.558335    1.559283    1.562304    3.085374    3.090089    3.092275
 
cpu  time for ANC gen    0.01 s
wall time for ANC gen    0.01 s
................................................................................
.............................. CYCLE    1 ......................................
................................................................................
   1    -50.6713722 -0.506714E+02  0.559E-05    7.93       0.0  T
   2    -50.6713722 -0.110134E-10  0.406E-05    7.93     483.2  T
   3    -50.6713722 -0.564881E-11  0.239E-05    7.93     820.1  T
speedup  1.03
cpu  time for SCC    0.00 s
wall time for SCC    0.00 s
speedup  1.04
cpu  time for grad    0.01 s
wall time for grad    0.01 s
 E :    -50.38133111  G :  0.140912    pred/act E change:  0.000D+00  0.184D-07
Maxdispl :   0.3200   ||displ|| :   0.4870   Lambda : -0.328D-01
Largest |displ|/coords:  0.3200 (  29)  0.1309 (  31)  0.1253 (  33)
................................................................................
.............................. CYCLE    2 ......................................
................................................................................
   1    -50.6788069 -0.506788E+02  0.364E-01    8.26       0.0  T
   2    -50.6791014 -0.294490E-03  0.273E-01    8.34       1.0  T
   3    -50.6792450 -0.143586E-03  0.808E-02    8.50       1.0  T
   4    -50.6792711 -0.261433E-04  0.267E-02    8.50       1.0  T
   5    -50.6792729 -0.177272E-05  0.843E-03    8.50       2.3  T
   6    -50.6792730 -0.145308E-06  0.443E-03    8.49       4.4  T
   7    -50.6792731 -0.692973E-07  0.172E-03    8.49      11.4  T
speedup  1.11
cpu  time for SCC    0.01 s
wall time for SCC    0.01 s
speedup  0.99
cpu  time for grad    0.01 s
wall time for grad    0.01 s
 E :    -50.41000814  G :  0.091395    pred/act E change:  0.000D+00 -0.287D-01
Maxdispl :   0.3397   ||displ|| :   0.5288   Lambda : -0.239D-01
Largest |displ|/coords:  0.3397 (  29)  0.2083 (  31)  0.1318 (  33)
................................................................................
.............................. CYCLE    3 ......................................
................................................................................
   1    -50.6859414 -0.506859E+02  0.349E-01    8.59       0.0  T
   2    -50.6865138 -0.572379E-03  0.256E-01    8.61       1.0  T
   3    -50.6867852 -0.271408E-03  0.106E-01    8.60       1.0  T
   4    -50.6868052 -0.200536E-04  0.337E-02    8.60       1.0  T
   5    -50.6868074 -0.217145E-05  0.107E-02    8.60       1.8  T
   6    -50.6868077 -0.235595E-06  0.547E-03    8.60       3.6  T
   7    -50.6868078 -0.995505E-07  0.209E-03    8.60       9.4  T
speedup  0.94
cpu  time for SCC    0.01 s
wall time for SCC    0.01 s
speedup  0.95
cpu  time for grad    0.01 s
wall time for grad    0.01 s
 E :    -50.42945325  G :  0.058798    pred/act E change: -0.203D-01 -0.194D-01
Maxdispl :   0.2351   ||displ|| :   0.4666   Lambda : -0.119D-01
Largest |displ|/coords:  0.2351 (  29)  0.1945 (  31)  0.1427 (  23)
................................................................................
.............................. CYCLE    4 ......................................
................................................................................
   1    -50.6891248 -0.506891E+02  0.323E-01    8.63       0.0  T
   2    -50.6896908 -0.565987E-03  0.233E-01    8.60       1.0  T
   3    -50.6899514 -0.260629E-03  0.102E-01    8.54       1.0  T
   4    -50.6899671 -0.156931E-04  0.323E-02    8.53       1.0  T
   5    -50.6899691 -0.203345E-05  0.997E-03    8.53       2.0  T
   6    -50.6899693 -0.193007E-06  0.504E-03    8.54       3.9  T
   7    -50.6899694 -0.747555E-07  0.181E-03    8.54      10.8  T
speedup  0.81
cpu  time for SCC    0.00 s
wall time for SCC    0.01 s
speedup  0.92
cpu  time for grad    0.01 s
wall time for grad    0.01 s
 E :    -50.43794266  G :  0.045195    pred/act E change: -0.153D-01 -0.849D-02
Maxdispl :   0.1621   ||displ|| :   0.4416   Lambda : -0.602D-02
Largest |displ|/coords:  0.1621 (  23)  0.1463 (   4)  0.1324 (   3)
................................................................................
.............................. CYCLE    5 ......................................
................................................................................
   1    -50.6911028 -0.506911E+02  0.325E-01    8.65       0.0  T
   2    -50.6914532 -0.350452E-03  0.239E-01    8.64       1.0  T
   3    -50.6916048 -0.151565E-03  0.903E-02    8.61       1.0  T
   4    -50.6916224 -0.175798E-04  0.248E-02    8.61       1.0  T
   5    -50.6916247 -0.228564E-05  0.759E-03    8.61       2.6  T
   6    -50.6916248 -0.120023E-06  0.396E-03    8.61       5.0  T
   7    -50.6916248 -0.354835E-07  0.125E-03    8.61      15.6  T
speedup  1.11
cpu  time for SCC    0.01 s
wall time for SCC    0.01 s
speedup  0.95
cpu  time for grad    0.01 s
wall time for grad    0.01 s
 E :    -50.44215316  G :  0.036540    pred/act E change: -0.725D-02 -0.421D-02
Maxdispl :   0.2160   ||displ|| :   0.4617   Lambda : -0.403D-02
Largest |displ|/coords:  0.2160 (   2)  0.1834 (  23)  0.1832 (  10)
................................................................................
.............................. CYCLE    6 ......................................
................................................................................
   1    -50.7028050 -0.507028E+02  0.318E-01    8.77       0.0  T
   2    -50.7030819 -0.276853E-03  0.232E-01    8.77       1.0  T
   3    -50.7032050 -0.123165E-03  0.845E-02    8.77       1.0  T
   4    -50.7032210 -0.159947E-04  0.197E-02    8.78       1.0  T
   5    -50.7032227 -0.170916E-05  0.725E-03    8.78       2.7  T
   6    -50.7032228 -0.849479E-07  0.385E-03    8.78       5.1  T
   7    -50.7032229 -0.219469E-07  0.100E-03    8.78      19.6  T
speedup  1.13
cpu  time for SCC    0.01 s
wall time for SCC    0.01 s
speedup  1.06
cpu  time for grad    0.01 s
wall time for grad    0.01 s
 E :    -50.44359334  G :  0.036543    pred/act E change: -0.360D-02 -0.144D-02
Maxdispl :   0.2417   ||displ|| :   0.5215   Lambda : -0.503D-02
Largest |displ|/coords:  0.2417 (   4)  0.1709 (  23)  0.1689 (   5)
................................................................................
.............................. CYCLE    7 ......................................
................................................................................
   1    -50.6957921 -0.506958E+02  0.662E-01    8.78       0.0  T
   2    -50.6960352 -0.243042E-03  0.498E-01    8.78       1.0  T
   3    -50.6961644 -0.129216E-03  0.847E-02    8.78       1.0  T
   4    -50.6962044 -0.400004E-04  0.179E-02    8.78       1.1  T
   5    -50.6962050 -0.582048E-06  0.781E-03    8.78       2.5  T
   6    -50.6962050 -0.690332E-07  0.400E-03    8.78       4.9  T
   7    -50.6962051 -0.233603E-07  0.110E-03    8.78      17.9  T
speedup  0.87
cpu  time for SCC    0.01 s
wall time for SCC    0.01 s
speedup  0.90
cpu  time for grad    0.01 s
wall time for grad    0.02 s
 E :    -50.44391571  G :  0.048025    pred/act E change: -0.244D-02 -0.322D-03
Maxdispl :   0.1423   ||displ|| :   0.2744   Lambda : -0.497D-02
Largest |displ|/coords:  0.1423 (   4)  0.1156 (  23)  0.0937 (   7)
................................................................................
.............................. CYCLE    8 ......................................
................................................................................
   1    -50.7053360 -0.507053E+02  0.369E-01    8.80       0.0  T
   2    -50.7054188 -0.828565E-04  0.278E-01    8.79       1.0  T
   3    -50.7054643 -0.454989E-04  0.528E-02    8.78       1.0  T
   4    -50.7054766 -0.122962E-04  0.118E-02    8.78       1.7  T
   5    -50.7054771 -0.473530E-06  0.406E-03    8.78       4.8  T
   6    -50.7054771 -0.131543E-07  0.226E-03    8.78       8.7  T
speedup  1.11
cpu  time for SCC    0.01 s
wall time for SCC    0.01 s
speedup  1.05
cpu  time for grad    0.01 s
wall time for grad    0.01 s
 E :    -50.44598619  G :  0.028208    pred/act E change: -0.320D-02 -0.207D-02
Maxdispl :   0.1690   ||displ|| :   0.4081   Lambda : -0.301D-02
Largest |displ|/coords:  0.1690 (   4)  0.1627 (   5)  0.1505 (  19)
................................................................................
.............................. CYCLE    9 ......................................
................................................................................
   1    -50.7034347 -0.507034E+02  0.615E-01    8.71       0.0  T
   2    -50.7036203 -0.185629E-03  0.466E-01    8.70       1.0  T
   3    -50.7037549 -0.134590E-03  0.752E-02    8.66       1.0  T
   4    -50.7037821 -0.271744E-04  0.164E-02    8.67       1.2  T
   5    -50.7037826 -0.492495E-06  0.805E-03    8.67       2.4  T
   6    -50.7037826 -0.554053E-07  0.397E-03    8.67       4.9  T
   7    -50.7037826 -0.291370E-07  0.825E-04    8.67      23.8  T
speedup  0.98
cpu  time for SCC    0.01 s
wall time for SCC    0.01 s
speedup  1.00
cpu  time for grad    0.01 s
wall time for grad    0.01 s
 E :    -50.44283159  G :  0.080367    pred/act E change: -0.267D-02  0.315D-02
Maxdispl :   0.2094   ||displ|| :   0.4964   Lambda : -0.140D-01
Largest |displ|/coords:  0.2094 (   4)  0.1922 (  16)  0.1884 (   5)
................................................................................
.............................. CYCLE   10 ......................................
................................................................................
   1    -50.7072753 -0.507073E+02  0.786E-01    8.66       0.0  T
   2    -50.7075733 -0.297939E-03  0.592E-01    8.65       1.0  T
   3    -50.7077903 -0.217015E-03  0.950E-02    8.63       1.0  T
   4    -50.7078302 -0.399474E-04  0.191E-02    8.63       1.0  T
   5    -50.7078307 -0.471004E-06  0.106E-02    8.63       1.8  T
   6    -50.7078308 -0.137247E-06  0.449E-03    8.63       4.4  T
   7    -50.7078309 -0.382454E-07  0.107E-03    8.63      18.3  T
speedup  0.90
cpu  time for SCC    0.01 s
wall time for SCC    0.01 s
speedup  0.93
cpu  time for grad    0.01 s
wall time for grad    0.01 s
 E :    -50.44522314  G :  0.060318    pred/act E change: -0.176D-02 -0.239D-02
Maxdispl :   0.1585   ||displ|| :   0.3802   Lambda : -0.879D-02
Largest |displ|/coords:  0.1585 (  16)  0.1521 (  19)  0.1336 (  18)
................................................................................
.............................. CYCLE   11 ......................................
................................................................................
   1    -50.7154367 -0.507154E+02  0.594E-01    8.64       0.0  T
   2    -50.7156188 -0.182140E-03  0.449E-01    8.63       1.0  T
   3    -50.7157481 -0.129247E-03  0.762E-02    8.61       1.0  T
   4    -50.7157729 -0.248212E-04  0.177E-02    8.62       1.1  T
   5    -50.7157736 -0.688915E-06  0.773E-03    8.62       2.5  T
   6    -50.7157736 -0.307807E-07  0.389E-03    8.62       5.0  T
   7    -50.7157736 -0.334384E-07  0.726E-04    8.62      27.0  T
speedup  0.92
cpu  time for SCC    0.01 s
wall time for SCC    0.01 s
speedup  0.97
cpu  time for grad    0.01 s
wall time for grad    0.01 s
 E :    -50.44655045  G :  0.049762    pred/act E change: -0.875D-02 -0.133D-02
Maxdispl :   0.1083   ||displ|| :   0.2314   Lambda : -0.241D-02
Largest |displ|/coords:  0.1083 (   7)  0.0847 (   9)  0.0829 (  10)
................................................................................
.............................. CYCLE   12 ......................................
................................................................................
   1    -50.7140388 -0.507140E+02  0.218E-01    8.60       0.0  T
   2    -50.7140611 -0.223250E-04  0.163E-01    8.58       1.0  T
   3    -50.7140746 -0.134825E-04  0.261E-02    8.56       1.0  T
   4    -50.7140780 -0.337075E-05  0.735E-03    8.56       2.7  T
   5    -50.7140781 -0.104918E-06  0.323E-03    8.56       6.1  T
   6    -50.7140781 -0.117594E-07  0.179E-03    8.56      11.0  T
speedup  0.94
cpu  time for SCC    0.00 s
wall time for SCC    0.01 s
speedup  0.98
cpu  time for grad    0.01 s
wall time for grad    0.01 s
 E :    -50.44813553  G :  0.028893    pred/act E change: -0.503D-02 -0.159D-02
Maxdispl :   0.1124   ||displ|| :   0.3026   Lambda : -0.334D-02
Largest |displ|/coords:  0.1124 (   3)  0.1047 (  16)  0.0887 (  18)
................................................................................
.............................. CYCLE   13 ......................................
................................................................................
   1    -50.7174303 -0.507174E+02  0.383E-01    8.56       0.0  T
   2    -50.7175828 -0.152518E-03  0.286E-01    8.52       1.0  T
   3    -50.7176663 -0.834275E-04  0.659E-02    8.44       1.0  T
   4    -50.7176852 -0.189254E-04  0.181E-02    8.45       1.1  T
   5    -50.7176861 -0.885311E-06  0.666E-03    8.45       2.9  T
   6    -50.7176861 -0.545277E-07  0.396E-03    8.45       5.0  T
   7    -50.7176861 -0.214360E-07  0.926E-04    8.45      21.2  T
speedup  0.97
cpu  time for SCC    0.01 s
wall time for SCC    0.01 s
speedup  0.99
cpu  time for grad    0.01 s
wall time for grad    0.01 s
 E :    -50.44895077  G :  0.044652    pred/act E change: -0.127D-02 -0.815D-03
Maxdispl :   0.0667   ||displ|| :   0.1674   Lambda : -0.225D-02
Largest |displ|/coords:  0.0667 (  11)  0.0544 (   7)  0.0538 (   4)
................................................................................
.............................. CYCLE   14 ......................................
................................................................................
   1    -50.7225130 -0.507225E+02  0.188E-01    8.42       0.0  T
   2    -50.7225420 -0.290320E-04  0.140E-01    8.41       1.0  T
   3    -50.7225600 -0.179944E-04  0.296E-02    8.40       1.0  T
   4    -50.7225637 -0.372967E-05  0.785E-03    8.40       2.5  T
   5    -50.7225639 -0.125377E-06  0.326E-03    8.40       6.0  T
   6    -50.7225639 -0.877512E-08  0.172E-03    8.40      11.4  T
speedup  1.13
cpu  time for SCC    0.01 s
wall time for SCC    0.01 s
speedup  1.06
cpu  time for grad    0.01 s
wall time for grad    0.01 s
 E :    -50.45036565  G :  0.018867    pred/act E change: -0.182D-02 -0.141D-02
Maxdispl :   0.1430   ||displ|| :   0.3082   Lambda : -0.195D-02
Largest |displ|/coords:  0.1430 (   3)  0.1033 (   9)  0.0766 (  29)
................................................................................
.............................. CYCLE   15 ......................................
................................................................................
   1    -50.7283334 -0.507283E+02  0.256E-01    8.34       0.0  T
   2    -50.7283926 -0.591601E-04  0.192E-01    8.31       1.0  T
   3    -50.7284303 -0.377747E-04  0.438E-02    8.23       1.0  T
   4    -50.7284377 -0.740966E-05  0.137E-02    8.24       1.4  T
   5    -50.7284383 -0.524965E-06  0.526E-03    8.24       3.7  T
   6    -50.7284383 -0.307223E-07  0.301E-03    8.24       6.5  T
   7    -50.7284383 -0.123592E-07  0.685E-04    8.24      28.6  T
   8    -50.7284383 -0.125132E-08  0.162E-04    8.24     120.8  T
speedup  0.97
cpu  time for SCC    0.01 s
wall time for SCC    0.01 s
speedup  1.00
cpu  time for grad    0.01 s
wall time for grad    0.01 s
 E :    -50.45122733  G :  0.021181    pred/act E change: -0.115D-02 -0.862D-03
Maxdispl :   0.0771   ||displ|| :   0.2389   Lambda : -0.123D-02
Largest |displ|/coords:  0.0771 (  10)  0.0687 (  29)  0.0669 (   7)
................................................................................
.............................. CYCLE   16 ......................................
................................................................................
   1    -50.7362750 -0.507363E+02  0.170E-01    8.15       0.0  T
   2    -50.7363123 -0.373226E-04  0.125E-01    8.13       1.0  T
   3    -50.7363326 -0.203127E-04  0.318E-02    8.08       1.0  T
   4    -50.7363364 -0.382492E-05  0.924E-03    8.08       2.1  T
   5    -50.7363366 -0.224073E-06  0.364E-03    8.08       5.4  T
   6    -50.7363367 -0.147927E-07  0.201E-03    8.08       9.7  T
speedup  0.93
cpu  time for SCC    0.00 s
wall time for SCC    0.01 s
speedup  0.98
cpu  time for grad    0.01 s
wall time for grad    0.01 s
 E :    -50.45172799  G :  0.013669    pred/act E change: -0.107D-02 -0.501D-03
Maxdispl :   0.0538   ||displ|| :   0.1141   Lambda : -0.532D-03
Largest |displ|/coords:  0.0538 (  10)  0.0366 (  12)  0.0298 (   2)
................................................................................
.............................. CYCLE   17 ......................................
................................................................................
   1    -50.7355303 -0.507355E+02  0.970E-02    8.09       0.0  T
   2    -50.7355396 -0.930434E-05  0.735E-02    8.09       1.0  T
   3    -50.7355452 -0.551517E-05  0.186E-02    8.10       1.1  T
   4    -50.7355465 -0.130714E-05  0.572E-03    8.09       3.4  T
   5    -50.7355465 -0.545539E-07  0.210E-03    8.09       9.4  T
   6    -50.7355465 -0.749127E-08  0.117E-03    8.09      16.7  T
speedup  1.11
cpu  time for SCC    0.01 s
wall time for SCC    0.01 s
speedup  1.06
cpu  time for grad    0.01 s
wall time for grad    0.01 s
 E :    -50.45189784  G :  0.008873    pred/act E change: -0.649D-03 -0.170D-03
Maxdispl :   0.0765   ||displ|| :   0.1452   Lambda : -0.368D-03
Largest |displ|/coords:  0.0765 (   2)  0.0690 (   3)  0.0615 (  11)
................................................................................
.............................. CYCLE   18 ......................................
................................................................................
   1    -50.7326755 -0.507327E+02  0.996E-02    8.10       0.0  T
   2    -50.7326791 -0.366543E-05  0.746E-02    8.11       1.0  T
   3    -50.7326823 -0.311779E-05  0.103E-02    8.11       1.9  T
   4    -50.7326827 -0.455649E-06  0.423E-03    8.11       4.6  T
   5    -50.7326827 -0.308797E-07  0.153E-03    8.11      12.8  T
   6    -50.7326827 -0.333662E-08  0.770E-04    8.11      25.5  T
speedup  0.93
cpu  time for SCC    0.01 s
wall time for SCC    0.01 s
speedup  0.98
cpu  time for grad    0.01 s
wall time for grad    0.01 s
 E :    -50.45204968  G :  0.011233    pred/act E change: -0.270D-03 -0.152D-03
Maxdispl :   0.0797   ||displ|| :   0.1467   Lambda : -0.335D-03
Largest |displ|/coords:  0.0797 (   2)  0.0783 (   3)  0.0366 (   8)
................................................................................
.............................. CYCLE   19 ......................................
................................................................................
   1    -50.7350176 -0.507350E+02  0.943E-02    8.08       0.0  T
   2    -50.7350315 -0.138691E-04  0.687E-02    8.07       1.0  T
   3    -50.7350391 -0.766418E-05  0.189E-02    8.04       1.0  T
   4    -50.7350404 -0.126516E-05  0.563E-03    8.04       3.5  T
   5    -50.7350405 -0.537335E-07  0.230E-03    8.04       8.5  T
   6    -50.7350405 -0.611745E-08  0.116E-03    8.04      16.8  T
speedup  0.91
cpu  time for SCC    0.00 s
wall time for SCC    0.01 s
speedup  0.97
cpu  time for grad    0.01 s
wall time for grad    0.01 s
 E :    -50.45215207  G :  0.010494    pred/act E change: -0.188D-03 -0.102D-03
Maxdispl :   0.0515   ||displ|| :   0.1237   Lambda : -0.246D-03
Largest |displ|/coords:  0.0515 (  10)  0.0513 (   2)  0.0472 (   8)
................................................................................
.............................. CYCLE   20 ......................................
................................................................................
   1    -50.7349817 -0.507350E+02  0.629E-02    8.03       0.0  T
   2    -50.7349835 -0.183316E-05  0.471E-02    8.03       1.0  T
   3    -50.7349848 -0.126793E-05  0.806E-03    8.03       2.4  T
   4    -50.7349850 -0.233990E-06  0.339E-03    8.03       5.8  T
   5    -50.7349850 -0.155085E-07  0.907E-04    8.03      21.6  T
   6    -50.7349850 -0.107834E-08  0.530E-04    8.03      37.0  T
speedup  1.11
cpu  time for SCC    0.01 s
wall time for SCC    0.01 s
speedup  1.04
cpu  time for grad    0.01 s
wall time for grad    0.01 s
 E :    -50.45230000  G :  0.008412    pred/act E change: -0.171D-03 -0.148D-03
Maxdispl :   0.0848   ||displ|| :   0.1733   Lambda : -0.190D-03
Largest |displ|/coords:  0.0848 (  10)  0.0632 (   2)  0.0557 (   9)
................................................................................
.............................. CYCLE   21 ......................................
................................................................................
   1    -50.7346099 -0.507346E+02  0.786E-02    8.02       0.0  T
   2    -50.7346118 -0.189208E-05  0.589E-02    8.02       1.0  T
   3    -50.7346135 -0.175371E-05  0.842E-03    8.02       2.3  T
   4    -50.7346137 -0.211364E-06  0.332E-03    8.02       5.9  T
   5    -50.7346137 -0.136295E-07  0.104E-03    8.02      18.9  T
   6    -50.7346137 -0.142497E-08  0.608E-04    8.02      32.3  T
speedup  1.11
cpu  time for SCC    0.01 s
wall time for SCC    0.01 s
speedup  1.05
cpu  time for grad    0.01 s
wall time for grad    0.01 s
 E :    -50.45241103  G :  0.004895    pred/act E change: -0.125D-03 -0.111D-03
Maxdispl :   0.1212   ||displ|| :   0.2452   Lambda : -0.181D-03
Largest |displ|/coords:  0.1212 (   2)  0.1132 (   6)  0.0846 (   8)
................................................................................
.............................. CYCLE   22 ......................................
................................................................................
   1    -50.7350929 -0.507351E+02  0.104E-01    8.03       0.0  T
   2    -50.7350961 -0.317565E-05  0.779E-02    8.02       1.0  T
   3    -50.7350985 -0.243975E-05  0.111E-02    8.01       1.8  T
   4    -50.7350989 -0.398380E-06  0.455E-03    8.02       4.3  T
   5    -50.7350990 -0.192202E-07  0.120E-03    8.02      16.4  T
   6    -50.7350990 -0.163431E-08  0.710E-04    8.02      27.6  T
speedup  1.11
cpu  time for SCC    0.01 s
wall time for SCC    0.01 s
speedup  1.05
cpu  time for grad    0.01 s
wall time for grad    0.01 s
 E :    -50.45250758  G :  0.008584    pred/act E change: -0.976D-04 -0.965D-04
Maxdispl :   0.1063   ||displ|| :   0.2370   Lambda : -0.174D-03
Largest |displ|/coords:  0.1063 (   2)  0.1007 (   6)  0.0767 (  11)
................................................................................
.............................. CYCLE   23 ......................................
................................................................................
   1    -50.7342137 -0.507342E+02  0.111E-01    8.01       0.0  T
   2    -50.7342166 -0.288297E-05  0.829E-02    8.01       1.0  T
   3    -50.7342186 -0.202558E-05  0.115E-02    7.99       1.7  T
   4    -50.7342190 -0.355488E-06  0.456E-03    8.00       4.3  T
   5    -50.7342190 -0.211597E-07  0.107E-03    8.00      18.4  T
   6    -50.7342190 -0.161613E-08  0.676E-04    8.00      29.0  T
speedup  0.93
cpu  time for SCC    0.00 s
wall time for SCC    0.01 s
speedup  0.98
cpu  time for grad    0.01 s
wall time for grad    0.01 s
 E :    -50.45261072  G :  0.008139    pred/act E change: -0.961D-04 -0.103D-03
Maxdispl :   0.0763   ||displ|| :   0.1411   Lambda : -0.140D-03
Largest |displ|/coords:  0.0763 (   6)  0.0674 (   7)  0.0520 (  11)
................................................................................
.............................. CYCLE   24 ......................................
................................................................................
   1    -50.7365010 -0.507365E+02  0.587E-02    8.02       0.0  T
   2    -50.7365024 -0.142796E-05  0.432E-02    8.01       1.0  T
   3    -50.7365033 -0.858366E-06  0.779E-03    8.01       2.5  T
   4    -50.7365034 -0.168262E-06  0.218E-03    8.01       9.0  T
   5    -50.7365035 -0.690585E-08  0.642E-04    8.01      30.6  T
speedup  0.87
cpu  time for SCC    0.00 s
wall time for SCC    0.00 s
speedup  0.96
cpu  time for grad    0.01 s
wall time for grad    0.01 s
 E :    -50.45269189  G :  0.005198    pred/act E change: -0.917D-04 -0.812D-04
Maxdispl :   0.0897   ||displ|| :   0.1665   Lambda : -0.109D-03
Largest |displ|/coords:  0.0897 (   6)  0.0821 (  11)  0.0491 (   7)
................................................................................
.............................. CYCLE   25 ......................................
................................................................................
   1    -50.7358040 -0.507358E+02  0.959E-02    8.03       0.0  T
   2    -50.7358062 -0.216392E-05  0.722E-02    8.02       1.0  T
   3    -50.7358081 -0.197840E-05  0.887E-03    8.02       2.2  T
   4    -50.7358084 -0.224875E-06  0.311E-03    8.02       6.3  T
   5    -50.7358084 -0.902103E-08  0.953E-04    8.02      20.6  T
   6    -50.7358084 -0.121595E-08  0.542E-04    8.02      36.2  T
speedup  0.93
cpu  time for SCC    0.01 s
wall time for SCC    0.01 s
speedup  0.98
cpu  time for grad    0.01 s
wall time for grad    0.01 s
 E :    -50.45274939  G :  0.007749    pred/act E change: -0.716D-04 -0.575D-04
Maxdispl :   0.0698   ||displ|| :   0.1440   Lambda : -0.101D-03
Largest |displ|/coords:  0.0698 (   6)  0.0634 (   7)  0.0604 (   1)

generating ANC from model Hessian ...
 Shifting diagonal of input Hessian by   4.904047463197812E-003
 Lowest  eigenvalues of input Hessian
   -0.000000   -0.000000   -0.000000    0.000000    0.000000    0.000000
    0.005000    0.005112    0.005257    0.005305    0.005676    0.006105
    0.006463    0.006778    0.007226    0.007691    0.009172    0.009484
 Highest eigenvalues
    1.372200    1.408169    1.420016    2.856358    3.419096    3.611858
 
cpu  time for ANC gen    0.01 s
wall time for ANC gen    0.01 s
................................................................................
.............................. CYCLE   26 ......................................
................................................................................
   1    -50.7354349 -0.507354E+02  0.742E-02    8.03       0.0  T
   2    -50.7354361 -0.118317E-05  0.559E-02    8.03       1.0  T
   3    -50.7354372 -0.117760E-05  0.632E-03    8.04       3.1  T
   4    -50.7354374 -0.108878E-06  0.187E-03    8.03      10.5  T
   5    -50.7354374 -0.373515E-08  0.773E-04    8.03      25.4  T
   6    -50.7354374 -0.790997E-09  0.403E-04    8.03      48.7  T
speedup  0.94
cpu  time for SCC    0.00 s
wall time for SCC    0.01 s
speedup  0.99
cpu  time for grad    0.01 s
wall time for grad    0.01 s
 E :    -50.45281367  G :  0.006664    pred/act E change:  0.000D+00 -0.643D-04
Maxdispl :   0.0533   ||displ|| :   0.1067   Lambda : -0.173D-03
Largest |displ|/coords:  0.0533 (  16)  0.0516 (   2)  0.0434 (  14)
................................................................................
.............................. CYCLE   27 ......................................
................................................................................
   1    -50.7357620 -0.507358E+02  0.112E-01    8.02       0.0  T
   2    -50.7357637 -0.170948E-05  0.851E-02    8.02       1.0  T
   3    -50.7357656 -0.191262E-05  0.625E-03    8.02       3.1  T
   4    -50.7357658 -0.123673E-06  0.216E-03    8.02       9.1  T
   5    -50.7357658 -0.347543E-08  0.864E-04    8.02      22.7  T
speedup  0.87
cpu  time for SCC    0.00 s
wall time for SCC    0.00 s
speedup  0.95
cpu  time for grad    0.01 s
wall time for grad    0.01 s
 E :    -50.45295139  G :  0.004218    pred/act E change:  0.000D+00 -0.138D-03
Maxdispl :   0.1941   ||displ|| :   0.3142   Lambda : -0.312D-03
Largest |displ|/coords:  0.1941 (   2)  0.1408 (  16)  0.0957 (  14)
................................................................................
.............................. CYCLE   28 ......................................
................................................................................
   1    -50.7333456 -0.507333E+02  0.280E-01    7.99       0.0  T
   2    -50.7333556 -0.100099E-04  0.211E-01    8.00       1.0  T
   3    -50.7333656 -0.996217E-05  0.171E-02    8.01       1.1  T
   4    -50.7333666 -0.103236E-05  0.554E-03    8.01       3.5  T
   5    -50.7333666 -0.224347E-07  0.267E-03    8.01       7.3  T
   6    -50.7333666 -0.728523E-08  0.103E-03    8.01      19.1  T
speedup  0.94
cpu  time for SCC    0.00 s
wall time for SCC    0.01 s
speedup  0.98
cpu  time for grad    0.01 s
wall time for grad    0.01 s
 E :    -50.45309253  G :  0.012433    pred/act E change: -0.873D-04 -0.141D-03
Maxdispl :   0.0326   ||displ|| :   0.0640   Lambda : -0.165D-03
Largest |displ|/coords:  0.0326 (   9)  0.0324 (   1)  0.0196 (  10)
................................................................................
.............................. CYCLE   29 ......................................
................................................................................
   1    -50.7349986 -0.507350E+02  0.471E-02    8.02       0.0  T
   2    -50.7350000 -0.137824E-05  0.354E-02    8.02       1.0  T
   3    -50.7350012 -0.117027E-05  0.650E-03    8.02       3.0  T
   4    -50.7350013 -0.173235E-06  0.168E-03    8.02      11.6  T
   5    -50.7350013 -0.319854E-08  0.750E-04    8.02      26.1  T
speedup  0.89
cpu  time for SCC    0.00 s
wall time for SCC    0.00 s
speedup  0.97
cpu  time for grad    0.01 s
wall time for grad    0.01 s
 E :    -50.45319001  G :  0.003492    pred/act E change: -0.172D-03 -0.975D-04
Maxdispl :   0.0993   ||displ|| :   0.1819   Lambda : -0.113D-03
Largest |displ|/coords:  0.0993 (   2)  0.0903 (   1)  0.0721 (  16)
................................................................................
.............................. CYCLE   30 ......................................
................................................................................
   1    -50.7342687 -0.507343E+02  0.135E-01    8.01       0.0  T
   2    -50.7342712 -0.248812E-05  0.102E-01    8.01       1.0  T
   3    -50.7342738 -0.268354E-05  0.915E-03    8.02       2.1  T
   4    -50.7342741 -0.208893E-06  0.325E-03    8.02       6.0  T
   5    -50.7342741 -0.963580E-08  0.117E-03    8.02      16.7  T
   6    -50.7342741 -0.125634E-08  0.589E-04    8.02      33.3  T
   7    -50.7342741 -0.690520E-09  0.126E-04    8.02     156.1  T
speedup  0.97
cpu  time for SCC    0.01 s
wall time for SCC    0.01 s
speedup  0.96
cpu  time for grad    0.01 s
wall time for grad    0.01 s
 E :    -50.45327463  G :  0.004209    pred/act E change: -0.829D-04 -0.846D-04
Maxdispl :   0.2039   ||displ|| :   0.3188   Lambda : -0.165D-03
Largest |displ|/coords:  0.2039 (   2)  0.1527 (   1)  0.0955 (  16)
................................................................................
.............................. CYCLE   31 ......................................
................................................................................
   1    -50.7323691 -0.507324E+02  0.224E-01    8.00       0.0  T
   2    -50.7323753 -0.616038E-05  0.168E-01    8.00       1.0  T
   3    -50.7323822 -0.688024E-05  0.156E-02    8.02       1.3  T
   4    -50.7323826 -0.464872E-06  0.508E-03    8.01       3.9  T
   5    -50.7323827 -0.267155E-07  0.211E-03    8.01       9.3  T
   6    -50.7323827 -0.510249E-08  0.994E-04    8.01      19.7  T
speedup  0.91
cpu  time for SCC    0.00 s
wall time for SCC    0.01 s
speedup  0.97
cpu  time for grad    0.01 s
wall time for grad    0.01 s
 E :    -50.45335306  G :  0.009298    pred/act E change: -0.582D-04 -0.784D-04
Maxdispl :   0.1158   ||displ|| :   0.1688   Lambda : -0.143D-03
Largest |displ|/coords:  0.1158 (   1)  0.0956 (   2)  0.0345 (  10)
................................................................................
.............................. CYCLE   32 ......................................
................................................................................
   1    -50.7327464 -0.507327E+02  0.948E-02    8.01       0.0  T
   2    -50.7327491 -0.274927E-05  0.711E-02    8.01       1.0  T
   3    -50.7327517 -0.254157E-05  0.979E-03    8.01       2.0  T
   4    -50.7327520 -0.286025E-06  0.287E-03    8.01       6.8  T
   5    -50.7327520 -0.114186E-07  0.121E-03    8.01      16.2  T
speedup  0.91
cpu  time for SCC    0.00 s
wall time for SCC    0.00 s
speedup  0.98
cpu  time for grad    0.01 s
wall time for grad    0.01 s
 E :    -50.45340568  G :  0.008103    pred/act E change: -0.908D-04 -0.526D-04
Maxdispl :   0.0686   ||displ|| :   0.1176   Lambda : -0.170D-03
Largest |displ|/coords:  0.0686 (   1)  0.0411 (   4)  0.0398 (   2)
................................................................................
.............................. CYCLE   33 ......................................
................................................................................
   1    -50.7357170 -0.507357E+02  0.684E-02    8.02       0.0  T
   2    -50.7357203 -0.335392E-05  0.510E-02    8.02       1.0  T
   3    -50.7357226 -0.228782E-05  0.106E-02    8.02       1.9  T
   4    -50.7357230 -0.398716E-06  0.271E-03    8.02       7.2  T
   5    -50.7357230 -0.111860E-07  0.111E-03    8.02      17.7  T
speedup  0.85
cpu  time for SCC    0.00 s
wall time for SCC    0.00 s
speedup  0.95
cpu  time for grad    0.01 s
wall time for grad    0.01 s
 E :    -50.45344052  G :  0.010135    pred/act E change: -0.733D-04 -0.348D-04
Maxdispl :   0.1721   ||displ|| :   0.2830   Lambda : -0.211D-03
Largest |displ|/coords:  0.1721 (   2)  0.1564 (   1)  0.0745 (  16)
................................................................................
.............................. CYCLE   34 ......................................
................................................................................
   1    -50.7324266 -0.507324E+02  0.195E-01    8.00       0.0  T
   2    -50.7324345 -0.796843E-05  0.148E-01    8.00       1.0  T
   3    -50.7324417 -0.716403E-05  0.157E-02    8.01       1.3  T
   4    -50.7324426 -0.939913E-06  0.438E-03    8.01       4.5  T
   5    -50.7324427 -0.181032E-07  0.213E-03    8.01       9.2  T
   6    -50.7324427 -0.550341E-08  0.901E-04    8.01      21.8  T
speedup  0.93
cpu  time for SCC    0.01 s
wall time for SCC    0.01 s
speedup  0.98
cpu  time for grad    0.01 s
wall time for grad    0.01 s
 E :    -50.45351382  G :  0.008948    pred/act E change: -0.863D-04 -0.733D-04
Maxdispl :   0.0288   ||displ|| :   0.0596   Lambda : -0.128D-03
Largest |displ|/coords:  0.0288 (   4)  0.0237 (   6)  0.0190 (   1)
................................................................................
.............................. CYCLE   35 ......................................
................................................................................
   1    -50.7334186 -0.507334E+02  0.511E-02    8.01       0.0  T
   2    -50.7334201 -0.149603E-05  0.382E-02    8.01       1.0  T
   3    -50.7334209 -0.784482E-06  0.693E-03    8.01       2.8  T
   4    -50.7334211 -0.211784E-06  0.169E-03    8.01      11.6  T
   5    -50.7334211 -0.812708E-08  0.502E-04    8.01      39.1  T
speedup  0.89
cpu  time for SCC    0.00 s
wall time for SCC    0.00 s
speedup  0.97
cpu  time for grad    0.01 s
wall time for grad    0.01 s
 E :    -50.45357957  G :  0.002847    pred/act E change: -0.114D-03 -0.658D-04
Maxdispl :   0.1377   ||displ|| :   0.2049   Lambda : -0.604D-04
Largest |displ|/coords:  0.1377 (   1)  0.0950 (   2)  0.0726 (   4)
................................................................................
.............................. CYCLE   36 ......................................
................................................................................
   1    -50.7330105 -0.507330E+02  0.938E-02    8.01       0.0  T
   2    -50.7330118 -0.122732E-05  0.706E-02    8.01       1.0  T
   3    -50.7330132 -0.146992E-05  0.708E-03    8.01       2.8  T
   4    -50.7330133 -0.828099E-07  0.258E-03    8.01       7.6  T
   5    -50.7330133 -0.795894E-08  0.830E-04    8.01      23.6  T
   6    -50.7330133 -0.965180E-09  0.435E-04    8.01      45.1  T
speedup  0.93
cpu  time for SCC    0.00 s
wall time for SCC    0.01 s
speedup  1.01
cpu  time for grad    0.01 s
wall time for grad    0.01 s
 E :    -50.45362684  G :  0.002784    pred/act E change: -0.641D-04 -0.473D-04
Maxdispl :   0.2728   ||displ|| :   0.4043   Lambda : -0.106D-03
Largest |displ|/coords:  0.2728 (   1)  0.1690 (   4)  0.1513 (   2)
................................................................................
.............................. CYCLE   37 ......................................
................................................................................
   1    -50.7326926 -0.507327E+02  0.179E-01    8.01       0.0  T
   2    -50.7326975 -0.486868E-05  0.135E-01    8.01       1.0  T
   3    -50.7327033 -0.579829E-05  0.134E-02    8.01       1.5  T
   4    -50.7327036 -0.340929E-06  0.515E-03    8.01       3.8  T
   5    -50.7327037 -0.294697E-07  0.166E-03    8.01      11.8  T
   6    -50.7327037 -0.341009E-08  0.894E-04    8.01      21.9  T
   7    -50.7327037 -0.161833E-08  0.232E-04    8.01      84.5  T
speedup  1.11
cpu  time for SCC    0.01 s
wall time for SCC    0.01 s
speedup  1.02
cpu  time for grad    0.01 s
wall time for grad    0.01 s
 E :    -50.45369797  G :  0.003903    pred/act E change: -0.314D-04 -0.711D-04
Maxdispl :   0.1860   ||displ|| :   0.2589   Lambda : -0.719D-04
Largest |displ|/coords:  0.1860 (   1)  0.1200 (   4)  0.0548 (   8)
................................................................................
.............................. CYCLE   38 ......................................
................................................................................
   1    -50.7339891 -0.507340E+02  0.946E-02    8.02       0.0  T
   2    -50.7339909 -0.178457E-05  0.714E-02    8.01       1.0  T
   3    -50.7339928 -0.189159E-05  0.824E-03    8.01       2.4  T
   4    -50.7339930 -0.174368E-06  0.343E-03    8.01       5.7  T
   5    -50.7339930 -0.144196E-07  0.102E-03    8.01      19.3  T
   6    -50.7339930 -0.127009E-08  0.626E-04    8.01      31.3  T
   7    -50.7339930 -0.757019E-09  0.140E-04    8.01     140.6  T
speedup  0.94
cpu  time for SCC    0.01 s
wall time for SCC    0.01 s
speedup  0.95
cpu  time for grad    0.01 s
wall time for grad    0.01 s
 E :    -50.45374099  G :  0.005066    pred/act E change: -0.617D-04 -0.430D-04
Maxdispl :   0.3569   ||displ|| :   0.5119   Lambda : -0.104D-03
Largest |displ|/coords:  0.3569 (   1)  0.2199 (   4)  0.1314 (   2)
................................................................................
.............................. CYCLE   39 ......................................
................................................................................
   1    -50.7301602 -0.507302E+02  0.224E-01    7.98       0.0  T
   2    -50.7301690 -0.880051E-05  0.169E-01    7.98       1.0  T
   3    -50.7301780 -0.901325E-05  0.187E-02    7.99       1.0  T
   4    -50.7301789 -0.884574E-06  0.633E-03    7.98       3.1  T
   5    -50.7301789 -0.519931E-07  0.245E-03    7.98       8.0  T
   6    -50.7301789 -0.754524E-08  0.126E-03    7.98      15.6  T
speedup  0.94
cpu  time for SCC    0.01 s
wall time for SCC    0.01 s
speedup  0.97
cpu  time for grad    0.01 s
wall time for grad    0.01 s
 E :    -50.45376092  G :  0.008446    pred/act E change: -0.383D-04 -0.199D-04
Maxdispl :   0.0842   ||displ|| :   0.1106   Lambda : -0.147D-03
Largest |displ|/coords:  0.0842 (   2)  0.0439 (   1)  0.0285 (   7)
................................................................................
.............................. CYCLE   40 ......................................
................................................................................
   1    -50.7339040 -0.507339E+02  0.624E-02    8.01       0.0  T
   2    -50.7339055 -0.151106E-05  0.462E-02    8.01       1.0  T
   3    -50.7339064 -0.896470E-06  0.724E-03    8.00       2.7  T
   4    -50.7339066 -0.212231E-06  0.194E-03    8.01      10.1  T
   5    -50.7339066 -0.581097E-08  0.754E-04    8.01      26.0  T
speedup  0.89
cpu  time for SCC    0.00 s
wall time for SCC    0.00 s
speedup  0.97
cpu  time for grad    0.01 s
wall time for grad    0.01 s
 E :    -50.45382488  G :  0.003852    pred/act E change: -0.654D-04 -0.640D-04
Maxdispl :   0.0825   ||displ|| :   0.1270   Lambda : -0.577D-04
Largest |displ|/coords:  0.0825 (   1)  0.0684 (   4)  0.0374 (   7)
................................................................................
.............................. CYCLE   41 ......................................
................................................................................
   1    -50.7337475 -0.507337E+02  0.559E-02    7.99       0.0  T
   2    -50.7337481 -0.648781E-06  0.419E-02    8.00       1.0  T
   3    -50.7337487 -0.603141E-06  0.500E-03    8.00       3.9  T
   4    -50.7337488 -0.843000E-07  0.165E-03    8.00      11.9  T
   5    -50.7337488 -0.384654E-08  0.657E-04    8.00      29.8  T
   6    -50.7337488 -0.762078E-09  0.298E-04    8.00      65.9  T
speedup  0.93
cpu  time for SCC    0.00 s
wall time for SCC    0.01 s
speedup  1.01
cpu  time for grad    0.01 s
wall time for grad    0.01 s
 E :    -50.45385404  G :  0.005476    pred/act E change: -0.742D-04 -0.292D-04
Maxdispl :   0.2124   ||displ|| :   0.3095   Lambda : -0.627D-04
Largest |displ|/coords:  0.2124 (   1)  0.1647 (   4)  0.0779 (   8)
................................................................................
.............................. CYCLE   42 ......................................
................................................................................
   1    -50.7328201 -0.507328E+02  0.121E-01    7.99       0.0  T
   2    -50.7328228 -0.264220E-05  0.916E-02    7.98       1.0  T
   3    -50.7328256 -0.283968E-05  0.106E-02    7.98       1.9  T
   4    -50.7328258 -0.254213E-06  0.348E-03    7.98       5.6  T
   5    -50.7328259 -0.171852E-07  0.123E-03    7.98      15.9  T
   6    -50.7328259 -0.197987E-08  0.689E-04    7.98      28.5  T
speedup  1.09
cpu  time for SCC    0.01 s
wall time for SCC    0.01 s
speedup  1.04
cpu  time for grad    0.01 s
wall time for grad    0.01 s
 E :    -50.45389148  G :  0.004011    pred/act E change: -0.293D-04 -0.374D-04
Maxdispl :   0.1164   ||displ|| :   0.1811   Lambda : -0.415D-04
Largest |displ|/coords:  0.1164 (   1)  0.1009 (   4)  0.0403 (   8)
................................................................................
.............................. CYCLE   43 ......................................
................................................................................
   1    -50.7333221 -0.507333E+02  0.663E-02    7.98       0.0  T
   2    -50.7333228 -0.689502E-06  0.499E-02    7.98       1.0  T
   3    -50.7333235 -0.750577E-06  0.529E-03    7.97       3.7  T
   4    -50.7333236 -0.605293E-07  0.210E-03    7.97       9.3  T
   5    -50.7333236 -0.518650E-08  0.597E-04    7.97      32.8  T
speedup  1.06
cpu  time for SCC    0.00 s
wall time for SCC    0.00 s
speedup  1.03
cpu  time for grad    0.01 s
wall time for grad    0.01 s
 E :    -50.45391303  G :  0.003026    pred/act E change: -0.344D-04 -0.216D-04
Maxdispl :   0.1077   ||displ|| :   0.1941   Lambda : -0.579D-04
Largest |displ|/coords:  0.1077 (   4)  0.1042 (   1)  0.0700 (   8)
................................................................................
.............................. CYCLE   44 ......................................
................................................................................
   1    -50.7341759 -0.507342E+02  0.890E-02    7.99       0.0  T
   2    -50.7341770 -0.118510E-05  0.670E-02    7.98       1.0  T
   3    -50.7341781 -0.104957E-05  0.651E-03    7.98       3.0  T
   4    -50.7341782 -0.146449E-06  0.205E-03    7.98       9.6  T
   5    -50.7341782 -0.564655E-08  0.845E-04    7.98      23.2  T
   6    -50.7341782 -0.987612E-09  0.460E-04    7.98      42.6  T
speedup  1.09
cpu  time for SCC    0.01 s
wall time for SCC    0.01 s
speedup  1.00
cpu  time for grad    0.01 s
wall time for grad    0.01 s
 E :    -50.45393173  G :  0.005693    pred/act E change: -0.214D-04 -0.187D-04
Maxdispl :   0.0657   ||displ|| :   0.0974   Lambda : -0.689D-04
Largest |displ|/coords:  0.0657 (   4)  0.0432 (   2)  0.0293 (   1)
................................................................................
.............................. CYCLE   45 ......................................
................................................................................
   1    -50.7357692 -0.507358E+02  0.536E-02    8.00       0.0  T
   2    -50.7357703 -0.104903E-05  0.401E-02    8.00       1.0  T
   3    -50.7357710 -0.745601E-06  0.584E-03    7.99       3.4  T
   4    -50.7357712 -0.147062E-06  0.158E-03    7.99      12.4  T
   5    -50.7357712 -0.371160E-08  0.717E-04    7.99      27.4  T
speedup  0.91
cpu  time for SCC    0.00 s
wall time for SCC    0.00 s
speedup  0.97
cpu  time for grad    0.01 s
wall time for grad    0.01 s
 E :    -50.45394108  G :  0.006535    pred/act E change: -0.301D-04 -0.935D-05
Maxdispl :   0.1097   ||displ|| :   0.1798   Lambda : -0.808D-04
Largest |displ|/coords:  0.1097 (   4)  0.1087 (   1)  0.0423 (   6)
................................................................................
.............................. CYCLE   46 ......................................
................................................................................
   1    -50.7339480 -0.507339E+02  0.778E-02    7.97       0.0  T
   2    -50.7339497 -0.166443E-05  0.583E-02    7.97       1.0  T
   3    -50.7339509 -0.122224E-05  0.823E-03    7.97       2.4  T
   4    -50.7339511 -0.228512E-06  0.246E-03    7.97       8.0  T
   5    -50.7339512 -0.109201E-07  0.910E-04    7.97      21.6  T
speedup  0.87
cpu  time for SCC    0.00 s
wall time for SCC    0.00 s
speedup  1.02
cpu  time for grad    0.01 s
wall time for grad    0.01 s
 E :    -50.45396920  G :  0.005735    pred/act E change: -0.348D-04 -0.281D-04
Maxdispl :   0.0608   ||displ|| :   0.0894   Lambda : -0.689D-04
Largest |displ|/coords:  0.0608 (   4)  0.0366 (   1)  0.0228 (  12)
................................................................................
.............................. CYCLE   47 ......................................
................................................................................
   1    -50.7352447 -0.507352E+02  0.527E-02    7.96       0.0  T
   2    -50.7352456 -0.859912E-06  0.400E-02    7.96       1.0  T
   3    -50.7352465 -0.947624E-06  0.526E-03    7.97       3.7  T
   4    -50.7352466 -0.808782E-07  0.189E-03    7.97      10.4  T
   5    -50.7352466 -0.455708E-08  0.612E-04    7.97      32.0  T
speedup  1.09
cpu  time for SCC    0.00 s
wall time for SCC    0.00 s
speedup  1.04
cpu  time for grad    0.01 s
wall time for grad    0.01 s
 E :    -50.45399287  G :  0.004920    pred/act E change: -0.417D-04 -0.237D-04
Maxdispl :   0.1089   ||displ|| :   0.1654   Lambda : -0.498D-04
Largest |displ|/coords:  0.1089 (   1)  0.0918 (   4)  0.0415 (   6)
................................................................................
.............................. CYCLE   48 ......................................
................................................................................
   1    -50.7344391 -0.507344E+02  0.661E-02    7.96       0.0  T
   2    -50.7344399 -0.747726E-06  0.497E-02    7.96       1.0  T
   3    -50.7344406 -0.722186E-06  0.536E-03    7.96       3.7  T
   4    -50.7344407 -0.775045E-07  0.202E-03    7.96       9.7  T
   5    -50.7344407 -0.498542E-08  0.607E-04    7.96      32.3  T
speedup  1.28
cpu  time for SCC    0.01 s
wall time for SCC    0.00 s
speedup  1.02
cpu  time for grad    0.01 s
wall time for grad    0.01 s
 E :    -50.45402494  G :  0.004106    pred/act E change: -0.347D-04 -0.321D-04
Maxdispl :   0.1041   ||displ|| :   0.1919   Lambda : -0.725D-04
Largest |displ|/coords:  0.1041 (   4)  0.0929 (   1)  0.0679 (   5)
................................................................................
.............................. CYCLE   49 ......................................
................................................................................
   1    -50.7347877 -0.507348E+02  0.987E-02    7.98       0.0  T
   2    -50.7347887 -0.104960E-05  0.744E-02    7.97       1.0  T
   3    -50.7347898 -0.104353E-05  0.599E-03    7.97       3.3  T
   4    -50.7347899 -0.104317E-06  0.213E-03    7.97       9.2  T
   5    -50.7347899 -0.388710E-08  0.770E-04    7.97      25.5  T
speedup  0.89
cpu  time for SCC    0.00 s
wall time for SCC    0.00 s
speedup  0.97
cpu  time for grad    0.01 s
wall time for grad    0.01 s
 E :    -50.45406352  G :  0.003508    pred/act E change: -0.256D-04 -0.386D-04
Maxdispl :   0.1687   ||displ|| :   0.2743   Lambda : -0.658D-04
Largest |displ|/coords:  0.1687 (   1)  0.1488 (   4)  0.0701 (   6)
................................................................................
.............................. CYCLE   50 ......................................
................................................................................
   1    -50.7335399 -0.507335E+02  0.119E-01    7.96       0.0  T
   2    -50.7335413 -0.135494E-05  0.894E-02    7.96       1.0  T
   3    -50.7335427 -0.142304E-05  0.728E-03    7.95       2.7  T
   4    -50.7335428 -0.115290E-06  0.302E-03    7.95       6.5  T
   5    -50.7335428 -0.732260E-08  0.866E-04    7.95      22.6  T
   6    -50.7335428 -0.820364E-09  0.495E-04    7.95      39.6  T
speedup  0.91
cpu  time for SCC    0.00 s
wall time for SCC    0.01 s
speedup  1.00
cpu  time for grad    0.01 s
wall time for grad    0.01 s
 E :    -50.45410640  G :  0.003751    pred/act E change: -0.376D-04 -0.429D-04
Maxdispl :   0.0551   ||displ|| :   0.1352   Lambda : -0.739D-04
Largest |displ|/coords:  0.0551 (   2)  0.0517 (  16)  0.0477 (   6)
................................................................................
.............................. CYCLE   51 ......................................
................................................................................
   1    -50.7346379 -0.507346E+02  0.977E-02    7.95       0.0  T
   2    -50.7346393 -0.142895E-05  0.738E-02    7.95       1.0  T
   3    -50.7346409 -0.159750E-05  0.656E-03    7.95       3.0  T
   4    -50.7346410 -0.109229E-06  0.265E-03    7.95       7.4  T
   5    -50.7346410 -0.598547E-08  0.799E-04    7.95      24.6  T
   6    -50.7346410 -0.778911E-09  0.377E-04    7.95      52.0  T
speedup  1.11
cpu  time for SCC    0.01 s
wall time for SCC    0.01 s
speedup  0.99
cpu  time for grad    0.01 s
wall time for grad    0.01 s
 E :    -50.45413853  G :  0.005101    pred/act E change: -0.354D-04 -0.321D-04
Maxdispl :   0.1756   ||displ|| :   0.2750   Lambda : -0.607D-04
Largest |displ|/coords:  0.1756 (   1)  0.1263 (   4)  0.0743 (   2)
................................................................................
.............................. CYCLE   52 ......................................
................................................................................
   1    -50.7334595 -0.507335E+02  0.115E-01    7.96       0.0  T
   2    -50.7334609 -0.136616E-05  0.860E-02    7.95       1.0  T
   3    -50.7334622 -0.129333E-05  0.685E-03    7.95       2.9  T
   4    -50.7334623 -0.129067E-06  0.255E-03    7.95       7.7  T
   5    -50.7334623 -0.548609E-08  0.851E-04    7.95      23.1  T
speedup  1.06
cpu  time for SCC    0.00 s
wall time for SCC    0.00 s
speedup  1.00
cpu  time for grad    0.01 s
wall time for grad    0.01 s
 E :    -50.45416187  G :  0.004468    pred/act E change: -0.376D-04 -0.233D-04
Maxdispl :   0.0290   ||displ|| :   0.0682   Lambda : -0.453D-04
Largest |displ|/coords:  0.0290 (   8)  0.0288 (   4)  0.0234 (   1)

generating ANC from model Hessian ...
 Shifting diagonal of input Hessian by   4.911138361857788E-003
 Lowest  eigenvalues of input Hessian
   -0.000000   -0.000000   -0.000000   -0.000000    0.000000    0.000000
    0.005000    0.005097    0.005105    0.005294    0.005689    0.005937
    0.006404    0.006508    0.007205    0.007464    0.008924    0.009464
 Highest eigenvalues
    1.375865    1.409669    1.411942    2.852027    3.413850    3.596519
 
cpu  time for ANC gen    0.01 s
wall time for ANC gen    0.01 s
................................................................................
.............................. CYCLE   53 ......................................
................................................................................
   1    -50.7345929 -0.507346E+02  0.383E-02    7.97       0.0  T
   2    -50.7345932 -0.313947E-06  0.283E-02    7.97       1.0  T
   3    -50.7345935 -0.225688E-06  0.378E-03    7.97       5.2  T
   4    -50.7345935 -0.323822E-07  0.115E-03    7.97      17.1  T
   5    -50.7345935 -0.158990E-08  0.330E-04    7.97      59.4  T
   6    -50.7345935 -0.165102E-09  0.199E-04    7.97      98.3  T
speedup  0.93
cpu  time for SCC    0.00 s
wall time for SCC    0.01 s
speedup  1.01
cpu  time for grad    0.01 s
wall time for grad    0.01 s
 E :    -50.45418758  G :  0.002025    pred/act E change:  0.000D+00 -0.257D-04
Maxdispl :   0.0192   ||displ|| :   0.0432   Lambda : -0.216D-04
Largest |displ|/coords:  0.0192 (   1)  0.0181 (   7)  0.0143 (   8)
................................................................................
.............................. CYCLE   54 ......................................
................................................................................
   1    -50.7348564 -0.507349E+02  0.328E-02    7.98       0.0  T
   2    -50.7348566 -0.138203E-06  0.246E-02    7.98       1.0  T
   3    -50.7348567 -0.156543E-06  0.212E-03    7.98       9.2  T
   4    -50.7348567 -0.773200E-08  0.789E-04    7.98      24.9  T
   5    -50.7348567 -0.597730E-09  0.270E-04    7.98      72.8  T
speedup  1.11
cpu  time for SCC    0.00 s
wall time for SCC    0.00 s
speedup  1.00
cpu  time for grad    0.01 s
wall time for grad    0.01 s
 E :    -50.45420420  G :  0.001191    pred/act E change:  0.000D+00 -0.166D-04
Maxdispl :   0.0561   ||displ|| :   0.1219   Lambda : -0.381D-04
Largest |displ|/coords:  0.0561 (   1)  0.0505 (   3)  0.0491 (   2)
................................................................................
.............................. CYCLE   55 ......................................
................................................................................
   1    -50.7349581 -0.507350E+02  0.843E-02    7.98       0.0  T
   2    -50.7349589 -0.862878E-06  0.628E-02    7.98       1.0  T
   3    -50.7349598 -0.915754E-06  0.530E-03    7.98       3.7  T
   4    -50.7349599 -0.483927E-07  0.200E-03    7.98       9.8  T
   5    -50.7349599 -0.348072E-08  0.678E-04    7.98      28.9  T
   6    -50.7349599 -0.628695E-09  0.315E-04    7.98      62.4  T
speedup  1.11
cpu  time for SCC    0.01 s
wall time for SCC    0.01 s
speedup  1.00
cpu  time for grad    0.01 s
wall time for grad    0.01 s
 E :    -50.45422761  G :  0.001992    pred/act E change: -0.108D-04 -0.234D-04
Maxdispl :   0.0577   ||displ|| :   0.1030   Lambda : -0.194D-04
Largest |displ|/coords:  0.0577 (   1)  0.0430 (   7)  0.0412 (   3)
................................................................................
.............................. CYCLE   56 ......................................
................................................................................
   1    -50.7346564 -0.507347E+02  0.607E-02    7.98       0.0  T
   2    -50.7346568 -0.399449E-06  0.449E-02    7.98       1.0  T
   3    -50.7346572 -0.400185E-06  0.350E-03    7.99       5.6  T
   4    -50.7346572 -0.194938E-07  0.113E-03    7.98      17.3  T
   5    -50.7346572 -0.953904E-09  0.442E-04    7.98      44.4  T
   6    -50.7346572 -0.253280E-09  0.183E-04    7.98     107.1  T
speedup  0.93
cpu  time for SCC    0.00 s
wall time for SCC    0.01 s
speedup  1.01
cpu  time for grad    0.01 s
wall time for grad    0.01 s
 E :    -50.45424020  G :  0.002267    pred/act E change: -0.193D-04 -0.126D-04
Maxdispl :   0.0732   ||displ|| :   0.1103   Lambda : -0.186D-04
Largest |displ|/coords:  0.0732 (   1)  0.0476 (   3)  0.0446 (   2)
................................................................................
.............................. CYCLE   57 ......................................
................................................................................
   1    -50.7345040 -0.507345E+02  0.537E-02    7.98       0.0  T
   2    -50.7345044 -0.328631E-06  0.396E-02    7.98       1.0  T
   3    -50.7345047 -0.335617E-06  0.293E-03    7.99       6.7  T
   4    -50.7345047 -0.124666E-07  0.819E-04    7.99      23.9  T
   5    -50.7345047 -0.503121E-09  0.386E-04    7.99      50.7  T
speedup  1.09
cpu  time for SCC    0.00 s
wall time for SCC    0.00 s
speedup  0.99
cpu  time for grad    0.01 s
wall time for grad    0.01 s
 E :    -50.45425426  G :  0.001715    pred/act E change: -0.979D-05 -0.141D-04
Maxdispl :   0.1239   ||displ|| :   0.1623   Lambda : -0.249D-04
Largest |displ|/coords:  0.1239 (   1)  0.0677 (   2)  0.0584 (   3)
................................................................................
.............................. CYCLE   58 ......................................
................................................................................
   1    -50.7345358 -0.507345E+02  0.627E-02    7.99       0.0  T
   2    -50.7345363 -0.490681E-06  0.463E-02    7.99       1.0  T
   3    -50.7345368 -0.501583E-06  0.366E-03    7.99       5.4  T
   4    -50.7345368 -0.231677E-07  0.119E-03    7.99      16.4  T
   5    -50.7345368 -0.130013E-08  0.490E-04    7.99      40.0  T
   6    -50.7345368 -0.421643E-09  0.203E-04    7.99      96.8  T
speedup  1.11
cpu  time for SCC    0.01 s
wall time for SCC    0.01 s
speedup  1.01
cpu  time for grad    0.01 s
wall time for grad    0.01 s
 E :    -50.45427204  G :  0.001428    pred/act E change: -0.944D-05 -0.178D-04
Maxdispl :   0.1968   ||displ|| :   0.2474   Lambda : -0.249D-04
Largest |displ|/coords:  0.1968 (   1)  0.1009 (   2)  0.0807 (   3)
................................................................................
.............................. CYCLE   59 ......................................
................................................................................
   1    -50.7339575 -0.507340E+02  0.965E-02    7.98       0.0  T
   2    -50.7339586 -0.107164E-05  0.715E-02    7.98       1.0  T
   3    -50.7339598 -0.116507E-05  0.509E-03    7.98       3.8  T
   4    -50.7339598 -0.385010E-07  0.187E-03    7.98      10.5  T
   5    -50.7339598 -0.266210E-08  0.682E-04    7.98      28.7  T
   6    -50.7339598 -0.989843E-09  0.310E-04    7.98      63.4  T
speedup  0.93
cpu  time for SCC    0.00 s
wall time for SCC    0.01 s
speedup  1.01
cpu  time for grad    0.01 s
wall time for grad    0.01 s
 E :    -50.45428894  G :  0.002349    pred/act E change: -0.128D-04 -0.169D-04
Maxdispl :   0.2412   ||displ|| :   0.2792   Lambda : -0.365D-04
Largest |displ|/coords:  0.2412 (   1)  0.1069 (   2)  0.0568 (   3)
................................................................................
.............................. CYCLE   60 ......................................
................................................................................
   1    -50.7343772 -0.507344E+02  0.805E-02    7.99       0.0  T
   2    -50.7343782 -0.101971E-05  0.600E-02    7.98       1.0  T
   3    -50.7343792 -0.948435E-06  0.566E-03    7.98       3.5  T
   4    -50.7343793 -0.997865E-07  0.205E-03    7.98       9.6  T
   5    -50.7343793 -0.433185E-08  0.757E-04    7.98      25.9  T
   6    -50.7343793 -0.100771E-08  0.311E-04    7.98      63.1  T
speedup  0.93
cpu  time for SCC    0.00 s
wall time for SCC    0.01 s
speedup  1.01
cpu  time for grad    0.01 s
wall time for grad    0.01 s
 E :    -50.45431211  G :  0.002538    pred/act E change: -0.132D-04 -0.232D-04
Maxdispl :   0.3441   ||displ|| :   0.3978   Lambda : -0.378D-04
Largest |displ|/coords:  0.3441 (   1)  0.1537 (   2)  0.0844 (   3)
................................................................................
.............................. CYCLE   61 ......................................
................................................................................
   1    -50.7331229 -0.507331E+02  0.128E-01    7.97       0.0  T
   2    -50.7331248 -0.196281E-05  0.953E-02    7.98       1.0  T
   3    -50.7331270 -0.217247E-05  0.695E-03    7.98       2.8  T
   4    -50.7331271 -0.933870E-07  0.280E-03    7.97       7.0  T
   5    -50.7331271 -0.722395E-08  0.984E-04    7.97      19.9  T
   6    -50.7331271 -0.221568E-08  0.403E-04    7.98      48.7  T
speedup  1.13
cpu  time for SCC    0.01 s
wall time for SCC    0.01 s
speedup  1.01
cpu  time for grad    0.01 s
wall time for grad    0.01 s
 E :    -50.45432894  G :  0.004078    pred/act E change: -0.197D-04 -0.168D-04
Maxdispl :   0.1434   ||displ|| :   0.1649   Lambda : -0.582D-04
Largest |displ|/coords:  0.1434 (   1)  0.0520 (  10)  0.0364 (   2)
................................................................................
.............................. CYCLE   62 ......................................
................................................................................
   1    -50.7345942 -0.507346E+02  0.446E-02    7.98       0.0  T
   2    -50.7345949 -0.645164E-06  0.334E-02    7.98       1.0  T
   3    -50.7345953 -0.479365E-06  0.518E-03    7.97       3.8  T
   4    -50.7345954 -0.963908E-07  0.160E-03    7.97      12.3  T
   5    -50.7345954 -0.361437E-08  0.558E-04    7.97      35.1  T
speedup  0.89
cpu  time for SCC    0.00 s
wall time for SCC    0.00 s
speedup  0.97
cpu  time for grad    0.01 s
wall time for grad    0.01 s
 E :    -50.45436927  G :  0.002338    pred/act E change: -0.219D-04 -0.403D-04
Maxdispl :   0.3850   ||displ|| :   0.4392   Lambda : -0.665D-04
Largest |displ|/coords:  0.3850 (   1)  0.1561 (   2)  0.1052 (  10)
................................................................................
.............................. CYCLE   63 ......................................
................................................................................
   1    -50.7343378 -0.507343E+02  0.120E-01    7.97       0.0  T
   2    -50.7343397 -0.190423E-05  0.903E-02    7.97       1.0  T
   3    -50.7343420 -0.235819E-05  0.802E-03    7.96       2.4  T
   4    -50.7343421 -0.121388E-06  0.323E-03    7.96       6.1  T
   5    -50.7343422 -0.142196E-07  0.118E-03    7.96      16.7  T
   6    -50.7343422 -0.231320E-08  0.660E-04    7.96      29.7  T
   7    -50.7343422 -0.738645E-09  0.137E-04    7.96     143.6  T
speedup  0.95
cpu  time for SCC    0.01 s
wall time for SCC    0.01 s
speedup  1.01
cpu  time for grad    0.01 s
wall time for grad    0.01 s
 E :    -50.45442199  G :  0.003645    pred/act E change: -0.299D-04 -0.527D-04
Maxdispl :   0.4652   ||displ|| :   0.5410   Lambda : -0.103D-03
Largest |displ|/coords:  0.4652 (   1)  0.1734 (   2)  0.1560 (  10)
................................................................................
.............................. CYCLE   64 ......................................
................................................................................
   1    -50.7340971 -0.507341E+02  0.142E-01    7.95       0.0  T
   2    -50.7341000 -0.287653E-05  0.107E-01    7.95       1.0  T
   3    -50.7341031 -0.311113E-05  0.109E-02    7.94       1.8  T
   4    -50.7341034 -0.257166E-06  0.463E-03    7.94       4.2  T
   5    -50.7341034 -0.251022E-07  0.145E-03    7.94      13.5  T
   6    -50.7341034 -0.298957E-08  0.920E-04    7.94      21.3  T
   7    -50.7341034 -0.153660E-08  0.183E-04    7.94     107.0  T
speedup  0.95
cpu  time for SCC    0.01 s
wall time for SCC    0.01 s
speedup  1.01
cpu  time for grad    0.01 s
wall time for grad    0.01 s
 E :    -50.45450210  G :  0.004498    pred/act E change: -0.397D-04 -0.801D-04
Maxdispl :   0.3621   ||displ|| :   0.4463   Lambda : -0.102D-03
Largest |displ|/coords:  0.3621 (   1)  0.1618 (  10)  0.1434 (   2)
................................................................................
.............................. CYCLE   65 ......................................
................................................................................
   1    -50.7347085 -0.507347E+02  0.116E-01    7.94       0.0  T
   2    -50.7347107 -0.220761E-05  0.866E-02    7.94       1.0  T
   3    -50.7347127 -0.200183E-05  0.102E-02    7.93       1.9  T
   4    -50.7347129 -0.255957E-06  0.462E-03    7.93       4.2  T
   5    -50.7347129 -0.212206E-07  0.117E-03    7.93      16.8  T
   6    -50.7347129 -0.164371E-08  0.768E-04    7.93      25.5  T
speedup  1.07
cpu  time for SCC    0.01 s
wall time for SCC    0.01 s
speedup  1.03
cpu  time for grad    0.01 s
wall time for grad    0.01 s
 E :    -50.45457071  G :  0.003667    pred/act E change: -0.668D-04 -0.686D-04
Maxdispl :   0.4759   ||displ|| :   0.5470   Lambda : -0.845D-04
Largest |displ|/coords:  0.4759 (   1)  0.1855 (   2)  0.1297 (  10)
................................................................................
[...]
................................................................................
   1    -50.7361239 -0.507361E+02  0.267E-02    7.88       0.0  T
   2    -50.7361241 -0.127579E-06  0.199E-02    7.88       1.0  T
   3    -50.7361242 -0.122197E-06  0.224E-03    7.88       8.7  T
   4    -50.7361242 -0.106633E-07  0.751E-04    7.88      26.1  T
   5    -50.7361242 -0.755861E-09  0.265E-04    7.88      73.9  T
speedup  0.87
cpu  time for SCC    0.00 s
wall time for SCC    0.00 s
speedup  0.98
cpu  time for grad    0.01 s
wall time for grad    0.01 s
 E :    -50.45487066  G :  0.000859    pred/act E change: -0.294D-05 -0.441D-05
Maxdispl :   0.0400   ||displ|| :   0.0628   Lambda : -0.472D-05
Largest |displ|/coords:  0.0400 (   3)  0.0330 (   5)  0.0178 (   2)
................................................................................
.............................. CYCLE   88 ......................................
................................................................................
   1    -50.7361204 -0.507361E+02  0.251E-02    7.88       0.0  T
   2    -50.7361205 -0.107371E-06  0.186E-02    7.88       1.1  T
   3    -50.7361206 -0.112901E-06  0.233E-03    7.88       8.4  T
   4    -50.7361206 -0.834084E-08  0.721E-04    7.88      27.2  T
   5    -50.7361206 -0.772836E-09  0.249E-04    7.88      78.7  T
speedup  0.87
cpu  time for SCC    0.00 s
wall time for SCC    0.00 s
speedup  0.98
cpu  time for grad    0.01 s
wall time for grad    0.01 s
 E :    -50.45487409  G :  0.000937    pred/act E change: -0.315D-05 -0.343D-05
Maxdispl :   0.0445   ||displ|| :   0.0663   Lambda : -0.399D-05
Largest |displ|/coords:  0.0445 (   3)  0.0341 (   5)  0.0174 (   8)
................................................................................
.............................. CYCLE   89 ......................................
................................................................................
   1    -50.7361704 -0.507362E+02  0.246E-02    7.88       0.0  T
   2    -50.7361705 -0.109186E-06  0.182E-02    7.88       1.1  T
   3    -50.7361707 -0.111032E-06  0.240E-03    7.87       8.2  T
   4    -50.7361707 -0.885342E-08  0.706E-04    7.87      27.8  T
   5    -50.7361707 -0.798977E-09  0.252E-04    7.87      77.9  T
speedup  0.87
cpu  time for SCC    0.00 s
wall time for SCC    0.00 s
speedup  0.98
cpu  time for grad    0.01 s
wall time for grad    0.01 s
 E :    -50.45487683  G :  0.000724    pred/act E change: -0.237D-05 -0.274D-05
Maxdispl :   0.0320   ||displ|| :   0.0489   Lambda : -0.254D-05
Largest |displ|/coords:  0.0320 (   3)  0.0286 (   5)  0.0133 (   8)
................................................................................
.............................. CYCLE   90 ......................................
................................................................................
   1    -50.7362881 -0.507363E+02  0.180E-02    7.87       0.0  T
   2    -50.7362882 -0.643183E-07  0.133E-02    7.87       1.5  T
   3    -50.7362882 -0.596689E-07  0.185E-03    7.87      10.6  T
   4    -50.7362882 -0.598772E-08  0.540E-04    7.87      36.3  T
   5    -50.7362882 -0.482004E-09  0.182E-04    7.87     107.6  T
speedup  0.89
cpu  time for SCC    0.00 s
wall time for SCC    0.00 s
speedup  0.98
cpu  time for grad    0.01 s
wall time for grad    0.01 s
 E :    -50.45487852  G :  0.000449    pred/act E change: -0.200D-05 -0.169D-05
Maxdispl :   0.0263   ||displ|| :   0.0357   Lambda : -0.167D-05
Largest |displ|/coords:  0.0263 (   3)  0.0159 (   5)  0.0107 (   8)
................................................................................
.............................. CYCLE   91 ......................................
................................................................................
   1    -50.7363617 -0.507364E+02  0.132E-02    7.87       0.0  T
   2    -50.7363617 -0.315152E-07  0.972E-03    7.87       2.0  T
   3    -50.7363618 -0.318965E-07  0.121E-03    7.86      16.2  T
   4    -50.7363618 -0.226442E-08  0.316E-04    7.87      62.0  T
   5    -50.7363618 -0.230365E-09  0.120E-04    7.87     163.7  T
speedup  0.89
cpu  time for SCC    0.00 s
wall time for SCC    0.00 s
speedup  0.98
cpu  time for grad    0.01 s
wall time for grad    0.01 s
 E :    -50.45487955  G :  0.000361    pred/act E change: -0.127D-05 -0.103D-05
Maxdispl :   0.0088   ||displ|| :   0.0163   Lambda : -0.868D-06
Largest |displ|/coords:  0.0088 (   7)  0.0088 (   3)  0.0063 (   5)
................................................................................
.............................. CYCLE   92 ......................................
................................................................................
   1    -50.7364491 -0.507364E+02  0.721E-03    7.86       0.0  T
   2    -50.7364491 -0.896841E-08  0.540E-03    7.86       3.6  T
   3    -50.7364491 -0.962808E-08  0.630E-04    7.86      31.1  T
   4    -50.7364491 -0.739355E-09  0.186E-04    7.86     105.4  T
speedup  1.08
cpu  time for SCC    0.00 s
wall time for SCC    0.00 s
speedup  0.98
cpu  time for grad    0.01 s
wall time for grad    0.01 s
 E :    -50.45488013  G :  0.000342    pred/act E change: -0.838D-06 -0.582D-06
Maxdispl :   0.0092   ||displ|| :   0.0145   Lambda : -0.553D-06
Largest |displ|/coords:  0.0092 (   3)  0.0071 (   7)  0.0041 (  11)
................................................................................
.............................. CYCLE   93 ......................................
................................................................................
   1    -50.7364440 -0.507364E+02  0.568E-03    7.86       0.0  T
   2    -50.7364440 -0.624151E-08  0.426E-03    7.86       4.6  T
   3    -50.7364440 -0.451156E-08  0.437E-04    7.86      44.8  T
   4    -50.7364440 -0.896733E-09  0.176E-04    7.86     111.5  T
speedup  1.11
cpu  time for SCC    0.00 s
wall time for SCC    0.00 s
speedup  1.06
cpu  time for grad    0.01 s
wall time for grad    0.01 s
 E :    -50.45488052  G :  0.000233    pred/act E change: -0.434D-06 -0.388D-06
Maxdispl :   0.0068   ||displ|| :   0.0127   Lambda : -0.387D-06
Largest |displ|/coords:  0.0068 (   7)  0.0056 (   2)  0.0056 (   3)
................................................................................
.............................. CYCLE   94 ......................................
................................................................................
   1    -50.7364818 -0.507365E+02  0.493E-03    7.86       0.0  T
   2    -50.7364818 -0.711550E-08  0.370E-03    7.86       5.3  T
   3    -50.7364818 -0.388132E-08  0.469E-04    7.86      41.8  T
   4    -50.7364818 -0.120627E-08  0.187E-04    7.86     105.0  T
speedup  1.08
cpu  time for SCC    0.00 s
wall time for SCC    0.00 s
speedup  0.98
cpu  time for grad    0.01 s
wall time for grad    0.01 s
 E :    -50.45488078  G :  0.000165    pred/act E change: -0.277D-06 -0.259D-06
Maxdispl :   0.0103   ||displ|| :   0.0137   Lambda : -0.232D-06
Largest |displ|/coords:  0.0103 (   3)  0.0042 (  11)  0.0041 (   7)
................................................................................
.............................. CYCLE   95 ......................................
................................................................................
   1    -50.7364491 -0.507364E+02  0.563E-03    7.86       0.0  T
   2    -50.7364491 -0.734143E-08  0.422E-03    7.86       4.6  T
   3    -50.7364491 -0.469763E-08  0.490E-04    7.86      40.0  T
   4    -50.7364491 -0.119434E-08  0.199E-04    7.86      98.7  T
speedup  1.03
cpu  time for SCC    0.00 s
wall time for SCC    0.00 s
speedup  1.04
cpu  time for grad    0.01 s
wall time for grad    0.01 s
 E :    -50.45488092  G :  0.000180    pred/act E change: -0.194D-06 -0.144D-06
Maxdispl :   0.0031   ||displ|| :   0.0067   Lambda : -0.124D-06
Largest |displ|/coords:  0.0031 (   2)  0.0028 (   5)  0.0027 (   8)
................................................................................
.............................. CYCLE   96 ......................................
................................................................................
   1    -50.7364979 -0.507365E+02  0.329E-03    7.86       0.0  T
   2    -50.7364979 -0.225637E-08  0.244E-03    7.86       8.0  T
   3    -50.7364979 -0.214602E-08  0.237E-04    7.86      82.6  T
   4    -50.7364979 -0.158543E-09  0.850E-05    7.86     230.7  T
speedup  1.08
cpu  time for SCC    0.00 s
wall time for SCC    0.00 s
speedup  1.07
cpu  time for grad    0.01 s
wall time for grad    0.01 s
 E :    -50.45488100  G :  0.000153    pred/act E change: -0.115D-06 -0.828D-07
Maxdispl :   0.0044   ||displ|| :   0.0060   Lambda : -0.938D-07
Largest |displ|/coords:  0.0044 (   3)  0.0016 (   4)  0.0015 (   9)

   *** GEOMETRY OPTIMIZATION CONVERGED AFTER 96 ITERATIONS ***

------------------------------------------------------------------------
 total energy gain (kcal):     -0.0307
------------------------------------------------------------------------
================
 final structure:
================
$coord
       -2.42496918614433        0.84450429685889        0.53399451566779      S 
       -2.36788900482736       -1.38764936748102       -1.04945599923062      O 
       -4.15460764393383        2.82643392808154       -0.63068422240528      O 
       -3.71571592859164        0.25140383524640        3.02309557677937      O 
        0.05086108436108        1.89132535432416        0.98876684815257      O 
        0.85841065488447       -4.62418688843722        0.98948807636680      O 
        0.29056284632382       -6.30719805940363        0.62690242361540      H 
       -0.25896273927891       -3.48483403608460        0.04819963820721      H 
        0.01766435182843       -0.20430359223040       -5.43965702352514      O 
        1.71762853614627       -0.24219811829829       -4.66827599781996      H 
       -1.03627729816847       -1.02013910859636       -4.17983714224322      H 
        2.44285850958743        1.51679365382609        5.42617257213627      O 
        2.00067118749156        2.96571700367999        6.41976157245650      H 
        1.80025810788277        1.83617676931555        3.72429252370758      H 
       -1.97455550875956        4.15973914400945       -4.63167448697848      O 
       -3.27997014964446        3.50431123494859       -2.24369817872568      H 
       -1.05084981586905        2.55375028298876       -5.10328634808762      H 
       -3.18751704642841        4.45372616337655       -5.94909027184430      H 
       -0.63423732668510       -2.45054929394613        5.31088314624409      O 
       -2.51721343371791       -0.95515666301338        4.11458652224036      H 
        0.08657832534183       -3.47222468008832        3.93382676914552      H 
        0.66862539119181       -1.18443233896766        5.72105817796478      H 
        3.95717061461124       -0.38103468938262       -2.22548160586663      N 
        5.72679934041454        0.34267145759745       -2.28060086477593      H 
        4.06567841953073       -2.12629751357161       -1.44345796059955      H 
        2.91899773134142        0.69365122526323       -1.01582827943676      H 
$end
 
 Bond Distances (Angstroems)
 ---------------------------
S1-O2=1.4485         S1-O3=1.5224         S1-O4=1.5166         S1-O5=1.4427         O2-S1=1.4485         O3-S1=1.5224         
O3-H16=1.0351        O4-S1=1.5166         O4-H20=1.0694        O5-S1=1.4427         O6-H7=0.9593         O6-H8=0.9804         
H7-O6=0.9593         H8-O6=0.9804         O9-H10=0.9881        O9-H11=0.9705        H10-O9=0.9881        H11-O9=0.9705        
O12-H13=0.9587       O12-H14=0.9774       H13-O12=0.9587       H14-O12=0.9774       O15-H17=1.0117       O15-H18=0.9603       
H16-O3=1.0351        H17-O15=1.0117       H18-O15=0.9603       O19-H21=0.9843       O19-H22=0.9856       H20-O4=1.0694        
H21-O19=0.9843       H22-O19=0.9856       N23-H24=1.0122       N23-H25=1.0137       N23-H26=1.0173       H24-N23=1.0122       
H25-N23=1.0137       H26-N23=1.0173       
 N  H  Rav=1.0144 sigma=0.0022  Rmin=1.0122  Rmax=1.0173     3
 O  H  Rav=0.9901 sigma=0.0320  Rmin=0.9587  Rmax=1.0694    12
 S  O  Rav=1.4825 sigma=0.0370  Rmin=1.4427  Rmax=1.5224     4
 
 selected bond angles (degree)
 --------------------
O3-S1-O2=109.88                O4-S1-O2=110.06                O4-S1-O3=102.91                O5-S1-O2=113.00                
O5-S1-O3=110.43                O5-S1-O4=110.10                H16-O3-S1=107.68               H20-O4-S1=109.00               
H8-O6-H7=106.28                H11-O9-H10=103.32              
 
 selected dihedral angles (degree)
 ---------------------------------
H16-O3-S1-O2=290.04           H16-O3-S1-O4=172.84           H16-O3-S1-O5= 55.35           H20-O4-S1-O2= 70.36           
H20-O4-S1-O3=187.44           H20-O4-S1-O5=305.16           
 
 CMA Distance (Angstroems)
 ---------------------------
R(CMA):  1.8322

========================================================================
 FINAL SINGLEPOINT CALCULATION ON OPTIMIZED GEOMETRY
========================================================================

 Ncao       : 65
 Nao        : 64
 Nshell     : 38
 Nel        : 80
 T(el)      :   300.0
 intcut     :    25.0
 scfconv/Eh :  0.100E-05
   qconv/e  :  0.100E-03
 intneglect :  0.100E-07
 broydamp   :      0.250
 iter      E             dE          RMSdq      gap      omega  full diag
   1    -50.7364979 -0.507365E+02  0.330E-05    7.86       0.0  T
   2    -50.7364979 -0.129319E-11  0.212E-05    7.86     925.2  T
   3    -50.7364979 -0.603961E-12  0.513E-06    7.86    3824.5  T
speedup  1.11
cpu  time for SCC    0.00 s
wall time for SCC    0.00 s

   *** convergence criteria satisfied after 3 iterations ***

          eigenvalues
 #    :          28         29         30         31         32         33         34         35
 occ. :        2.000      2.000      2.000      2.000      2.000      2.000      2.000      2.000
 eps  :       -13.611    -13.564    -13.084    -12.825    -12.767    -12.690    -12.657    -12.458
 #    :          36         37         38         39         40         41         42         43
 occ. :        2.000      2.000      2.000      2.000      2.000      0.000      0.000      0.000
 eps  :       -12.422    -12.383    -12.239    -11.825    -10.755     -2.894     -0.887     -0.674
 #    :          44         45         46         47         48         49         50         51
 occ. :        0.000      0.000      0.000      0.000      0.000      0.000      0.000      0.000
 eps  :         0.683      0.831      0.986      1.792      2.512      3.853      4.319      5.395


   #   Z            q   n(s)   n(p)   n(d)      C6AA      α(0)
   1  16 S      1.751  1.576  1.748  0.924    87.611    15.754
   2   8 O     -0.741  1.769  4.972  0.000    29.841     7.324
   3   8 O     -0.616  1.756  4.860  0.000    25.539     6.822
   4   8 O     -0.631  1.761  4.870  0.000    25.917     6.872
   5   8 O     -0.736  1.764  4.972  0.000    29.697     7.306
   6   8 O     -0.615  1.746  4.869  0.000    25.553     6.822
   7   1 H      0.293  0.707  0.000  0.000     0.741     1.352
   8   1 H      0.324  0.676  0.000  0.000     0.653     1.269
   9   8 O     -0.621  1.754  4.867  0.000    25.692     6.841
  10   1 H      0.322  0.678  0.000  0.000     0.660     1.276
  11   1 H      0.307  0.693  0.000  0.000     0.700     1.314
  12   8 O     -0.603  1.743  4.860  0.000    25.269     6.784
  13   1 H      0.289  0.711  0.000  0.000     0.754     1.364
  14   1 H      0.326  0.674  0.000  0.000     0.648     1.264
  15   8 O     -0.612  1.762  4.850  0.000    25.467     6.812
  16   1 H      0.398  0.602  0.000  0.000     0.484     1.090
  17   1 H      0.350  0.650  0.000  0.000     0.589     1.206
  18   1 H      0.302  0.698  0.000  0.000     0.715     1.328
  19   8 O     -0.606  1.762  4.844  0.000    25.296     6.790
  20   1 H      0.399  0.601  0.000  0.000     0.480     1.085
  21   1 H      0.337  0.663  0.000  0.000     0.619     1.236
  22   1 H      0.343  0.657  0.000  0.000     0.604     1.221
  23   7 N     -0.462  1.378  4.084  0.000    32.161     8.422
  24   1 H      0.152  0.848  0.000  0.000     1.390     1.847
  25   1 H      0.166  0.834  0.000  0.000     1.298     1.785
  26   1 H      0.181  0.819  0.000  0.000     1.206     1.720

 Mol. C6AA /au·bohr⁶  :       5468.172446
 Mol. C8AA /au·bohr⁸  :     117946.967994
 Mol. α(0) /au        :        106.906865

 
 Wiberg/Mayer (AO) data. WBOs > 0.1 written file <wbo>
 largest (>0.05) Wiberg bond orders for each atom
           total WBO             WBO to atom ...
     1  S   4.781    O    5 1.327    O    2 1.299    O    4 1.060    O    3 1.037
     2  O   1.729    S    1 1.299    O    5 0.116    O    4 0.090    O    3 0.088    H    8 0.059
     3  O   1.974    S    1 1.037    H   16 0.643    O    5 0.089    O    2 0.088    O   15 0.055    O    4 0.051
     4  O   1.956    S    1 1.060    H   20 0.587    O    5 0.094    O    2 0.090    O   19 0.066    O    3 0.051
     5  O   1.723    S    1 1.327    O    2 0.116    O    4 0.094    O    3 0.089
     6  O   1.872    H    7 0.911    H    8 0.831    H   21 0.064
     7  H   0.914    O    6 0.911
     8  H   0.895    O    6 0.831    O    2 0.059
     9  O   1.919    H   11 0.868    H   10 0.820    H   17 0.121    O   15 0.051
    10  H   0.897    O    9 0.820    N   23 0.074
    11  H   0.906    O    9 0.868
    12  O   1.877    H   13 0.913    H   14 0.843    H   22 0.064
    13  H   0.916    O   12 0.913
    14  H   0.894    O   12 0.843
    15  O   1.956    H   18 0.906    H   17 0.755    H   16 0.181    O    3 0.055    O    9 0.051
    16  H   0.842    O    3 0.643    O   15 0.181
    17  H   0.878    O   15 0.755    O    9 0.121
    18  H   0.909    O   15 0.906
    19  O   2.009    H   21 0.820    H   22 0.815    H   20 0.235    O    4 0.066
    20  H   0.840    O    4 0.587    O   19 0.235
    21  H   0.886    O   19 0.820    O    6 0.064
    22  H   0.882    O   19 0.815    O   12 0.064
    23  N   3.012    H   24 0.973    H   25 0.967    H   26 0.944    H   10 0.074
    24  H   0.977    N   23 0.973
    25  H   0.972    N   23 0.967
    26  H   0.967    N   23 0.944
 MOs/occ written to file <molden.input>
 
molecular dipole:
                 x           y           z       tot (Debye)
 q only:        0.216      -0.029      -0.218
   full:        0.070       0.044      -0.140       0.413
molecular quadrupole (traceless):
                xx          xy          yy          xz          yz          zz
 q only:       -4.314      -0.783       4.329       3.613      -0.490      -0.015
  q+dip:       -1.701      -0.512       6.768       5.707       2.416      -5.068
   full:       -1.927      -0.838       6.892       5.807       2.058      -4.964

SCC energy    :     -50.7364979
rep           :       0.2813110
ES            :       0.2309618
AES           :      -0.0582317
AXC           :      -0.0073593
disp          :      -0.0195772
XB            :       0.0000000
fix           :       0.0000000
total E       :     -50.4548810
atomizationE  :       4.9851852     3128.25
(atE without considering molecular charge,
 total energy contains solvation terms)
H-L gap (eV)  :          7.8607
optimized geometry written to: xtbopt.xyz


------------------------------------------------------------------------
 * finished run on 2019/09/16 at 11:30:32.819     
------------------------------------------------------------------------
 total:
 * wall-time:     0 d,  0 h,  0 min,  2.770 sec
 *  cpu-time:     0 d,  0 h,  0 min,  2.156 sec
 * ratio c/w:     0.778 speedup
 SCF:
 * wall-time:     0 d,  0 h,  0 min,  0.445 sec
 *  cpu-time:     0 d,  0 h,  0 min,  0.137 sec
 * ratio c/w:     0.308 speedup
 ANC optimizer:
 * wall-time:     0 d,  0 h,  0 min,  2.302 sec
 *  cpu-time:     0 d,  0 h,  0 min,  1.998 sec
 * ratio c/w:     0.868 speedup

