      -----------------------------------------------------------      
     |                   =====================                   |     
     |                           x T B                           |     
     |                   =====================                   |     
     |                         S. Grimme                         |     
     |          Mulliken Center for Theoretical Chemistry        |     
     |                    University of Bonn                     |     
     |                 Version 6.0.1 (SAW181210)                 |     
      -----------------------------------------------------------      

   This program is distributed in the hope that it will be useful,
   but WITHOUT ANY WARRANTY; without even the implied warranty of
   MERCHANTABILITY or FITNESS FOR A PARTICULAR PURPOSE.
   
   FOR NON-COMMERCIAL, ACADEMIA USE ONLY.
   
   Cite this work as:
   S. Grimme, C. Bannwarth, P. Shushkov, J. Comput. Theory Chem., 2017,
   13, 1989-2009.
   C. Bannwarth, S. Ehlert and S. Grimme., ChemRxiv, 2018, preprint.
   http://doi.org/10.26434/chemrxiv.7246238.v1
   
   for sTDA-xTB:
   S. Grimme and C. Bannwarth, J. Chem. Phys., 2016, 145, 054103.
   
   in the mass-spec context:
   V. Asgeirsson, C. Bauer and S. Grimme, Chem. Sci., 2017, 8, 4879.
   
   if GBSA is used:
   P. Shushkov, F. März and S. Grimme, unpublished.
   
   for ANC optimizer:
   S. Grimme, unpublished.
   Rational Function algorithm used in ANCopt:
   F. Eckert, P. Pulay, H.-J. Werner, J. Comput. Chem., 1997, 18, 1473.
   
   with help from (in alphabetical order)
   C. Bannwarth, F. Bohle, G. Brandenburg, E. Caldeweyher, M. Checinski,
   S. Dohm, S. Ehlert, S. Ehrlich, F. März, H. Neugebauer, J. Pisarek,
   P. Pracht, P. Shushkov, and S. Spicher.
   
 * started run on 2019/09/16 at 11:49:06.333     
========================================================================
 # omp threads = 1
========================================================================
number of atoms            : 26
number of electrons        : 80
charge                     : 0
spin                       : .0
first test random number   : .7247

########################################################################
# WARNING! Please study the warnings concerning your input carefully
#  - XTBPATH is not set, using XTBHOME instead
#  - the use of '-opt' is discouraged, please use '--opt' next time
#  - the use of '-chrg' is discouraged, please use '--chrg' next time
#  - the use of '-uhf' is discouraged, please use '--uhf' next time
########################################################################

           ------------------------------------------------- 
          |                 G F N 2 - x T B                 |
          | Geometry, Frequencies, Noncovalent interactions |
          |            JCTC 2018 parametrisation            |
           ------------------------------------------------- 
      method parameters     
 k(s)        :  1.8500
 k(p)        :  2.2300
 k(d)        :  2.2300
 k(f)        :  2.0000
 kEN (H0ij)  : -2.0000
 D4 a1       :  0.5200
 D4 a2       :  5.0000
 D4 s6       :  1.0000
 D4 s8       :  2.7000
 D4 s9       :  5.0000
 alphaj      :  2.0000


            Z     q(EN)     CN     RAES       Cart. coordinates
     1  S   6.0    0.61    4.49    4.55    -1.70887     4.08143     0.78659
     2  O   6.0   -0.31    1.21    1.80     1.08813     3.76343     0.72520
     3  O   6.0   -0.30    1.19    1.80    -2.85176     2.03761     2.35016
     4  O   6.0   -0.26    2.10    1.84    -2.71351     3.94078    -1.79864
     5  O   6.0   -0.25    2.08    1.84    -2.33571     6.55157     1.89022
     6  H   1.0    0.14    1.22    1.47    -3.26501     7.53611     0.68267
     7  H   1.0    0.16    1.25    1.48    -2.30446     2.32742    -2.52035
     8  O   6.0   -0.36    1.48    1.80     3.30754    -2.43373     4.60257
     9  H   1.0    0.18    0.94    1.42     4.15745    -2.90014     6.19752
    10  O   6.0   -0.42    1.73    1.81     0.92763    -2.53106    -2.02106
    11  H   1.0    0.17    0.95    1.42     1.42603    -4.14007    -2.82506
    12  O   6.0   -0.27    1.98    1.82     0.92856     1.26371    -4.79822
    13  H   1.0    0.14    0.97    1.43     2.37370     1.13330    -5.89785
    14  H   1.0    0.17    1.13    1.45     0.94389    -0.25901    -3.80037
    15  O   6.0   -0.28    2.00    1.83    -3.50988    -1.23511    -2.71370
    16  H   1.0    0.14    0.97    1.43    -4.10421    -2.08932    -4.20760
    17  H   1.0    0.17    1.14    1.45    -1.79669    -1.80602    -2.48210
    18  O   6.0   -0.23    2.94    2.64     3.89803    -0.31241     0.67254
    19  H   1.0    0.16    1.17    1.46     2.92854    -1.30733    -0.57648
    20  H   1.0    0.16    1.04    1.43     3.28390     1.44769     0.79472
    21  H   1.0    0.17    1.22    1.47     3.95464    -1.15020     2.34179
    22  N   5.0   -0.15    3.98    2.81    -0.92559    -2.78373     2.51949
    23  H   1.0    0.12    1.10    1.44    -0.41228    -2.94983     0.65043
    24  H   1.0    0.13    1.16    1.46     0.67129    -2.75084     3.63005
    25  H   1.0    0.12    1.05    1.44    -1.92593    -1.13467     2.77314
    26  H   1.0    0.08    0.99    1.43    -2.03543    -4.29959     3.02433

  Z AO/shell   Hii/eV     exponent
  1     Wed Apr 25 08:07:45 CEST 2018   EN: 2.200 GM2: 0.406  GM3: 0.0800  RAES: 1.40
     1s    -10.707211    1.230000
  7     Wed Apr 25 08:07:45 CEST 2018   EN: 3.040 GM2: 0.461  GM3:-0.0640  RAES: 1.90
     2s    -16.686243    2.339881
     2p    -12.523956    2.014332
  8     Wed Apr 25 08:07:45 CEST 2018   EN: 3.440 GM2: 0.452  GM3:-0.0517  RAES: 1.80
     2s    -20.229985    2.439742
     2p    -15.503117    2.137023
 16     Tue Apr 24 11:44:34 CEST 2018   EN: 2.580 GM2: 0.340  GM3:-0.0502  RAES: 3.10
     3s    -20.029654    1.981333
     3p    -11.377694    2.025643
     3d     -0.420282    1.702555
 no old-style atom pair restraining (fixing) potential

molecular fragmentation (1/2 indicates fragments):
11111112222222222222222222
# atoms in fragment 1/2:     7    19
 fragment masses (1/2) :       98.07      107.11
CMA distance (Bohr)    :   6.101
constraining FC (au)   :  0.0500
           ------------------------------------------------- 
          |        Self-Consistent Charge Iterations        |
           ------------------------------------------------- 

 Ncao       : 65
 Nao        : 64
 Nshell     : 38
 Nel        : 80
 T(el)      :   300.0
 intcut     :    25.0
 scfconv/Eh :  0.100E-05
   qconv/e  :  0.100E-03
 intneglect :  0.100E-07
 broydamp   :      0.250
 iter      E             dE          RMSdq      gap      omega  full diag
   1    -50.5099253 -0.505099E+02  0.713E+00   10.39       0.0  T
   2    -50.5721256 -0.622003E-01  0.516E+00    8.98       1.0  T
   3    -50.6173698 -0.452442E-01  0.148E+00    4.71       1.0  T
   4    -50.6238485 -0.647867E-02  0.627E-01    4.93       1.0  T
   5    -50.6245255 -0.676966E-03  0.373E-01    4.75       1.0  T
   6    -50.6252198 -0.694375E-03  0.166E-01    4.87       1.0  T
   7    -50.6254052 -0.185370E-03  0.553E-02    4.94       1.0  T
   8    -50.6254191 -0.139370E-04  0.358E-02    4.93       1.0  T
   9    -50.6254275 -0.831918E-05  0.121E-02    4.94       1.6  T
  10    -50.6254284 -0.953633E-06  0.268E-03    4.95       7.3  T
  11    -50.6254284 -0.308028E-07  0.134E-03    4.95      14.6  T
  12    -50.6254284 -0.570859E-08  0.444E-04    4.95      44.2  T
  13    -50.6254284 -0.617753E-09  0.158E-04    4.95     124.1  T
speedup  1.01
cpu  time for SCC    0.02 s
wall time for SCC    0.02 s

   *** convergence criteria satisfied after 13 iterations ***

          eigenvalues
 #    :          28         29         30         31         32         33         34         35
 occ. :        2.000      2.000      2.000      2.000      2.000      2.000      2.000      2.000
 eps  :       -13.064    -12.780    -12.735    -12.637    -12.336    -12.006    -11.434    -11.040
 #    :          36         37         38         39         40         41         42         43
 occ. :        2.000      2.000      2.000      2.000      2.000      0.000      0.000      0.000
 eps  :       -11.026    -10.569    -10.434     -8.469     -8.069     -3.122     -1.893     -0.674
 #    :          44         45         46         47         48         49         50         51
 occ. :        0.000      0.000      0.000      0.000      0.000      0.000      0.000      0.000
 eps  :        -0.071      0.047      1.733      2.581      3.519      3.741      4.529      5.111


   #   Z            q   n(s)   n(p)   n(d)      C6AA      α(0)
   1  16 S      1.710  1.572  1.778  0.941    88.547    15.838
   2   8 O     -0.704  1.763  4.941  0.000    28.805     7.196
   3   8 O     -0.701  1.766  4.935  0.000    28.736     7.187
   4   8 O     -0.563  1.714  4.850  0.000    24.298     6.655
   5   8 O     -0.528  1.716  4.812  0.000    23.496     6.544
   6   1 H      0.383  0.617  0.000  0.000     0.509     1.117
   7   1 H      0.442  0.558  0.000  0.000     0.409     1.000
   8   8 O     -0.904  1.815  5.090  0.000    34.885     7.920
   9   1 H      0.172  0.828  0.000  0.000     1.277     1.775
  10   8 O     -0.848  1.842  5.006  0.000    33.064     7.710
  11   1 H      0.220  0.780  0.000  0.000     1.021     1.587
  12   8 O     -0.665  1.761  4.904  0.000    26.791     6.986
  13   1 H      0.266  0.734  0.000  0.000     0.833     1.434
  14   1 H      0.327  0.673  0.000  0.000     0.642     1.258
  15   8 O     -0.663  1.764  4.899  0.000    26.750     6.980
  16   1 H      0.271  0.729  0.000  0.000     0.814     1.417
  17   1 H      0.333  0.667  0.000  0.000     0.627     1.242
  18   8 O     -0.482  1.668  4.814  0.000    22.451     6.399
  19   1 H      0.393  0.607  0.000  0.000     0.494     1.102
  20   1 H      0.382  0.618  0.000  0.000     0.519     1.131
  21   1 H      0.405  0.595  0.000  0.000     0.469     1.072
  22   7 N     -0.335  1.273  4.062  0.000    28.604     7.943
  23   1 H      0.292  0.708  0.000  0.000     0.738     1.346
  24   1 H      0.314  0.686  0.000  0.000     0.672     1.283
  25   1 H      0.272  0.728  0.000  0.000     0.805     1.405
  26   1 H      0.213  0.787  0.000  0.000     1.045     1.601

 Mol. C6AA /au·bohr⁶  :       5515.991766
 Mol. C8AA /au·bohr⁸  :     119234.833139
 Mol. α(0) /au        :        107.128864

 
 Wiberg/Mayer (AO) data. WBOs > 0.1 written file <wbo>
 largest (>0.05) Wiberg bond orders for each atom
           total WBO             WBO to atom ...
     1  S   4.813    O    3 1.345    O    2 1.339    O    4 1.056    O    5 1.032
     2  O   1.719    S    1 1.339    O    3 0.138    O    4 0.091    O    5 0.072    H   20 0.054
     3  O   1.721    S    1 1.345    O    2 0.138    O    4 0.092    O    5 0.073
     4  O   2.042    S    1 1.056    H    7 0.735    O    3 0.092    O    2 0.091
     5  O   2.067    S    1 1.032    H    6 0.828    O    3 0.073    O    2 0.072
     6  H   0.853    O    5 0.828
     7  H   0.805    O    4 0.735
     8  O   1.431    H    9 0.943    H   21 0.195    H   24 0.160    N   22 0.066    O   18 0.058
     9  H   0.970    O    8 0.943
    10  O   1.638    H   11 0.941    H   19 0.164    H   17 0.110    H   23 0.109    H   14 0.105    O   18 0.055    N   22 0.054
    11  H   0.952    O   10 0.941
    12  O   1.777    H   13 0.925    H   14 0.781
    13  H   0.929    O   12 0.925
    14  H   0.893    O   12 0.781    O   10 0.105
    15  O   1.802    H   16 0.923    H   17 0.770
    16  H   0.926    O   15 0.923
    17  H   0.889    O   15 0.770    O   10 0.110
    18  O   2.258    H   20 0.791    H   19 0.674    H   21 0.634    O    8 0.058    O   10 0.055
    19  H   0.846    O   18 0.674    O   10 0.164
    20  H   0.854    O   18 0.791    O    2 0.054
    21  H   0.836    O   18 0.634    O    8 0.195
    22  N   3.522    H   26 0.950    H   25 0.875    H   23 0.797    H   24 0.735    O    8 0.066    O   10 0.054
    23  H   0.915    N   22 0.797    O   10 0.109
    24  H   0.901    N   22 0.735    O    8 0.160
    25  H   0.926    N   22 0.875
    26  H   0.955    N   22 0.950
 MOs/occ written to file <molden.input>
 
molecular dipole:
                 x           y           z       tot (Debye)
 q only:       -1.434       0.814      -0.864
   full:       -1.551       0.688      -1.224       5.317
molecular quadrupole (traceless):
                xx          xy          yy          xz          yz          zz
 q only:       -3.815      -2.565      17.567      -9.074       2.014     -13.752
  q+dip:       -7.739      -5.517      20.896      -8.220       2.693     -13.157
   full:       -8.165      -5.921      21.013      -7.854       2.820     -12.848

SCC energy    :     -50.6254284
rep           :       0.2949366
ES            :       0.3236346
AES           :      -0.0590180
AXC           :      -0.0081248
disp          :      -0.0195217
XB            :       0.0000000
fix           :       0.0000000
total E       :     -50.3301756
atomizationE  :       4.8604798     3050.00
(atE without considering molecular charge,
 total energy contains solvation terms)
H-L gap (eV)  :          4.9474
           ------------------------------------------------- 
          |                 ===============                 |
          |                   A N C O P T                   |
          |                 ===============                 |
          |          Approximate Normal Coordinate          |
          |           Rational Function Optimizer           |
           ------------------------------------------------- 
dumping coords to <xtbopt.coord> and <xtbopt.log>
 optlevel               2
 Maxcycle             520
 Maxmicro              25
 Econv         1.000000000000000E-007
 Gconv         2.000000000000000E-004
 Maxdispl       1.00000000000000     
 Hlow          5.000000000000000E-003
 S6             20.0000000000000     
 Nvar               72

generating ANC from model Hessian ...
 Shifting diagonal of input Hessian by   8.814056198659981E-003
 Lowest  eigenvalues of input Hessian
    0.005000   -0.000000   -0.000000    0.000000    0.000000    0.000000
    0.000000    0.008847    0.009062    0.009494    0.009714    0.010066
    0.010644    0.011121    0.011533    0.011733    0.012545    0.012754
 Highest eigenvalues
    1.550687    1.576155    1.603904    3.219529    3.417797    3.466369
 
cpu  time for ANC gen    0.02 s
wall time for ANC gen    0.02 s
................................................................................
.............................. CYCLE    1 ......................................
................................................................................
   1    -50.6254284 -0.506254E+02  0.587E-05    4.95       0.0  T
   2    -50.6254284 -0.899547E-11  0.429E-05    4.95     457.1  T
   3    -50.6254284 -0.646594E-11  0.192E-05    4.95    1022.9  T
speedup  1.07
cpu  time for SCC    0.00 s
wall time for SCC    0.00 s
speedup  1.04
cpu  time for grad    0.01 s
wall time for grad    0.01 s
 E :    -50.33017557  G :  0.250832    pred/act E change:  0.000D+00  0.280D-07
Maxdispl :   0.0919   ||displ|| :   0.2781   Lambda : -0.390D-01
Largest |displ|/coords:  0.0919 (  55)  0.0906 (  31)  0.0701 (  30)
................................................................................
.............................. CYCLE    2 ......................................
................................................................................
   1    -50.6392557 -0.506393E+02  0.289E-01    5.12       0.0  T
   2    -50.6396170 -0.361347E-03  0.216E-01    5.26       1.0  T
   3    -50.6397758 -0.158806E-03  0.104E-01    5.49       1.0  T
   4    -50.6397865 -0.106333E-04  0.248E-02    5.53       1.0  T
   5    -50.6397875 -0.107039E-05  0.586E-03    5.52       3.3  T
   6    -50.6397876 -0.626790E-07  0.316E-03    5.52       6.2  T
speedup  0.91
cpu  time for SCC    0.01 s
wall time for SCC    0.01 s
speedup  0.96
cpu  time for grad    0.01 s
wall time for grad    0.01 s
 E :    -50.36073366  G :  0.158054    pred/act E change:  0.000D+00 -0.306D-01
Maxdispl :   0.0952   ||displ|| :   0.2760   Lambda : -0.187D-01
Largest |displ|/coords:  0.0952 (  31)  0.0766 (  11)  0.0740 (  10)
................................................................................
.............................. CYCLE    3 ......................................
................................................................................
   1    -50.6485097 -0.506485E+02  0.270E-01    5.66       0.0  T
   2    -50.6488674 -0.357703E-03  0.199E-01    5.83       1.0  T
   3    -50.6490108 -0.143470E-03  0.101E-01    6.06       1.0  T
   4    -50.6490175 -0.664525E-05  0.227E-02    6.11       1.0  T
   5    -50.6490185 -0.106141E-05  0.459E-03    6.10       4.3  T
   6    -50.6490186 -0.390028E-07  0.252E-03    6.10       7.8  T
speedup  1.13
cpu  time for SCC    0.01 s
wall time for SCC    0.01 s
speedup  1.04
cpu  time for grad    0.01 s
wall time for grad    0.01 s
 E :    -50.37599211  G :  0.099484    pred/act E change: -0.210D-01 -0.153D-01
Maxdispl :   0.1344   ||displ|| :   0.2983   Lambda : -0.105D-01
Largest |displ|/coords:  0.1344 (  11)  0.0859 (   2)  0.0675 (  31)
................................................................................
.............................. CYCLE    4 ......................................
................................................................................
   1    -50.6532815 -0.506533E+02  0.295E-01    6.13       0.0  T
   2    -50.6536205 -0.338997E-03  0.215E-01    6.29       1.0  T
   3    -50.6537576 -0.137111E-03  0.947E-02    6.55       1.0  T
   4    -50.6537670 -0.946084E-05  0.232E-02    6.58       1.0  T
   5    -50.6537684 -0.139345E-05  0.469E-03    6.56       4.2  T
   6    -50.6537685 -0.390810E-07  0.270E-03    6.56       7.3  T
speedup  1.11
cpu  time for SCC    0.01 s
wall time for SCC    0.01 s
speedup  1.04
cpu  time for grad    0.01 s
wall time for grad    0.01 s
 E :    -50.38481301  G :  0.060970    pred/act E change: -0.101D-01 -0.882D-02
Maxdispl :   0.1855   ||displ|| :   0.3468   Lambda : -0.679D-02
Largest |displ|/coords:  0.1855 (  11)  0.1091 (  14)  0.0950 (   2)
................................................................................
.............................. CYCLE    5 ......................................
................................................................................
   1    -50.6529992 -0.506530E+02  0.386E-01    6.47       0.0  T
   2    -50.6533591 -0.359994E-03  0.280E-01    6.64       1.0  T
   3    -50.6535066 -0.147495E-03  0.935E-02    6.95       1.0  T
   4    -50.6535295 -0.228100E-04  0.236E-02    6.93       1.0  T
   5    -50.6535311 -0.159970E-05  0.548E-03    6.91       3.6  T
   6    -50.6535311 -0.618957E-07  0.334E-03    6.92       5.9  T
speedup  0.91
cpu  time for SCC    0.00 s
wall time for SCC    0.01 s
speedup  1.02
cpu  time for grad    0.01 s
wall time for grad    0.01 s
 E :    -50.39037369  G :  0.055672    pred/act E change: -0.574D-02 -0.556D-02
Maxdispl :   0.1483   ||displ|| :   0.3029   Lambda : -0.593D-02
Largest |displ|/coords:  0.1483 (  13)  0.0902 (  16)  0.0800 (  14)
................................................................................
.............................. CYCLE    6 ......................................
................................................................................
   1    -50.6627072 -0.506627E+02  0.281E-01    6.95       0.0  T
   2    -50.6628429 -0.135627E-03  0.210E-01    7.00       1.0  T
   3    -50.6629023 -0.594813E-04  0.633E-02    7.08       1.0  T
   4    -50.6629157 -0.134083E-04  0.179E-02    7.08       1.1  T
   5    -50.6629165 -0.782964E-06  0.533E-03    7.08       3.7  T
   6    -50.6629166 -0.312163E-07  0.245E-03    7.08       8.0  T
speedup  1.11
cpu  time for SCC    0.01 s
wall time for SCC    0.01 s
speedup  1.04
cpu  time for grad    0.01 s
wall time for grad    0.01 s
 E :    -50.39365803  G :  0.040394    pred/act E change: -0.380D-02 -0.328D-02
Maxdispl :   0.2798   ||displ|| :   0.5396   Lambda : -0.859D-02
Largest |displ|/coords:  0.2798 (  11)  0.1525 (  15)  0.1354 (  18)
................................................................................
.............................. CYCLE    7 ......................................
................................................................................
   1    -50.6614251 -0.506614E+02  0.569E-01    6.75       0.0  T
   2    -50.6624565 -0.103131E-02  0.404E-01    6.81       1.0  T
   3    -50.6628913 -0.434887E-03  0.147E-01    6.86       1.0  T
   4    -50.6629395 -0.481903E-04  0.363E-02    6.88       1.0  T
   5    -50.6629431 -0.351847E-05  0.106E-02    6.88       1.9  T
   6    -50.6629432 -0.185568E-06  0.587E-03    6.88       3.3  T
   7    -50.6629433 -0.565317E-07  0.163E-03    6.88      12.0  T
speedup  0.95
cpu  time for SCC    0.01 s
wall time for SCC    0.01 s
speedup  0.91
cpu  time for grad    0.01 s
wall time for grad    0.01 s
 E :    -50.40000545  G :  0.050710    pred/act E change: -0.323D-02 -0.635D-02
Maxdispl :   0.1241   ||displ|| :   0.3288   Lambda : -0.361D-02
Largest |displ|/coords:  0.1241 (  11)  0.1233 (   8)  0.1124 (   7)
................................................................................
.............................. CYCLE    8 ......................................
................................................................................
   1    -50.6609893 -0.506610E+02  0.296E-01    6.73       0.0  T
   2    -50.6610731 -0.838840E-04  0.221E-01    6.72       1.0  T
   3    -50.6611123 -0.391114E-04  0.486E-02    6.71       1.0  T
   4    -50.6611250 -0.127466E-04  0.917E-03    6.72       2.1  T
   5    -50.6611251 -0.152033E-06  0.447E-03    6.72       4.4  T
   6    -50.6611252 -0.160308E-07  0.201E-03    6.72       9.7  T
speedup  0.93
cpu  time for SCC    0.01 s
wall time for SCC    0.01 s
speedup  0.98
cpu  time for grad    0.01 s
wall time for grad    0.01 s
 E :    -50.40271592  G :  0.058994    pred/act E change: -0.555D-02 -0.271D-02
Maxdispl :   0.1350   ||displ|| :   0.2932   Lambda : -0.552D-02
Largest |displ|/coords:  0.1350 (   4)  0.1127 (  10)  0.0877 (  11)
................................................................................
.............................. CYCLE    9 ......................................
................................................................................
   1    -50.6766286 -0.506766E+02  0.352E-01    6.72       0.0  T
   2    -50.6767298 -0.101123E-03  0.262E-01    6.72       1.0  T
   3    -50.6767865 -0.567153E-04  0.581E-02    6.72       1.0  T
   4    -50.6767980 -0.115482E-04  0.151E-02    6.73       1.3  T
   5    -50.6767987 -0.621241E-06  0.521E-03    6.73       3.8  T
   6    -50.6767987 -0.162157E-07  0.281E-03    6.73       7.0  T
speedup  1.11
cpu  time for SCC    0.01 s
wall time for SCC    0.01 s
speedup  1.05
cpu  time for grad    0.01 s
wall time for grad    0.01 s
 E :    -50.40470466  G :  0.061814    pred/act E change: -0.200D-02 -0.199D-02
Maxdispl :   0.1134   ||displ|| :   0.2537   Lambda : -0.593D-02
Largest |displ|/coords:  0.1134 (   8)  0.0984 (   6)  0.0856 (   1)
................................................................................
.............................. CYCLE   10 ......................................
................................................................................
   1    -50.6715991 -0.506716E+02  0.342E-01    6.83       0.0  T
   2    -50.6716861 -0.870070E-04  0.256E-01    6.82       1.0  T
   3    -50.6717259 -0.397656E-04  0.548E-02    6.80       1.0  T
   4    -50.6717378 -0.118924E-04  0.182E-02    6.80       1.1  T
   5    -50.6717386 -0.887716E-06  0.426E-03    6.80       4.6  T
   6    -50.6717387 -0.177027E-07  0.257E-03    6.80       7.6  T
speedup  0.91
cpu  time for SCC    0.00 s
wall time for SCC    0.01 s
speedup  0.96
cpu  time for grad    0.01 s
wall time for grad    0.01 s
 E :    -50.40840947  G :  0.045079    pred/act E change: -0.300D-02 -0.370D-02
Maxdispl :   0.1661   ||displ|| :   0.3623   Lambda : -0.563D-02
Largest |displ|/coords:  0.1661 (  11)  0.1133 (   8)  0.0919 (  18)
................................................................................
.............................. CYCLE   11 ......................................
................................................................................
   1    -50.6736113 -0.506736E+02  0.320E-01    6.85       0.0  T
   2    -50.6737224 -0.111056E-03  0.238E-01    6.86       1.0  T
   3    -50.6737955 -0.731933E-04  0.580E-02    6.88       1.0  T
   4    -50.6738091 -0.135820E-04  0.142E-02    6.89       1.4  T
   5    -50.6738094 -0.314127E-06  0.608E-03    6.89       3.2  T
   6    -50.6738095 -0.542555E-07  0.301E-03    6.89       6.5  T
   7    -50.6738095 -0.136992E-07  0.823E-04    6.88      23.8  T
speedup  0.97
cpu  time for SCC    0.01 s
wall time for SCC    0.01 s
speedup  0.99
cpu  time for grad    0.01 s
wall time for grad    0.01 s
 E :    -50.41250629  G :  0.062564    pred/act E change: -0.316D-02 -0.410D-02
Maxdispl :   0.1440   ||displ|| :   0.2974   Lambda : -0.759D-02
Largest |displ|/coords:  0.1440 (   1)  0.1021 (   4)  0.0831 (  18)
................................................................................
.............................. CYCLE   12 ......................................
................................................................................
   1    -50.6954252 -0.506954E+02  0.326E-01    7.14       0.0  T
   2    -50.6955766 -0.151400E-03  0.239E-01    7.16       1.0  T
   3    -50.6956676 -0.909946E-04  0.647E-02    7.20       1.0  T
   4    -50.6956806 -0.130080E-04  0.198E-02    7.20       1.0  T
   5    -50.6956813 -0.671057E-06  0.662E-03    7.20       3.0  T
   6    -50.6956813 -0.316207E-07  0.305E-03    7.19       6.4  T
   7    -50.6956814 -0.205010E-07  0.109E-03    7.19      18.0  T
speedup  0.95
cpu  time for SCC    0.01 s
wall time for SCC    0.01 s
speedup  0.98
cpu  time for grad    0.01 s
wall time for grad    0.01 s
 E :    -50.41443497  G :  0.060177    pred/act E change: -0.318D-02 -0.193D-02
Maxdispl :   0.1485   ||displ|| :   0.3824   Lambda : -0.113D-01
Largest |displ|/coords:  0.1485 (   1)  0.1347 (  22)  0.1249 (  11)
................................................................................
.............................. CYCLE   13 ......................................
................................................................................
   1    -50.6804710 -0.506805E+02  0.491E-01    7.17       0.0  T
   2    -50.6807190 -0.247977E-03  0.361E-01    7.16       1.0  T
   3    -50.6808696 -0.150657E-03  0.861E-02    7.15       1.0  T
   4    -50.6808955 -0.258490E-04  0.218E-02    7.14       1.0  T
   5    -50.6808963 -0.761548E-06  0.882E-03    7.14       2.2  T
   6    -50.6808964 -0.175931E-06  0.463E-03    7.14       4.2  T
   7    -50.6808965 -0.330660E-07  0.136E-03    7.14      14.5  T
speedup  0.97
cpu  time for SCC    0.01 s
wall time for SCC    0.01 s
speedup  0.99
cpu  time for grad    0.01 s
wall time for grad    0.01 s
 E :    -50.41437287  G :  0.077758    pred/act E change: -0.413D-02  0.621D-04
Maxdispl :   0.1939   ||displ|| :   0.4131   Lambda : -0.173D-01
Largest |displ|/coords:  0.1939 (  18)  0.1399 (  22)  0.1174 (  17)
................................................................................
.............................. CYCLE   14 ......................................
................................................................................
   1    -50.6989806 -0.506990E+02  0.601E-01    7.25       0.0  T
   2    -50.6992882 -0.307600E-03  0.447E-01    7.31       1.0  T
   3    -50.6994943 -0.206108E-03  0.957E-02    7.46       1.0  T
   4    -50.6995258 -0.314619E-04  0.362E-02    7.45       1.0  T
   5    -50.6995280 -0.224006E-05  0.103E-02    7.44       1.9  T
   6    -50.6995281 -0.107207E-06  0.562E-03    7.44       3.5  T
   7    -50.6995282 -0.577209E-07  0.173E-03    7.44      11.3  T
speedup  0.95
cpu  time for SCC    0.01 s
wall time for SCC    0.01 s
speedup  0.99
cpu  time for grad    0.01 s
wall time for grad    0.01 s
 E :    -50.41394631  G :  0.099098    pred/act E change: -0.648D-02  0.427D-03
Maxdispl :   0.1581   ||displ|| :   0.4001   Lambda : -0.198D-01
Largest |displ|/coords:  0.1581 (   4)  0.1431 (  13)  0.1403 (  22)
................................................................................
.............................. CYCLE   15 ......................................
................................................................................
   1    -50.6934124 -0.506934E+02  0.576E-01    7.46       0.0  T
   2    -50.6937616 -0.349211E-03  0.426E-01    7.44       1.0  T
   3    -50.6939865 -0.224926E-03  0.103E-01    7.37       1.0  T
   4    -50.6940223 -0.357500E-04  0.305E-02    7.37       1.0  T
   5    -50.6940238 -0.150071E-05  0.106E-02    7.37       1.8  T
   6    -50.6940239 -0.159483E-06  0.567E-03    7.37       3.5  T
   7    -50.6940240 -0.456154E-07  0.169E-03    7.37      11.6  T
speedup  1.11
cpu  time for SCC    0.01 s
wall time for SCC    0.01 s
speedup  0.99
cpu  time for grad    0.01 s
wall time for grad    0.01 s
 E :    -50.41612142  G :  0.076819    pred/act E change: -0.102D-01 -0.218D-02
Maxdispl :   0.1201   ||displ|| :   0.3427   Lambda : -0.136D-01
Largest |displ|/coords:  0.1201 (  13)  0.1013 (   8)  0.1008 (   4)
................................................................................
.............................. CYCLE   16 ......................................
................................................................................
   1    -50.6949238 -0.506949E+02  0.460E-01    7.35       0.0  T
   2    -50.6952324 -0.308555E-03  0.339E-01    7.40       1.0  T
   3    -50.6954281 -0.195729E-03  0.954E-02    7.50       1.0  T
   4    -50.6954574 -0.292576E-04  0.292E-02    7.50       1.0  T
   5    -50.6954589 -0.149093E-05  0.932E-03    7.49       2.1  T
   6    -50.6954590 -0.125638E-06  0.521E-03    7.49       3.8  T
   7    -50.6954590 -0.371704E-07  0.138E-03    7.49      14.2  T
speedup  0.94
cpu  time for SCC    0.01 s
wall time for SCC    0.01 s
speedup  0.98
cpu  time for grad    0.01 s
wall time for grad    0.01 s
 E :    -50.41856458  G :  0.059293    pred/act E change: -0.115D-01 -0.244D-02
Maxdispl :   0.0871   ||displ|| :   0.2318   Lambda : -0.706D-02
Largest |displ|/coords:  0.0871 (  12)  0.0695 (  13)  0.0603 (   4)
................................................................................
.............................. CYCLE   17 ......................................
................................................................................
   1    -50.7005423 -0.507005E+02  0.291E-01    7.57       0.0  T
   2    -50.7006794 -0.137038E-03  0.214E-01    7.56       1.0  T
   3    -50.7007702 -0.908898E-04  0.631E-02    7.54       1.0  T
   4    -50.7007822 -0.119685E-04  0.193E-02    7.54       1.0  T
   5    -50.7007829 -0.654708E-06  0.654E-03    7.54       3.0  T
   6    -50.7007829 -0.368951E-07  0.321E-03    7.54       6.1  T
   7    -50.7007829 -0.179141E-07  0.826E-04    7.54      23.7  T
speedup  0.95
cpu  time for SCC    0.01 s
wall time for SCC    0.01 s
speedup  0.99
cpu  time for grad    0.01 s
wall time for grad    0.01 s
 E :    -50.42037011  G :  0.042131    pred/act E change: -0.757D-02 -0.181D-02
Maxdispl :   0.0546   ||displ|| :   0.1216   Lambda : -0.196D-02
Largest |displ|/coords:  0.0546 (   2)  0.0379 (  26)  0.0357 (  21)
................................................................................
.............................. CYCLE   18 ......................................
................................................................................
   1    -50.6980638 -0.506981E+02  0.115E-01    7.52       0.0  T
   2    -50.6980901 -0.263321E-04  0.843E-02    7.54       1.0  T
   3    -50.6981061 -0.160069E-04  0.273E-02    7.58       1.0  T
   4    -50.6981084 -0.222775E-05  0.863E-03    7.58       2.3  T
   5    -50.6981085 -0.166590E-06  0.257E-03    7.58       7.6  T
   6    -50.6981085 -0.811350E-08  0.144E-03    7.58      13.6  T
speedup  0.93
cpu  time for SCC    0.00 s
wall time for SCC    0.01 s
speedup  0.98
cpu  time for grad    0.01 s
wall time for grad    0.01 s
 E :    -50.42155604  G :  0.019803    pred/act E change: -0.372D-02 -0.119D-02
Maxdispl :   0.0613   ||displ|| :   0.1528   Lambda : -0.957D-03
Largest |displ|/coords:  0.0613 (   3)  0.0461 (   1)  0.0450 (  26)
................................................................................
.............................. CYCLE   19 ......................................
................................................................................
   1    -50.7003177 -0.507003E+02  0.948E-02    7.59       0.0  T
   2    -50.7003292 -0.115111E-04  0.711E-02    7.61       1.0  T
   3    -50.7003363 -0.713647E-05  0.181E-02    7.66       1.1  T
   4    -50.7003378 -0.142061E-05  0.620E-03    7.66       3.2  T
   5    -50.7003378 -0.844888E-07  0.196E-03    7.65      10.0  T
   6    -50.7003379 -0.486449E-08  0.101E-03    7.65      19.3  T
speedup  0.94
cpu  time for SCC    0.01 s
wall time for SCC    0.01 s
speedup  0.98
cpu  time for grad    0.01 s
wall time for grad    0.01 s
 E :    -50.42218466  G :  0.019149    pred/act E change: -0.996D-03 -0.629D-03
Maxdispl :   0.1157   ||displ|| :   0.3107   Lambda : -0.150D-02
Largest |displ|/coords:  0.1157 (   3)  0.1001 (   9)  0.0907 (   2)
................................................................................
.............................. CYCLE   20 ......................................
................................................................................
   1    -50.7009112 -0.507009E+02  0.176E-01    7.70       0.0  T
   2    -50.7009610 -0.498148E-04  0.130E-01    7.76       1.0  T
   3    -50.7009829 -0.219574E-04  0.361E-02    7.85       1.0  T
   4    -50.7009883 -0.540380E-05  0.958E-03    7.85       2.0  T
   5    -50.7009886 -0.278821E-06  0.334E-03    7.84       5.9  T
   6    -50.7009886 -0.148091E-07  0.194E-03    7.84      10.1  T
   7    -50.7009886 -0.452319E-08  0.549E-04    7.84      35.7  T
speedup  1.11
cpu  time for SCC    0.01 s
wall time for SCC    0.01 s
speedup  1.06
cpu  time for grad    0.01 s
wall time for grad    0.01 s
 E :    -50.42320766  G :  0.020164    pred/act E change: -0.490D-03 -0.102D-02
Maxdispl :   0.1268   ||displ|| :   0.3347   Lambda : -0.137D-02
Largest |displ|/coords:  0.1268 (   3)  0.1055 (   9)  0.0939 (   2)
................................................................................
.............................. CYCLE   21 ......................................
................................................................................
   1    -50.7008094 -0.507008E+02  0.189E-01    7.86       0.0  T
   2    -50.7008510 -0.415942E-04  0.140E-01    7.89       1.0  T
   3    -50.7008705 -0.194682E-04  0.342E-02    7.95       1.0  T
   4    -50.7008758 -0.534294E-05  0.821E-03    7.95       2.4  T
   5    -50.7008761 -0.208451E-06  0.316E-03    7.94       6.2  T
   6    -50.7008761 -0.901431E-08  0.187E-03    7.94      10.5  T
speedup  0.94
cpu  time for SCC    0.00 s
wall time for SCC    0.01 s
speedup  0.99
cpu  time for grad    0.01 s
wall time for grad    0.01 s
 E :    -50.42400402  G :  0.016157    pred/act E change: -0.823D-03 -0.796D-03
Maxdispl :   0.0866   ||displ|| :   0.2175   Lambda : -0.723D-03
Largest |displ|/coords:  0.0866 (   5)  0.0840 (   3)  0.0608 (  27)
................................................................................
.............................. CYCLE   22 ......................................
................................................................................
   1    -50.7048235 -0.507048E+02  0.128E-01    7.96       0.0  T
   2    -50.7048473 -0.238343E-04  0.941E-02    7.97       1.0  T
   3    -50.7048578 -0.104708E-04  0.252E-02    8.02       1.0  T
   4    -50.7048605 -0.271899E-05  0.630E-03    8.01       3.1  T
   5    -50.7048606 -0.110152E-06  0.238E-03    8.01       8.2  T
   6    -50.7048606 -0.508167E-08  0.127E-03    8.01      15.4  T
speedup  0.93
cpu  time for SCC    0.00 s
wall time for SCC    0.01 s
speedup  0.98
cpu  time for grad    0.01 s
wall time for grad    0.01 s
 E :    -50.42432208  G :  0.016609    pred/act E change: -0.762D-03 -0.318D-03
Maxdispl :   0.0497   ||displ|| :   0.1444   Lambda : -0.531D-03
Largest |displ|/coords:  0.0497 (   2)  0.0485 (  27)  0.0433 (   5)
................................................................................
.............................. CYCLE   23 ......................................
................................................................................
   1    -50.7065623 -0.507066E+02  0.779E-02    8.04       0.0  T
   2    -50.7065704 -0.807465E-05  0.574E-02    8.05       1.0  T
   3    -50.7065751 -0.470166E-05  0.162E-02    8.05       1.2  T
   4    -50.7065759 -0.819321E-06  0.539E-03    8.05       3.6  T
   5    -50.7065760 -0.494079E-07  0.153E-03    8.05      12.8  T
   6    -50.7065760 -0.319819E-08  0.783E-04    8.05      25.0  T
speedup  0.93
cpu  time for SCC    0.00 s
wall time for SCC    0.01 s
speedup  0.98
cpu  time for grad    0.01 s
wall time for grad    0.01 s
 E :    -50.42446503  G :  0.018788    pred/act E change: -0.379D-03 -0.143D-03
Maxdispl :   0.0853   ||displ|| :   0.1846   Lambda : -0.705D-03
Largest |displ|/coords:  0.0853 (   5)  0.0638 (   6)  0.0586 (   3)
................................................................................
.............................. CYCLE   24 ......................................
................................................................................
   1    -50.7049639 -0.507050E+02  0.115E-01    8.04       0.0  T
   2    -50.7049742 -0.103757E-04  0.861E-02    8.04       1.0  T
   3    -50.7049798 -0.558381E-05  0.180E-02    8.04       1.1  T
   4    -50.7049814 -0.161977E-05  0.546E-03    8.04       3.6  T
   5    -50.7049815 -0.621566E-07  0.193E-03    8.04      10.2  T
   6    -50.7049815 -0.419993E-08  0.979E-04    8.04      20.0  T
speedup  1.13
cpu  time for SCC    0.01 s
wall time for SCC    0.01 s
speedup  1.05
cpu  time for grad    0.01 s
wall time for grad    0.01 s
 E :    -50.42496637  G :  0.011558    pred/act E change: -0.271D-03 -0.501D-03
Maxdispl :   0.1170   ||displ|| :   0.3007   Lambda : -0.909D-03
Largest |displ|/coords:  0.1170 (   4)  0.1103 (   5)  0.0910 (   6)
................................................................................
.............................. CYCLE   25 ......................................
................................................................................
   1    -50.7074657 -0.507075E+02  0.160E-01    7.99       0.0  T
   2    -50.7074855 -0.197328E-04  0.120E-01    7.98       1.0  T
   3    -50.7074955 -0.999771E-05  0.245E-02    7.96       1.0  T
   4    -50.7074987 -0.321890E-05  0.724E-03    7.96       2.7  T
   5    -50.7074988 -0.822341E-07  0.252E-03    7.96       7.8  T
   6    -50.7074988 -0.637607E-08  0.119E-03    7.96      16.5  T
speedup  1.11
cpu  time for SCC    0.01 s
wall time for SCC    0.01 s
speedup  0.98
cpu  time for grad    0.01 s
wall time for grad    0.01 s
 E :    -50.42543137  G :  0.020355    pred/act E change: -0.365D-03 -0.465D-03
Maxdispl :   0.1806   ||displ|| :   0.3838   Lambda : -0.996D-03
Largest |displ|/coords:  0.1806 (   5)  0.1365 (   6)  0.1334 (  10)

generating ANC from model Hessian ...
 Shifting diagonal of input Hessian by   5.054608350824199E-003
 Lowest  eigenvalues of input Hessian
    0.005000   -0.000000   -0.000000   -0.000000    0.000000    0.000000
    0.000000    0.005128    0.005372    0.005534    0.005730    0.005961
    0.006306    0.006772    0.007039    0.007458    0.008882    0.009872
 Highest eigenvalues
    1.384354    1.404369    1.408250    2.542357    3.393237    3.755113
 
cpu  time for ANC gen    0.02 s
wall time for ANC gen    0.02 s
................................................................................
.............................. CYCLE   26 ......................................
................................................................................
   1    -50.7042126 -0.507042E+02  0.224E-01    7.93       0.0  T
   2    -50.7042603 -0.477001E-04  0.168E-01    7.93       1.0  T
   3    -50.7042811 -0.207871E-04  0.383E-02    7.92       1.0  T
   4    -50.7042887 -0.757303E-05  0.979E-03    7.93       2.0  T
   5    -50.7042889 -0.210621E-06  0.359E-03    7.92       5.5  T
   6    -50.7042889 -0.104294E-07  0.186E-03    7.92      10.5  T
   7    -50.7042889 -0.535355E-08  0.528E-04    7.92      37.1  T
   8    -50.7042889 -0.761844E-09  0.159E-04    7.92     123.3  T
speedup  0.97
cpu  time for SCC    0.01 s
wall time for SCC    0.01 s
speedup  1.03
cpu  time for grad    0.02 s
wall time for grad    0.02 s
 E :    -50.42584297  G :  0.029794    pred/act E change:  0.000D+00 -0.412D-03
Maxdispl :   0.2438   ||displ|| :   0.3802   Lambda : -0.208D-02
Largest |displ|/coords:  0.2438 (   6)  0.1915 (   4)  0.1324 (   8)
................................................................................
.............................. CYCLE   27 ......................................
................................................................................
   1    -50.7048123 -0.507048E+02  0.404E-01    7.92       0.0  T
   2    -50.7048358 -0.234846E-04  0.308E-01    7.93       1.0  T
   3    -50.7048622 -0.264402E-04  0.216E-02    7.93       1.0  T
   4    -50.7048640 -0.175368E-05  0.794E-03    7.93       2.5  T
   5    -50.7048640 -0.427530E-07  0.365E-03    7.93       5.4  T
   6    -50.7048640 -0.158387E-07  0.105E-03    7.93      18.6  T
speedup  1.11
cpu  time for SCC    0.01 s
wall time for SCC    0.01 s
speedup  0.98
cpu  time for grad    0.01 s
wall time for grad    0.01 s
 E :    -50.42647937  G :  0.029515    pred/act E change:  0.000D+00 -0.636D-03
Maxdispl :   0.2068   ||displ|| :   0.3414   Lambda : -0.273D-02
Largest |displ|/coords:  0.2068 (   7)  0.1085 (   3)  0.0944 (   8)
................................................................................
.............................. CYCLE   28 ......................................
................................................................................
   1    -50.7135226 -0.507135E+02  0.376E-01    7.99       0.0  T
   2    -50.7135746 -0.520355E-04  0.285E-01    7.99       1.0  T
   3    -50.7136106 -0.359878E-04  0.392E-02    8.00       1.0  T
   4    -50.7136186 -0.802917E-05  0.104E-02    8.00       1.9  T
   5    -50.7136189 -0.244431E-06  0.436E-03    8.00       4.5  T
   6    -50.7136189 -0.907001E-08  0.226E-03    8.00       8.7  T
speedup  0.93
cpu  time for SCC    0.01 s
wall time for SCC    0.01 s
speedup  0.97
cpu  time for grad    0.01 s
wall time for grad    0.01 s
 E :    -50.42705730  G :  0.027008    pred/act E change: -0.119D-02 -0.578D-03
Maxdispl :   0.2636   ||displ|| :   0.4219   Lambda : -0.215D-02
Largest |displ|/coords:  0.2636 (   2)  0.1719 (   4)  0.1334 (   3)
................................................................................
.............................. CYCLE   29 ......................................
................................................................................
   1    -50.7118784 -0.507119E+02  0.395E-01    7.87       0.0  T
   2    -50.7119093 -0.309309E-04  0.302E-01    7.87       1.0  T
   3    -50.7119427 -0.334186E-04  0.282E-02    7.85       1.0  T
   4    -50.7119453 -0.251452E-05  0.973E-03    7.86       2.0  T
   5    -50.7119454 -0.125164E-06  0.335E-03    7.86       5.8  T
   6    -50.7119454 -0.836701E-08  0.150E-03    7.86      13.1  T
speedup  0.89
cpu  time for SCC    0.00 s
wall time for SCC    0.01 s
speedup  0.98
cpu  time for grad    0.01 s
wall time for grad    0.01 s
 E :    -50.42708284  G :  0.020121    pred/act E change: -0.152D-02 -0.255D-04
Maxdispl :   0.1646   ||displ|| :   0.2675   Lambda : -0.210D-02
Largest |displ|/coords:  0.1646 (   2)  0.0949 (   6)  0.0916 (   3)
................................................................................
.............................. CYCLE   30 ......................................
................................................................................
   1    -50.7092876 -0.507093E+02  0.207E-01    7.90       0.0  T
   2    -50.7092994 -0.117414E-04  0.157E-01    7.90       1.0  T
   3    -50.7093124 -0.130477E-04  0.191E-02    7.91       1.0  T
   4    -50.7093136 -0.115175E-05  0.719E-03    7.91       2.7  T
   5    -50.7093137 -0.665899E-07  0.267E-03    7.90       7.4  T
   6    -50.7093137 -0.682401E-08  0.111E-03    7.90      17.7  T
speedup  1.11
cpu  time for SCC    0.01 s
wall time for SCC    0.01 s
speedup  1.06
cpu  time for grad    0.01 s
wall time for grad    0.01 s
 E :    -50.42810605  G :  0.012778    pred/act E change: -0.127D-02 -0.102D-02
Maxdispl :   0.1009   ||displ|| :   0.1795   Lambda : -0.462D-03
Largest |displ|/coords:  0.1009 (   4)  0.0700 (   8)  0.0636 (  12)
................................................................................
.............................. CYCLE   31 ......................................
................................................................................
   1    -50.7105854 -0.507106E+02  0.114E-01    7.90       0.0  T
   2    -50.7105887 -0.328590E-05  0.861E-02    7.90       1.0  T
   3    -50.7105913 -0.253398E-05  0.101E-02    7.91       1.9  T
   4    -50.7105917 -0.491668E-06  0.317E-03    7.91       6.2  T
   5    -50.7105918 -0.146040E-07  0.108E-03    7.91      18.1  T
   6    -50.7105918 -0.179276E-08  0.550E-04    7.91      35.7  T
speedup  1.11
cpu  time for SCC    0.01 s
wall time for SCC    0.01 s
speedup  0.98
cpu  time for grad    0.01 s
wall time for grad    0.01 s
 E :    -50.42841669  G :  0.007788    pred/act E change: -0.113D-02 -0.311D-03
Maxdispl :   0.2897   ||displ|| :   0.4529   Lambda : -0.760D-03
Largest |displ|/coords:  0.2897 (   4)  0.1643 (   7)  0.1473 (   8)
................................................................................
.............................. CYCLE   32 ......................................
................................................................................
   1    -50.7083111 -0.507083E+02  0.293E-01    7.86       0.0  T
   2    -50.7083358 -0.246965E-04  0.220E-01    7.86       1.0  T
   3    -50.7083495 -0.137512E-04  0.267E-02    7.87       1.0  T
   4    -50.7083541 -0.460964E-05  0.795E-03    7.87       2.5  T
   5    -50.7083542 -0.995582E-07  0.340E-03    7.87       5.8  T
   6    -50.7083542 -0.111145E-07  0.152E-03    7.87      12.9  T
   7    -50.7083542 -0.511389E-08  0.426E-04    7.87      46.1  T
speedup  0.97
cpu  time for SCC    0.01 s
wall time for SCC    0.01 s
speedup  0.99
cpu  time for grad    0.01 s
wall time for grad    0.01 s
 E :    -50.42892627  G :  0.017303    pred/act E change: -0.239D-03 -0.510D-03
Maxdispl :   0.2990   ||displ|| :   0.5149   Lambda : -0.110D-02
Largest |displ|/coords:  0.2990 (   4)  0.1728 (   1)  0.1519 (   3)
................................................................................
.............................. CYCLE   33 ......................................
................................................................................
   1    -50.7101317 -0.507101E+02  0.278E-01    7.79       0.0  T
   2    -50.7101731 -0.414289E-04  0.210E-01    7.78       1.0  T
   3    -50.7101955 -0.224151E-04  0.345E-02    7.78       1.0  T
   4    -50.7102032 -0.764460E-05  0.101E-02    7.79       1.9  T
   5    -50.7102033 -0.157460E-06  0.407E-03    7.78       4.8  T
   6    -50.7102033 -0.152029E-07  0.182E-03    7.78      10.8  T
   7    -50.7102034 -0.764730E-08  0.553E-04    7.78      35.5  T
speedup  0.95
cpu  time for SCC    0.01 s
wall time for SCC    0.01 s
speedup  0.99
cpu  time for grad    0.01 s
wall time for grad    0.01 s
 E :    -50.42947308  G :  0.015734    pred/act E change: -0.458D-03 -0.547D-03
Maxdispl :   0.2680   ||displ|| :   0.4483   Lambda : -0.129D-02
Largest |displ|/coords:  0.2680 (   4)  0.1841 (   7)  0.1427 (   1)
................................................................................
.............................. CYCLE   34 ......................................
................................................................................
   1    -50.7139053 -0.507139E+02  0.299E-01    7.71       0.0  T
   2    -50.7139402 -0.349679E-04  0.224E-01    7.70       1.0  T
   3    -50.7139563 -0.160046E-04  0.324E-02    7.69       1.0  T
   4    -50.7139628 -0.656182E-05  0.928E-03    7.70       2.1  T
   5    -50.7139630 -0.160869E-06  0.395E-03    7.70       5.0  T
   6    -50.7139630 -0.175075E-07  0.186E-03    7.70      10.6  T
   7    -50.7139630 -0.686289E-08  0.582E-04    7.70      33.7  T
speedup  0.95
cpu  time for SCC    0.01 s
wall time for SCC    0.01 s
speedup  0.99
cpu  time for grad    0.01 s
wall time for grad    0.01 s
 E :    -50.43010574  G :  0.017009    pred/act E change: -0.699D-03 -0.633D-03
Maxdispl :   0.2989   ||displ|| :   0.4653   Lambda : -0.115D-02
Largest |displ|/coords:  0.2989 (   4)  0.1448 (   7)  0.1070 (   5)
................................................................................
.............................. CYCLE   35 ......................................
................................................................................
   1    -50.7103755 -0.507104E+02  0.301E-01    7.68       0.0  T
   2    -50.7104217 -0.461794E-04  0.225E-01    7.67       1.0  T
   3    -50.7104479 -0.262300E-04  0.378E-02    7.65       1.0  T
   4    -50.7104557 -0.782407E-05  0.117E-02    7.66       1.7  T
   5    -50.7104559 -0.230933E-06  0.465E-03    7.66       4.2  T
   6    -50.7104560 -0.239286E-07  0.222E-03    7.66       8.9  T
   7    -50.7104560 -0.108713E-07  0.606E-04    7.66      32.4  T
speedup  0.95
cpu  time for SCC    0.01 s
wall time for SCC    0.01 s
speedup  0.99
cpu  time for grad    0.01 s
wall time for grad    0.01 s
 E :    -50.43062755  G :  0.026917    pred/act E change: -0.778D-03 -0.522D-03
Maxdispl :   0.1400   ||displ|| :   0.3130   Lambda : -0.228D-02
Largest |displ|/coords:  0.1400 (  17)  0.1025 (   3)  0.0948 (   4)
................................................................................
.............................. CYCLE   36 ......................................
................................................................................
   1    -50.7241804 -0.507242E+02  0.263E-01    7.82       0.0  T
   2    -50.7242708 -0.904393E-04  0.194E-01    7.80       1.0  T
   3    -50.7243138 -0.430559E-04  0.525E-02    7.76       1.0  T
   4    -50.7243234 -0.955395E-05  0.136E-02    7.77       1.4  T
   5    -50.7243238 -0.389040E-06  0.461E-03    7.77       4.3  T
   6    -50.7243238 -0.195900E-07  0.236E-03    7.77       8.3  T
speedup  0.93
cpu  time for SCC    0.00 s
wall time for SCC    0.01 s
speedup  0.99
cpu  time for grad    0.01 s
wall time for grad    0.01 s
 E :    -50.43030190  G :  0.048517    pred/act E change: -0.697D-03  0.326D-03
Maxdispl :   0.2077   ||displ|| :   0.3108   Lambda : -0.372D-02
Largest |displ|/coords:  0.2077 (   4)  0.1000 (   1)  0.0849 (   2)
................................................................................
.............................. CYCLE   37 ......................................
................................................................................
   1    -50.7183990 -0.507184E+02  0.382E-01    7.67       0.0  T
   2    -50.7184809 -0.818802E-04  0.288E-01    7.67       1.0  T
   3    -50.7185391 -0.582390E-04  0.513E-02    7.66       1.0  T
   4    -50.7185501 -0.109378E-04  0.151E-02    7.67       1.3  T
   5    -50.7185506 -0.520405E-06  0.564E-03    7.66       3.5  T
   6    -50.7185506 -0.408263E-07  0.311E-03    7.66       6.3  T
speedup  0.94
cpu  time for SCC    0.00 s
wall time for SCC    0.01 s
speedup  0.99
cpu  time for grad    0.01 s
wall time for grad    0.01 s
 E :    -50.43110244  G :  0.037015    pred/act E change: -0.125D-02 -0.801D-03
Maxdispl :   0.1908   ||displ|| :   0.3490   Lambda : -0.364D-02
Largest |displ|/coords:  0.1908 (   5)  0.1694 (   7)  0.0880 (  10)
................................................................................
.............................. CYCLE   38 ......................................
................................................................................
   1    -50.7268969 -0.507269E+02  0.330E-01    7.58       0.0  T
   2    -50.7269475 -0.505619E-04  0.248E-01    7.57       1.0  T
   3    -50.7269853 -0.377684E-04  0.404E-02    7.54       1.0  T
   4    -50.7269916 -0.636958E-05  0.104E-02    7.54       1.9  T
   5    -50.7269918 -0.185233E-06  0.494E-03    7.54       4.0  T
   6    -50.7269918 -0.115779E-07  0.230E-03    7.55       8.5  T
speedup  0.91
cpu  time for SCC    0.00 s
wall time for SCC    0.01 s
speedup  0.98
cpu  time for grad    0.01 s
wall time for grad    0.01 s
 E :    -50.43076561  G :  0.048845    pred/act E change: -0.204D-02  0.337D-03
Maxdispl :   0.1316   ||displ|| :   0.3033   Lambda : -0.399D-02
Largest |displ|/coords:  0.1316 (   2)  0.1269 (   7)  0.1053 (   4)
................................................................................
.............................. CYCLE   39 ......................................
................................................................................
   1    -50.7173986 -0.507174E+02  0.361E-01    7.57       0.0  T
   2    -50.7174728 -0.741991E-04  0.271E-01    7.57       1.0  T
   3    -50.7175297 -0.568613E-04  0.489E-02    7.57       1.0  T
   4    -50.7175389 -0.920516E-05  0.131E-02    7.57       1.5  T
   5    -50.7175392 -0.277969E-06  0.569E-03    7.57       3.4  T
   6    -50.7175392 -0.372381E-07  0.276E-03    7.57       7.1  T
speedup  0.94
cpu  time for SCC    0.00 s
wall time for SCC    0.01 s
speedup  0.99
cpu  time for grad    0.01 s
wall time for grad    0.01 s
 E :    -50.43076688  G :  0.050699    pred/act E change: -0.204D-02 -0.127D-05
Maxdispl :   0.2173   ||displ|| :   0.4188   Lambda : -0.920D-02
Largest |displ|/coords:  0.2173 (   7)  0.1379 (  17)  0.1370 (   5)
................................................................................
.............................. CYCLE   40 ......................................
................................................................................
   1    -50.7265642 -0.507266E+02  0.594E-01    7.64       0.0  T
   2    -50.7267567 -0.192479E-03  0.447E-01    7.62       1.0  T
   3    -50.7268916 -0.134926E-03  0.775E-02    7.58       1.0  T
   4    -50.7269171 -0.254482E-04  0.219E-02    7.60       1.0  T
   5    -50.7269179 -0.856491E-06  0.872E-03    7.60       2.2  T
   6    -50.7269180 -0.701695E-07  0.435E-03    7.60       4.5  T
   7    -50.7269180 -0.368084E-07  0.104E-03    7.60      18.8  T
speedup  0.95
cpu  time for SCC    0.01 s
wall time for SCC    0.01 s
speedup  1.00
cpu  time for grad    0.01 s
wall time for grad    0.01 s
 E :    -50.42860320  G :  0.081216    pred/act E change: -0.218D-02  0.216D-02
Maxdispl :   0.1351   ||displ|| :   0.3768   Lambda : -0.139D-01
Largest |displ|/coords:  0.1351 (   5)  0.1228 (  17)  0.1222 (  10)
................................................................................
.............................. CYCLE   41 ......................................
................................................................................
   1    -50.7225706 -0.507226E+02  0.522E-01    7.54       0.0  T
   2    -50.7227710 -0.200339E-03  0.391E-01    7.55       1.0  T
   3    -50.7229118 -0.140811E-03  0.797E-02    7.57       1.0  T
   4    -50.7229363 -0.245068E-04  0.206E-02    7.55       1.0  T
   5    -50.7229370 -0.740382E-06  0.871E-03    7.55       2.3  T
   6    -50.7229371 -0.807672E-07  0.410E-03    7.55       4.8  T
   7    -50.7229371 -0.339162E-07  0.104E-03    7.55      18.9  T
speedup  0.95
cpu  time for SCC    0.01 s
wall time for SCC    0.01 s
speedup  0.99
cpu  time for grad    0.01 s
wall time for grad    0.01 s
 E :    -50.43042813  G :  0.061463    pred/act E change: -0.540D-02 -0.182D-02
Maxdispl :   0.0987   ||displ|| :   0.2789   Lambda : -0.744D-02
Largest |displ|/coords:  0.0987 (  10)  0.0956 (   5)  0.0897 (  17)
................................................................................
.............................. CYCLE   42 ......................................
................................................................................
   1    -50.7242703 -0.507243E+02  0.329E-01    7.56       0.0  T
   2    -50.7243607 -0.903983E-04  0.246E-01    7.56       1.0  T
   3    -50.7244273 -0.666144E-04  0.535E-02    7.55       1.0  T
   4    -50.7244373 -0.998268E-05  0.122E-02    7.56       1.6  T
   5    -50.7244375 -0.225923E-06  0.586E-03    7.56       3.3  T
   6    -50.7244375 -0.373895E-07  0.235E-03    7.56       8.4  T
speedup  1.11
cpu  time for SCC    0.01 s
wall time for SCC    0.01 s
speedup  0.98
cpu  time for grad    0.01 s
wall time for grad    0.01 s
 E :    -50.43173867  G :  0.038467    pred/act E change: -0.794D-02 -0.131D-02
Maxdispl :   0.0548   ||displ|| :   0.1567   Lambda : -0.217D-02
Largest |displ|/coords:  0.0548 (  20)  0.0512 (  13)  0.0466 (  23)
................................................................................
.............................. CYCLE   43 ......................................
................................................................................
   1    -50.7255091 -0.507255E+02  0.163E-01    7.57       0.0  T
   2    -50.7255228 -0.136464E-04  0.122E-01    7.56       1.0  T
   3    -50.7255357 -0.129902E-04  0.223E-02    7.54       1.0  T
   4    -50.7255370 -0.123243E-05  0.682E-03    7.55       2.9  T
   5    -50.7255370 -0.650621E-07  0.248E-03    7.55       7.9  T
   6    -50.7255371 -0.930004E-08  0.124E-03    7.55      15.8  T
speedup  1.09
cpu  time for SCC    0.01 s
wall time for SCC    0.01 s
speedup  0.98
cpu  time for grad    0.01 s
wall time for grad    0.01 s
 E :    -50.43276172  G :  0.014128    pred/act E change: -0.401D-02 -0.102D-02
Maxdispl :   0.0674   ||displ|| :   0.1408   Lambda : -0.593D-03
Largest |displ|/coords:  0.0674 (  12)  0.0584 (  19)  0.0458 (   7)
................................................................................
.............................. CYCLE   44 ......................................
................................................................................
   1    -50.7270016 -0.507270E+02  0.145E-01    7.52       0.0  T
   2    -50.7270083 -0.671449E-05  0.110E-01    7.52       1.0  T
   3    -50.7270142 -0.582655E-05  0.137E-02    7.51       1.4  T
   4    -50.7270150 -0.810248E-06  0.367E-03    7.51       5.3  T
   5    -50.7270150 -0.149542E-07  0.180E-03    7.51      10.9  T
   6    -50.7270150 -0.415957E-08  0.731E-04    7.51      26.8  T
speedup  0.93
cpu  time for SCC    0.00 s
wall time for SCC    0.01 s
speedup  0.98
cpu  time for grad    0.01 s
wall time for grad    0.01 s
 E :    -50.43281625  G :  0.016778    pred/act E change: -0.111D-02 -0.545D-04
Maxdispl :   0.0373   ||displ|| :   0.0861   Lambda : -0.389D-03
Largest |displ|/coords:  0.0373 (   1)  0.0332 (  17)  0.0316 (   5)
................................................................................
.............................. CYCLE   45 ......................................
................................................................................
   1    -50.7269180 -0.507269E+02  0.781E-02    7.51       0.0  T
   2    -50.7269207 -0.262217E-05  0.585E-02    7.50       1.0  T
   3    -50.7269225 -0.180845E-05  0.909E-03    7.50       2.2  T
   4    -50.7269228 -0.358382E-06  0.232E-03    7.50       8.5  T
   5    -50.7269228 -0.780435E-08  0.947E-04    7.50      20.7  T
speedup  1.06
cpu  time for SCC    0.00 s
wall time for SCC    0.00 s
speedup  1.03
cpu  time for grad    0.01 s
wall time for grad    0.01 s
 E :    -50.43307018  G :  0.007052    pred/act E change: -0.302D-03 -0.254D-03
Maxdispl :   0.0644   ||displ|| :   0.1741   Lambda : -0.275D-03
Largest |displ|/coords:  0.0644 (   4)  0.0556 (  20)  0.0509 (   5)
................................................................................
.............................. CYCLE   46 ......................................
................................................................................
   1    -50.7270676 -0.507271E+02  0.123E-01    7.48       0.0  T
   2    -50.7270755 -0.787884E-05  0.921E-02    7.47       1.0  T
   3    -50.7270803 -0.483403E-05  0.170E-02    7.45       1.2  T
   4    -50.7270814 -0.110855E-05  0.549E-03    7.45       3.6  T
   5    -50.7270814 -0.494550E-07  0.181E-03    7.45      10.8  T
   6    -50.7270815 -0.427259E-08  0.962E-04    7.45      20.4  T
speedup  1.09
cpu  time for SCC    0.01 s
wall time for SCC    0.01 s
speedup  1.05
cpu  time for grad    0.01 s
wall time for grad    0.01 s
 E :    -50.43320999  G :  0.011393    pred/act E change: -0.196D-03 -0.140D-03
Maxdispl :   0.0782   ||displ|| :   0.1815   Lambda : -0.269D-03
Largest |displ|/coords:  0.0782 (   4)  0.0515 (   5)  0.0514 (   7)
................................................................................
.............................. CYCLE   47 ......................................
................................................................................
   1    -50.7277529 -0.507278E+02  0.118E-01    7.43       0.0  T
   2    -50.7277571 -0.418690E-05  0.879E-02    7.42       1.0  T
   3    -50.7277599 -0.280785E-05  0.124E-02    7.40       1.6  T
   4    -50.7277605 -0.589994E-06  0.363E-03    7.40       5.4  T
   5    -50.7277605 -0.176280E-07  0.136E-03    7.40      14.4  T
   6    -50.7277605 -0.284158E-08  0.733E-04    7.40      26.8  T
speedup  0.93
cpu  time for SCC    0.00 s
wall time for SCC    0.01 s
speedup  0.98
cpu  time for grad    0.01 s
wall time for grad    0.01 s
 E :    -50.43340564  G :  0.010654    pred/act E change: -0.142D-03 -0.196D-03
Maxdispl :   0.1232   ||displ|| :   0.2979   Lambda : -0.382D-03
Largest |displ|/coords:  0.1232 (   4)  0.0914 (   5)  0.0908 (  20)
................................................................................
.............................. CYCLE   48 ......................................
................................................................................
   1    -50.7289256 -0.507289E+02  0.190E-01    7.36       0.0  T
   2    -50.7289350 -0.946906E-05  0.142E-01    7.34       1.0  T
   3    -50.7289423 -0.732480E-05  0.189E-02    7.31       1.0  T
   4    -50.7289436 -0.121063E-05  0.648E-03    7.32       3.0  T
   5    -50.7289436 -0.502512E-07  0.219E-03    7.32       8.9  T
   6    -50.7289436 -0.711696E-08  0.124E-03    7.32      15.8  T
speedup  0.88
cpu  time for SCC    0.00 s
wall time for SCC    0.01 s
speedup  0.97
cpu  time for grad    0.01 s
wall time for grad    0.01 s
 E :    -50.43367747  G :  0.008312    pred/act E change: -0.139D-03 -0.272D-03
Maxdispl :   0.1414   ||displ|| :   0.3125   Lambda : -0.348D-03
Largest |displ|/coords:  0.1414 (   4)  0.1017 (  12)  0.0860 (   5)
................................................................................
.............................. CYCLE   49 ......................................
................................................................................
   1    -50.7308563 -0.507309E+02  0.191E-01    7.28       0.0  T
   2    -50.7308650 -0.865366E-05  0.143E-01    7.27       1.0  T
   3    -50.7308720 -0.700897E-05  0.193E-02    7.24       1.0  T
   4    -50.7308730 -0.105997E-05  0.689E-03    7.24       2.8  T
   5    -50.7308731 -0.540440E-07  0.207E-03    7.24       9.5  T
   6    -50.7308731 -0.683149E-08  0.122E-03    7.24      16.0  T
speedup  0.93
cpu  time for SCC    0.00 s
wall time for SCC    0.01 s
speedup  0.99
cpu  time for grad    0.01 s
wall time for grad    0.01 s
 E :    -50.43390413  G :  0.009992    pred/act E change: -0.208D-03 -0.227D-03
Maxdispl :   0.1520   ||displ|| :   0.3310   Lambda : -0.355D-03
Largest |displ|/coords:  0.1520 (   4)  0.1139 (   5)  0.0987 (   2)
................................................................................
.............................. CYCLE   50 ......................................
................................................................................
   1    -50.7314427 -0.507314E+02  0.202E-01    7.24       0.0  T
   2    -50.7314506 -0.783827E-05  0.151E-01    7.23       1.0  T
   3    -50.7314577 -0.718116E-05  0.185E-02    7.22       1.1  T
   4    -50.7314585 -0.814906E-06  0.687E-03    7.22       2.9  T
   5    -50.7314586 -0.492272E-07  0.199E-03    7.22       9.8  T
   6    -50.7314586 -0.561205E-08  0.120E-03    7.22      16.4  T
speedup  0.91
cpu  time for SCC    0.00 s
wall time for SCC    0.01 s
speedup  0.98
cpu  time for grad    0.01 s
wall time for grad    0.01 s
 E :    -50.43416983  G :  0.011621    pred/act E change: -0.191D-03 -0.266D-03
Maxdispl :   0.1843   ||displ|| :   0.3944   Lambda : -0.605D-03
Largest |displ|/coords:  0.1843 (   4)  0.1293 (   2)  0.1257 (   5)
................................................................................
.............................. CYCLE   51 ......................................
................................................................................
   1    -50.7354694 -0.507355E+02  0.218E-01    7.28       0.0  T
   2    -50.7354778 -0.837519E-05  0.163E-01    7.28       1.0  T
   3    -50.7354856 -0.780612E-05  0.208E-02    7.27       1.0  T
   4    -50.7354864 -0.800844E-06  0.750E-03    7.27       2.6  T
   5    -50.7354864 -0.615240E-07  0.195E-03    7.27      10.1  T
   6    -50.7354864 -0.450718E-08  0.121E-03    7.27      16.2  T
speedup  0.91
cpu  time for SCC    0.00 s
wall time for SCC    0.01 s
speedup  0.98
cpu  time for grad    0.01 s
wall time for grad    0.01 s
 E :    -50.43462037  G :  0.012483    pred/act E change: -0.197D-03 -0.451D-03
Maxdispl :   0.3190   ||displ|| :   0.6547   Lambda : -0.937D-03
Largest |displ|/coords:  0.3190 (   4)  0.2149 (   2)  0.1894 (   5)
................................................................................
.............................. CYCLE   52 ......................................
................................................................................
   1    -50.7276065 -0.507276E+02  0.410E-01    7.12       0.0  T
   2    -50.7276441 -0.375077E-04  0.304E-01    7.12       1.0  T
   3    -50.7276717 -0.276685E-04  0.470E-02    7.11       1.0  T
   4    -50.7276761 -0.440858E-05  0.182E-02    7.11       1.1  T
   5    -50.7276765 -0.334171E-06  0.390E-03    7.11       5.0  T
   6    -50.7276765 -0.187058E-07  0.252E-03    7.11       7.8  T
   7    -50.7276765 -0.981056E-08  0.694E-04    7.11      28.3  T
speedup  0.95
cpu  time for SCC    0.01 s
wall time for SCC    0.01 s
speedup  0.99
cpu  time for grad    0.01 s
wall time for grad    0.01 s
 E :    -50.43492371  G :  0.020528    pred/act E change: -0.350D-03 -0.303D-03
Maxdispl :   0.0868   ||displ|| :   0.2649   Lambda : -0.128D-02
Largest |displ|/coords:  0.0868 (  35)  0.0857 (  12)  0.0765 (  20)

generating ANC from model Hessian ...
 Shifting diagonal of input Hessian by   4.930631328962736E-003
 Lowest  eigenvalues of input Hessian
   -0.000000   -0.000000    0.000000    0.000000    0.000000    0.000000
    0.005000    0.005112    0.005309    0.005669    0.006078    0.006518
    0.006596    0.006746    0.007101    0.007954    0.008814    0.009020
 Highest eigenvalues
    1.405012    1.418215    1.422327    2.571826    3.391725    3.823170
 
cpu  time for ANC gen    0.02 s
wall time for ANC gen    0.02 s
................................................................................
.............................. CYCLE   53 ......................................
................................................................................
   1    -50.7339434 -0.507339E+02  0.155E-01    7.35       0.0  T
   2    -50.7339652 -0.217964E-04  0.115E-01    7.37       1.0  T
   3    -50.7339792 -0.139569E-04  0.266E-02    7.41       1.0  T
   4    -50.7339815 -0.232516E-05  0.723E-03    7.41       2.7  T
   5    -50.7339816 -0.980276E-07  0.286E-03    7.41       6.9  T
   6    -50.7339816 -0.953325E-08  0.144E-03    7.41      13.7  T
   7    -50.7339816 -0.316247E-08  0.429E-04    7.41      45.7  T
   8    -50.7339816 -0.469988E-09  0.129E-04    7.41     152.5  T
speedup  0.97
cpu  time for SCC    0.01 s
wall time for SCC    0.01 s
speedup  0.96
cpu  time for grad    0.01 s
wall time for grad    0.02 s
 E :    -50.43535171  G :  0.015491    pred/act E change:  0.000D+00 -0.428D-03
Maxdispl :   0.1089   ||displ|| :   0.2616   Lambda : -0.108D-02
Largest |displ|/coords:  0.1089 (   3)  0.1071 (   2)  0.0830 (  24)
................................................................................
.............................. CYCLE   54 ......................................
................................................................................
   1    -50.7327498 -0.507327E+02  0.192E-01    7.36       0.0  T
   2    -50.7327559 -0.612098E-05  0.144E-01    7.37       1.0  T
   3    -50.7327609 -0.496044E-05  0.167E-02    7.37       1.2  T
   4    -50.7327617 -0.768662E-06  0.485E-03    7.37       4.0  T
   5    -50.7327617 -0.508820E-07  0.187E-03    7.37      10.5  T
   6    -50.7327617 -0.224416E-08  0.978E-04    7.37      20.0  T
speedup  0.93
cpu  time for SCC    0.00 s
wall time for SCC    0.01 s
speedup  0.98
cpu  time for grad    0.01 s
wall time for grad    0.01 s
 E :    -50.43618159  G :  0.008851    pred/act E change:  0.000D+00 -0.830D-03
Maxdispl :   0.2645   ||displ|| :   0.5349   Lambda : -0.127D-02
Largest |displ|/coords:  0.2645 (   3)  0.2640 (   2)  0.1531 (   9)
................................................................................
.............................. CYCLE   55 ......................................
................................................................................
   1    -50.7272602 -0.507273E+02  0.312E-01    7.28       0.0  T
   2    -50.7272719 -0.117011E-04  0.233E-01    7.29       1.0  T
   3    -50.7272794 -0.745716E-05  0.228E-02    7.32       1.0  T
   4    -50.7272812 -0.180607E-05  0.705E-03    7.31       2.8  T
   5    -50.7272813 -0.119831E-06  0.304E-03    7.31       6.4  T
   6    -50.7272813 -0.715424E-08  0.159E-03    7.31      12.3  T
   7    -50.7272813 -0.644311E-08  0.271E-04    7.31      72.5  T
speedup  0.97
cpu  time for SCC    0.01 s
wall time for SCC    0.01 s
speedup  0.99
cpu  time for grad    0.01 s
wall time for grad    0.01 s
 E :    -50.43675981  G :  0.027546    pred/act E change: -0.579D-03 -0.578D-03
Maxdispl :   0.1483   ||displ|| :   0.2639   Lambda : -0.112D-02
Largest |displ|/coords:  0.1483 (   3)  0.1149 (   2)  0.0838 (   5)
................................................................................
.............................. CYCLE   56 ......................................
................................................................................
   1    -50.7290487 -0.507290E+02  0.163E-01    7.28       0.0  T
   2    -50.7290569 -0.818521E-05  0.124E-01    7.28       1.0  T
   3    -50.7290654 -0.851192E-05  0.151E-02    7.30       1.3  T
   4    -50.7290663 -0.865539E-06  0.533E-03    7.30       3.7  T
   5    -50.7290663 -0.445663E-07  0.196E-03    7.30      10.0  T
speedup  1.09
cpu  time for SCC    0.00 s
wall time for SCC    0.00 s
speedup  1.06
cpu  time for grad    0.01 s
wall time for grad    0.01 s
 E :    -50.43747535  G :  0.016723    pred/act E change: -0.815D-03 -0.716D-03
Maxdispl :   0.2892   ||displ|| :   0.4655   Lambda : -0.123D-02
Largest |displ|/coords:  0.2892 (   3)  0.2498 (   2)  0.1100 (   1)
................................................................................
.............................. CYCLE   57 ......................................
................................................................................
   1    -50.7317341 -0.507317E+02  0.148E-01    7.24       0.0  T
   2    -50.7317441 -0.100498E-04  0.110E-01    7.25       1.0  T
   3    -50.7317498 -0.569521E-05  0.227E-02    7.27       1.0  T
   4    -50.7317512 -0.137281E-05  0.579E-03    7.27       3.4  T
   5    -50.7317513 -0.105772E-06  0.204E-03    7.27       9.6  T
   6    -50.7317513 -0.360841E-08  0.116E-03    7.27      16.9  T
speedup  0.93
cpu  time for SCC    0.00 s
wall time for SCC    0.01 s
speedup  0.98
cpu  time for grad    0.01 s
wall time for grad    0.01 s
 E :    -50.43839238  G :  0.011455    pred/act E change: -0.602D-03 -0.917D-03
Maxdispl :   0.4405   ||displ|| :   0.7487   Lambda : -0.172D-02
Largest |displ|/coords:  0.4405 (   2)  0.4289 (   3)  0.1877 (   1)
................................................................................
.............................. CYCLE   58 ......................................
................................................................................
   1    -50.7284483 -0.507284E+02  0.305E-01    7.19       0.0  T
   2    -50.7284656 -0.173312E-04  0.229E-01    7.20       1.0  T
   3    -50.7284788 -0.131395E-04  0.270E-02    7.24       1.0  T
   4    -50.7284814 -0.263916E-05  0.919E-03    7.24       2.1  T
   5    -50.7284816 -0.147730E-06  0.337E-03    7.24       5.8  T
   6    -50.7284816 -0.124385E-07  0.159E-03    7.24      12.3  T
   7    -50.7284816 -0.101331E-07  0.378E-04    7.24      51.8  T
speedup  0.95
cpu  time for SCC    0.01 s
wall time for SCC    0.01 s
speedup  0.99
cpu  time for grad    0.01 s
wall time for grad    0.01 s
 E :    -50.43971616  G :  0.018289    pred/act E change: -0.747D-03 -0.132D-02
Maxdispl :   0.3138   ||displ|| :   0.5104   Lambda : -0.139D-02
Largest |displ|/coords:  0.3138 (   3)  0.1903 (   2)  0.1875 (  10)
................................................................................
.............................. CYCLE   59 ......................................
................................................................................
   1    -50.7298698 -0.507299E+02  0.238E-01    7.30       0.0  T
   2    -50.7298835 -0.137184E-04  0.179E-01    7.31       1.0  T
   3    -50.7298945 -0.110704E-04  0.196E-02    7.33       1.0  T
   4    -50.7298964 -0.183904E-05  0.635E-03    7.33       3.1  T
   5    -50.7298964 -0.514100E-07  0.296E-03    7.33       6.6  T
   6    -50.7298964 -0.893230E-08  0.140E-03    7.33      14.0  T
speedup  1.11
cpu  time for SCC    0.01 s
wall time for SCC    0.01 s
speedup  1.05
cpu  time for grad    0.01 s
wall time for grad    0.01 s
 E :    -50.44058816  G :  0.017083    pred/act E change: -0.134D-02 -0.872D-03
Maxdispl :   0.2017   ||displ|| :   0.3744   Lambda : -0.112D-02
Largest |displ|/coords:  0.2017 (   3)  0.1283 (   1)  0.1166 (   4)
................................................................................
.............................. CYCLE   60 ......................................
................................................................................
   1    -50.7315217 -0.507315E+02  0.170E-01    7.39       0.0  T
   2    -50.7315283 -0.656823E-05  0.128E-01    7.39       1.0  T
   3    -50.7315353 -0.700528E-05  0.143E-02    7.40       1.4  T
   4    -50.7315360 -0.657520E-06  0.570E-03    7.40       3.4  T
   5    -50.7315360 -0.488527E-07  0.217E-03    7.40       9.0  T
   6    -50.7315360 -0.840301E-08  0.122E-03    7.40      16.1  T
speedup  1.07
cpu  time for SCC    0.01 s
wall time for SCC    0.01 s
speedup  1.04
cpu  time for grad    0.01 s
wall time for grad    0.01 s
 E :    -50.44140410  G :  0.012572    pred/act E change: -0.879D-03 -0.816D-03
Maxdispl :   0.2421   ||displ|| :   0.5006   Lambda : -0.109D-02
Largest |displ|/coords:  0.2421 (   3)  0.1717 (   7)  0.1636 (   1)
................................................................................
.............................. CYCLE   61 ......................................
................................................................................
   1    -50.7304958 -0.507305E+02  0.233E-01    7.48       0.0  T
   2    -50.7305115 -0.157269E-04  0.175E-01    7.49       1.0  T
   3    -50.7305260 -0.144680E-04  0.226E-02    7.52       1.0  T
   4    -50.7305278 -0.184392E-05  0.894E-03    7.52       2.2  T
   5    -50.7305280 -0.126424E-06  0.300E-03    7.52       6.5  T
   6    -50.7305280 -0.124806E-07  0.178E-03    7.52      11.0  T
speedup  1.09
cpu  time for SCC    0.01 s
wall time for SCC    0.01 s
speedup  1.04
cpu  time for grad    0.01 s
wall time for grad    0.01 s
 E :    -50.44208506  G :  0.010896    pred/act E change: -0.639D-03 -0.681D-03
Maxdispl :   0.2652   ||displ|| :   0.4631   Lambda : -0.595D-03
Largest |displ|/coords:  0.2652 (   3)  0.1704 (   1)  0.1187 (  10)
................................................................................
.............................. CYCLE   62 ......................................
................................................................................
   1    -50.7267046 -0.507267E+02  0.197E-01    7.46       0.0  T
   2    -50.7267202 -0.155876E-04  0.148E-01    7.47       1.0  T
   3    -50.7267309 -0.106715E-04  0.230E-02    7.50       1.0  T
   4    -50.7267331 -0.227100E-05  0.735E-03    7.49       2.7  T
   5    -50.7267333 -0.132880E-06  0.294E-03    7.49       6.7  T
   6    -50.7267333 -0.926767E-08  0.158E-03    7.49      12.4  T
speedup  1.11
cpu  time for SCC    0.01 s
wall time for SCC    0.01 s
speedup  0.98
cpu  time for grad    0.01 s
wall time for grad    0.01 s
 E :    -50.44223025  G :  0.018104    pred/act E change: -0.683D-03 -0.145D-03
Maxdispl :   0.0758   ||displ|| :   0.1981   Lambda : -0.751D-03
Largest |displ|/coords:  0.0758 (   4)  0.0636 (   2)  0.0586 (  23)
................................................................................
.............................. CYCLE   63 ......................................
................................................................................
   1    -50.7336083 -0.507336E+02  0.971E-02    7.58       0.0  T
   2    -50.7336173 -0.900498E-05  0.722E-02    7.59       1.0  T
   3    -50.7336232 -0.592996E-05  0.187E-02    7.60       1.1  T
   4    -50.7336242 -0.919701E-06  0.513E-03    7.60       3.8  T
   5    -50.7336242 -0.449583E-07  0.183E-03    7.60      10.7  T
   6    -50.7336242 -0.254247E-08  0.940E-04    7.60      20.9  T
speedup  0.93
cpu  time for SCC    0.00 s
wall time for SCC    0.01 s
speedup  0.98
cpu  time for grad    0.01 s
wall time for grad    0.01 s
 E :    -50.44227848  G :  0.016796    pred/act E change: -0.361D-03 -0.482D-04
Maxdispl :   0.0764   ||displ|| :   0.1582   Lambda : -0.798D-03
Largest |displ|/coords:  0.0764 (   2)  0.0648 (   3)  0.0529 (  19)
................................................................................
.............................. CYCLE   64 ......................................
................................................................................
   1    -50.7304863 -0.507305E+02  0.139E-01    7.61       0.0  T
   2    -50.7304945 -0.816008E-05  0.105E-01    7.61       1.0  T
   3    -50.7305030 -0.848366E-05  0.154E-02    7.61       1.3  T
   4    -50.7305038 -0.849397E-06  0.465E-03    7.61       4.2  T
   5    -50.7305039 -0.213410E-07  0.214E-03    7.61       9.2  T
   6    -50.7305039 -0.688600E-08  0.856E-04    7.61      22.9  T
speedup  0.93
[...]
   2    -50.7517741 -0.496831E-07  0.114E-02    9.19       1.7  T
   3    -50.7517741 -0.320245E-07  0.186E-03    9.19      10.6  T
   4    -50.7517742 -0.714017E-08  0.606E-04    9.19      32.4  T
   5    -50.7517742 -0.262872E-09  0.848E-05    9.19     231.4  T
speedup  1.11
cpu  time for SCC    0.00 s
wall time for SCC    0.00 s
speedup  0.99
cpu  time for grad    0.01 s
wall time for grad    0.01 s
 E :    -50.46282147  G :  0.000401    pred/act E change: -0.260D-04 -0.125D-05
Maxdispl :   0.0319   ||displ|| :   0.0790   Lambda : -0.575D-05
Largest |displ|/coords:  0.0319 (  37)  0.0240 (   5)  0.0228 (   1)
................................................................................
.............................. CYCLE  168 ......................................
................................................................................
   1    -50.7515617 -0.507516E+02  0.707E-02    9.19       0.0  T
   2    -50.7515628 -0.114698E-05  0.527E-02    9.19       1.0  T
   3    -50.7515635 -0.713446E-06  0.918E-03    9.19       2.1  T
   4    -50.7515637 -0.162204E-06  0.290E-03    9.19       6.8  T
   5    -50.7515637 -0.602149E-08  0.413E-04    9.19      47.5  T
   6    -50.7515637 -0.127343E-09  0.266E-04    9.19      73.7  T
speedup  1.11
cpu  time for SCC    0.01 s
wall time for SCC    0.01 s
speedup  1.01
cpu  time for grad    0.01 s
wall time for grad    0.01 s
 E :    -50.46282369  G :  0.001676    pred/act E change: -0.703D-06 -0.222D-05
Maxdispl :   0.0075   ||displ|| :   0.0195   Lambda : -0.234D-05
Largest |displ|/coords:  0.0075 (  37)  0.0062 (   1)  0.0057 (  20)
................................................................................
.............................. CYCLE  169 ......................................
................................................................................
   1    -50.7517495 -0.507517E+02  0.172E-02    9.19       0.0  T
   2    -50.7517496 -0.908964E-07  0.128E-02    9.19       1.5  T
   3    -50.7517497 -0.437162E-07  0.240E-03    9.19       8.2  T
   4    -50.7517497 -0.144489E-07  0.758E-04    9.19      25.9  T
   5    -50.7517497 -0.508685E-09  0.137E-04    9.19     142.8  T
speedup  1.09
cpu  time for SCC    0.00 s
wall time for SCC    0.00 s
speedup  0.99
cpu  time for grad    0.01 s
wall time for grad    0.01 s
 E :    -50.46282489  G :  0.000477    pred/act E change: -0.289D-05 -0.120D-05
Maxdispl :   0.0059   ||displ|| :   0.0152   Lambda : -0.952D-06
Largest |displ|/coords:  0.0059 (   5)  0.0056 (  37)  0.0043 (  39)
................................................................................
.............................. CYCLE  170 ......................................
................................................................................
   1    -50.7517946 -0.507518E+02  0.130E-02    9.19       0.0  T
   2    -50.7517946 -0.357245E-07  0.964E-03    9.19       2.0  T
   3    -50.7517946 -0.291772E-07  0.167E-03    9.19      11.7  T
   4    -50.7517946 -0.380157E-08  0.533E-04    9.19      36.8  T
   5    -50.7517946 -0.273097E-09  0.769E-05    9.19     254.9  T
speedup  1.09
cpu  time for SCC    0.00 s
wall time for SCC    0.00 s
speedup  0.98
cpu  time for grad    0.01 s
wall time for grad    0.01 s
 E :    -50.46282569  G :  0.000307    pred/act E change: -0.117D-05 -0.797D-06
Maxdispl :   0.0161   ||displ|| :   0.0408   Lambda : -0.208D-05
Largest |displ|/coords:  0.0161 (  37)  0.0124 (  39)  0.0120 (  20)
................................................................................
.............................. CYCLE  171 ......................................
................................................................................
   1    -50.7518008 -0.507518E+02  0.360E-02    9.19       0.0  T
   2    -50.7518011 -0.295162E-06  0.267E-02    9.19       1.0  T
   3    -50.7518013 -0.217959E-06  0.499E-03    9.19       3.9  T
   4    -50.7518014 -0.331468E-07  0.153E-03    9.19      12.8  T
   5    -50.7518014 -0.216578E-08  0.205E-04    9.19      95.4  T
   6    -50.7518014 -0.386464E-10  0.139E-04    9.19     141.5  T
speedup  0.91
cpu  time for SCC    0.00 s
wall time for SCC    0.01 s
speedup  1.00
cpu  time for grad    0.01 s
wall time for grad    0.01 s
 E :    -50.46282709  G :  0.000285    pred/act E change: -0.476D-06 -0.140D-05
Maxdispl :   0.0079   ||displ|| :   0.0228   Lambda : -0.741D-06
Largest |displ|/coords:  0.0079 (  37)  0.0072 (   1)  0.0066 (  39)
................................................................................
.............................. CYCLE  172 ......................................
................................................................................
   1    -50.7518004 -0.507518E+02  0.182E-02    9.19       0.0  T
   2    -50.7518005 -0.788575E-07  0.135E-02    9.19       1.5  T
   3    -50.7518006 -0.593564E-07  0.261E-03    9.20       7.5  T
   4    -50.7518006 -0.846315E-08  0.788E-04    9.19      24.9  T
   5    -50.7518006 -0.645777E-09  0.111E-04    9.19     175.9  T
speedup  1.09
cpu  time for SCC    0.00 s
wall time for SCC    0.00 s
speedup  0.99
cpu  time for grad    0.01 s
wall time for grad    0.01 s
 E :    -50.46282764  G :  0.000231    pred/act E change: -0.104D-05 -0.556D-06
Maxdispl :   0.0109   ||displ|| :   0.0213   Lambda : -0.610D-06
Largest |displ|/coords:  0.0109 (   1)  0.0073 (   7)  0.0063 (  10)
................................................................................
.............................. CYCLE  173 ......................................
................................................................................
   1    -50.7518120 -0.507518E+02  0.137E-02    9.20       0.0  T
   2    -50.7518120 -0.432733E-07  0.102E-02    9.20       1.9  T
   3    -50.7518121 -0.360649E-07  0.190E-03    9.20      10.3  T
   4    -50.7518121 -0.448559E-08  0.576E-04    9.20      34.0  T
   5    -50.7518121 -0.402402E-09  0.108E-04    9.20     181.5  T
speedup  1.09
cpu  time for SCC    0.00 s
wall time for SCC    0.00 s
speedup  0.99
cpu  time for grad    0.01 s
wall time for grad    0.01 s
 E :    -50.46282805  G :  0.000208    pred/act E change: -0.371D-06 -0.411D-06
Maxdispl :   0.0072   ||displ|| :   0.0139   Lambda : -0.287D-06
Largest |displ|/coords:  0.0072 (   1)  0.0047 (   7)  0.0035 (  37)
................................................................................
.............................. CYCLE  174 ......................................
................................................................................
   1    -50.7517856 -0.507518E+02  0.915E-03    9.20       0.0  T
   2    -50.7517856 -0.194833E-07  0.682E-03    9.20       2.9  T
   3    -50.7517856 -0.144377E-07  0.123E-03    9.20      15.9  T
   4    -50.7517856 -0.243804E-08  0.385E-04    9.20      51.0  T
   5    -50.7517856 -0.143110E-09  0.702E-05    9.20     279.3  T
speedup  0.89
cpu  time for SCC    0.00 s
wall time for SCC    0.00 s
speedup  1.00
cpu  time for grad    0.01 s
wall time for grad    0.01 s
 E :    -50.46282824  G :  0.000149    pred/act E change: -0.305D-06 -0.191D-06
Maxdispl :   0.0067   ||displ|| :   0.0113   Lambda : -0.206D-06
Largest |displ|/coords:  0.0067 (   1)  0.0055 (   5)  0.0033 (   7)
................................................................................
.............................. CYCLE  175 ......................................
................................................................................
   1    -50.7518071 -0.507518E+02  0.644E-03    9.20       0.0  T
   2    -50.7518071 -0.554419E-08  0.483E-03    9.20       4.1  T
   3    -50.7518072 -0.668653E-08  0.495E-04    9.19      39.6  T
   4    -50.7518072 -0.400000E-09  0.185E-04    9.20     105.8  T
speedup  1.11
cpu  time for SCC    0.00 s
wall time for SCC    0.00 s
speedup  0.98
cpu  time for grad    0.01 s
wall time for grad    0.01 s
 E :    -50.46282836  G :  0.000204    pred/act E change: -0.144D-06 -0.111D-06
Maxdispl :   0.0016   ||displ|| :   0.0033   Lambda : -0.924D-07
Largest |displ|/coords:  0.0016 (   5)  0.0015 (  10)  0.0010 (   2)
................................................................................
.............................. CYCLE  176 ......................................
................................................................................
   1    -50.7517893 -0.507518E+02  0.215E-03    9.19       0.0  T
   2    -50.7517893 -0.937014E-09  0.160E-03    9.19      12.2  T
   3    -50.7517893 -0.586269E-09  0.213E-04    9.19      92.2  T
   4    -50.7517893 -0.126064E-09  0.836E-05    9.19     234.5  T
speedup  1.08
cpu  time for SCC    0.00 s
wall time for SCC    0.00 s
speedup  0.98
cpu  time for grad    0.01 s
wall time for grad    0.01 s
 E :    -50.46282841  G :  0.000097    pred/act E change: -0.103D-06 -0.570D-07
Maxdispl :   0.0019   ||displ|| :   0.0039   Lambda : -0.541D-07
Largest |displ|/coords:  0.0019 (   5)  0.0014 (  10)  0.0009 (  39)

   *** GEOMETRY OPTIMIZATION CONVERGED AFTER 176 ITERATIONS ***

------------------------------------------------------------------------
 total energy gain (kcal):     -0.0596
------------------------------------------------------------------------
================
 final structure:
================
$coord
       -1.91678256257817        3.39928937551030        0.90521272088992      S 
        0.59396641395550        2.72732248154811        0.01921221461264      O 
       -2.47122981070255        2.16559289832319        3.31578710103687      O 
       -3.88737063477832        3.00029801648205       -0.94039778803366      O 
       -1.85869951942602        6.34277320724615        1.44380962938847      O 
       -3.60472827425635        6.73606437698785        1.28187503332978      H 
       -3.24588373004027        0.84213618798613       -3.19475346224499      H 
        3.89893780487091       -2.19121458115177        4.26500782037994      O 
        4.41455265442903       -0.65244114674341        5.07076908809574      H 
       -0.67378136072178       -3.91008356491179       -1.58293400194584      O 
       -1.21411610433455       -5.46866185277132       -2.32749476341455      H 
        1.80851739137428        2.41385418693826       -4.90921381752710      O 
        1.37180219261525        2.92514408240692       -3.19166963993558      H 
        3.36683765109578        1.49452035284081       -4.75983656461281      H 
       -2.45698540929906       -0.37849554118205       -4.34380765762692      O 
       -1.00464981020260        0.53460811061124       -5.03193231082213      H 
       -1.41323498205213       -2.52238675287043       -2.69130404330595      H 
        3.76039113581936       -1.20891811493986       -0.59898284998781      O 
        2.54651984585323       -2.42280047810977       -1.23599785059544      H 
        2.78905964656564        0.34116496618655       -0.36106832427969      H 
        4.22456181667560       -1.94455301150983        2.43194886148069      H 
       -1.02827716946559       -2.48045377422368        3.30344806051416      N 
       -1.05946423132863       -3.13653511181355        1.43818899562376      H 
        0.87110802133683       -2.48024864144573        3.92680923064405      H 
       -1.68511569541010       -0.55438807186674        3.33336742200519      H 
       -2.12593526109520       -3.57158759946358        4.43395689634945      H 
$end
 
 Bond Distances (Angstroems)
 ---------------------------
S1-O2=1.4531         S1-O3=1.4627         S1-O4=1.4442         S1-O5=1.5838         O2-S1=1.4531         O3-S1=1.4627         
O4-S1=1.4442         O5-S1=1.5838         O5-H6=0.9510         H6-O5=0.9510         H7-O15=0.9804        O8-H9=0.9588         
O8-H21=0.9938        H9-O8=0.9588         O10-H11=0.9577       O10-H17=1.0180       H11-O10=0.9577       O12-H13=0.9761       
O12-H14=0.9607       H13-O12=0.9761       H14-O12=0.9607       O15-H7=0.9804        O15-H16=0.9781       H16-O15=0.9781       
H17-O10=1.0180       O18-H19=0.9690       O18-H20=0.9762       H19-O18=0.9690       H20-O18=0.9762       H21-O8=0.9938        
N22-H23=1.0465       N22-H24=1.0579       N22-H25=1.0770       N22-H26=1.0142       H23-N22=1.0465       H24-N22=1.0579       
H25-N22=1.0770       H26-N22=1.0142       
 N  H  Rav=1.0489 sigma=0.0228  Rmin=1.0142  Rmax=1.0770     4
 O  H  Rav=0.9745 sigma=0.0181  Rmin=0.9510  Rmax=1.0180    11
 S  O  Rav=1.4860 sigma=0.0569  Rmin=1.4442  Rmax=1.5838     4
 
 selected bond angles (degree)
 --------------------
O3-S1-O2=110.83                O4-S1-O2=113.97                O4-S1-O3=112.31                O5-S1-O2=106.32                
O5-S1-O3=106.61                O5-S1-O4=106.23                H6-O5-S1=100.38                H21-O8-H9=105.85               
H17-O10-H11=105.63             
 
 selected dihedral angles (degree)
 ---------------------------------
H6-O5-S1-O2=155.97            H6-O5-S1-O3=274.27            H6-O5-S1-O4= 34.23            
 
 CMA Distance (Angstroems)
 ---------------------------
R(CMA):  3.0599

========================================================================
 FINAL SINGLEPOINT CALCULATION ON OPTIMIZED GEOMETRY
========================================================================

 Ncao       : 65
 Nao        : 64
 Nshell     : 38
 Nel        : 80
 T(el)      :   300.0
 intcut     :    25.0
 scfconv/Eh :  0.100E-05
   qconv/e  :  0.100E-03
 intneglect :  0.100E-07
 broydamp   :      0.250
 iter      E             dE          RMSdq      gap      omega  full diag
   1    -50.7517893 -0.507518E+02  0.328E-05    9.19       0.0  T
   2    -50.7517893 -0.675016E-12  0.212E-05    9.19     925.7  T
   3    -50.7517893 -0.603961E-12  0.423E-06    9.19    4634.1  T
speedup  1.07
cpu  time for SCC    0.00 s
wall time for SCC    0.00 s

   *** convergence criteria satisfied after 3 iterations ***

          eigenvalues
 #    :          28         29         30         31         32         33         34         35
 occ. :        2.000      2.000      2.000      2.000      2.000      2.000      2.000      2.000
 eps  :       -13.444    -13.254    -12.597    -12.472    -12.413    -12.266    -12.177    -11.978
 #    :          36         37         38         39         40         41         42         43
 occ. :        2.000      2.000      2.000      2.000      2.000      0.000      0.000      0.000
 eps  :       -11.958    -11.910    -11.716    -11.657    -11.579     -2.385     -1.030     -0.396
 #    :          44         45         46         47         48         49         50         51
 occ. :        0.000      0.000      0.000      0.000      0.000      0.000      0.000      0.000
 eps  :         0.698      1.116      1.242      1.990      2.790      4.013      4.350      5.093


   #   Z            q   n(s)   n(p)   n(d)      C6AA      α(0)
   1  16 S      1.654  1.583  1.802  0.961    89.829    15.952
   2   8 O     -0.736  1.757  4.980  0.000    29.722     7.309
   3   8 O     -0.728  1.766  4.962  0.000    29.465     7.278
   4   8 O     -0.735  1.772  4.962  0.000    29.666     7.303
   5   8 O     -0.584  1.751  4.833  0.000    24.770     6.719
   6   1 H      0.345  0.655  0.000  0.000     0.589     1.201
   7   1 H      0.323  0.677  0.000  0.000     0.656     1.272
   8   8 O     -0.607  1.750  4.857  0.000    25.355     6.796
   9   1 H      0.289  0.711  0.000  0.000     0.754     1.364
  10   8 O     -0.645  1.752  4.893  0.000    26.304     6.922
  11   1 H      0.284  0.716  0.000  0.000     0.772     1.380
  12   8 O     -0.610  1.749  4.861  0.000    25.436     6.807
  13   1 H      0.318  0.682  0.000  0.000     0.669     1.285
  14   1 H      0.293  0.707  0.000  0.000     0.741     1.352
  15   8 O     -0.629  1.757  4.872  0.000    25.882     6.867
  16   1 H      0.326  0.674  0.000  0.000     0.647     1.264
  17   1 H      0.346  0.654  0.000  0.000     0.597     1.214
  18   8 O     -0.631  1.760  4.871  0.000    25.930     6.873
  19   1 H      0.316  0.684  0.000  0.000     0.676     1.291
  20   1 H      0.327  0.673  0.000  0.000     0.645     1.261
  21   1 H      0.339  0.661  0.000  0.000     0.614     1.231
  22   7 N     -0.354  1.280  4.074  0.000    29.097     8.012
  23   1 H      0.283  0.717  0.000  0.000     0.765     1.370
  24   1 H      0.291  0.709  0.000  0.000     0.739     1.347
  25   1 H      0.297  0.703  0.000  0.000     0.722     1.331
  26   1 H      0.226  0.774  0.000  0.000     0.982     1.553

 Mol. C6AA /au·bohr⁶  :       5444.537436
 Mol. C8AA /au·bohr⁸  :     117894.795440
 Mol. α(0) /au        :        106.553182

 
 Wiberg/Mayer (AO) data. WBOs > 0.1 written file <wbo>
 largest (>0.05) Wiberg bond orders for each atom
           total WBO             WBO to atom ...
     1  S   4.885    O    4 1.347    O    2 1.321    O    3 1.275    O    5 0.898
     2  O   1.727    S    1 1.321    O    4 0.111    O    3 0.107    O    5 0.062
     3  O   1.760    S    1 1.275    H   25 0.139    O    4 0.109    O    2 0.107    O    5 0.069    N   22 0.055
     4  O   1.729    S    1 1.347    O    2 0.111    O    3 0.109    O    5 0.078    H    7 0.057
     5  O   1.979    S    1 0.898    H    6 0.864    O    4 0.078    O    3 0.069    O    2 0.062
     6  H   0.880    O    5 0.864
     7  H   0.896    O   15 0.835    O    4 0.057
     8  O   1.915    H    9 0.913    H   21 0.801    H   24 0.107    N   22 0.053
     9  H   0.916    O    8 0.913
    10  O   1.878    H   11 0.910    H   17 0.743    H   23 0.084    O   15 0.055
    11  H   0.919    O   10 0.910
    12  O   1.861    H   14 0.908    H   13 0.849
    13  H   0.899    O   12 0.849
    14  H   0.914    O   12 0.908
    15  O   1.923    H   16 0.841    H    7 0.835    H   17 0.134    O   10 0.055
    16  H   0.894    O   15 0.841
    17  H   0.880    O   10 0.743    O   15 0.134
    18  O   1.884    H   19 0.869    H   20 0.844    H   21 0.083
    19  H   0.900    O   18 0.869
    20  H   0.893    O   18 0.844
    21  H   0.885    O    8 0.801    O   18 0.083
    22  N   3.519    H   26 0.946    H   23 0.832    H   24 0.804    H   25 0.765    O    3 0.055    O    8 0.053
    23  H   0.920    N   22 0.832    O   10 0.084
    24  H   0.915    N   22 0.804    O    8 0.107
    25  H   0.912    N   22 0.765    O    3 0.139
    26  H   0.949    N   22 0.946
 MOs/occ written to file <molden.input>
 
molecular dipole:
                 x           y           z       tot (Debye)
 q only:        0.004      -1.981       1.378
   full:       -0.308      -1.343       1.436       5.059
molecular quadrupole (traceless):
                xx          xy          yy          xz          yz          zz
 q only:       -3.665       4.575       5.204      -3.971      -1.337      -1.540
  q+dip:       -3.527       4.434       8.589      -5.184       2.164      -5.063
   full:       -3.798       4.169       9.180      -5.261       2.487      -5.382

SCC energy    :     -50.7517893
rep           :       0.2885920
ES            :       0.2663401
AES           :      -0.0712892
AXC           :      -0.0086147
disp          :      -0.0189701
XB            :       0.0000000
fix           :       0.0000000
total E       :     -50.4628284
atomizationE  :       4.9931326     3133.24
(atE without considering molecular charge,
 total energy contains solvation terms)
H-L gap (eV)  :          9.1947
optimized geometry written to: xtbopt.xyz


------------------------------------------------------------------------
 * finished run on 2019/09/16 at 11:49:10.321     
------------------------------------------------------------------------
 total:
 * wall-time:     0 d,  0 h,  0 min,  3.986 sec
 *  cpu-time:     0 d,  0 h,  0 min,  3.829 sec
 * ratio c/w:     0.961 speedup
 SCF:
 * wall-time:     0 d,  0 h,  0 min,  0.158 sec
 *  cpu-time:     0 d,  0 h,  0 min,  0.153 sec
 * ratio c/w:     0.967 speedup
 ANC optimizer:
 * wall-time:     0 d,  0 h,  0 min,  3.673 sec
 *  cpu-time:     0 d,  0 h,  0 min,  3.650 sec
 * ratio c/w:     0.994 speedup

