      -----------------------------------------------------------      
     |                   =====================                   |     
     |                           x T B                           |     
     |                   =====================                   |     
     |                         S. Grimme                         |     
     |          Mulliken Center for Theoretical Chemistry        |     
     |                    University of Bonn                     |     
     |                 Version 6.0.1 (SAW181210)                 |     
      -----------------------------------------------------------      

   This program is distributed in the hope that it will be useful,
   but WITHOUT ANY WARRANTY; without even the implied warranty of
   MERCHANTABILITY or FITNESS FOR A PARTICULAR PURPOSE.
   
   FOR NON-COMMERCIAL, ACADEMIA USE ONLY.
   
   Cite this work as:
   S. Grimme, C. Bannwarth, P. Shushkov, J. Comput. Theory Chem., 2017,
   13, 1989-2009.
   C. Bannwarth, S. Ehlert and S. Grimme., ChemRxiv, 2018, preprint.
   http://doi.org/10.26434/chemrxiv.7246238.v1
   
   for sTDA-xTB:
   S. Grimme and C. Bannwarth, J. Chem. Phys., 2016, 145, 054103.
   
   in the mass-spec context:
   V. Asgeirsson, C. Bauer and S. Grimme, Chem. Sci., 2017, 8, 4879.
   
   if GBSA is used:
   P. Shushkov, F. März and S. Grimme, unpublished.
   
   for ANC optimizer:
   S. Grimme, unpublished.
   Rational Function algorithm used in ANCopt:
   F. Eckert, P. Pulay, H.-J. Werner, J. Comput. Chem., 1997, 18, 1473.
   
   with help from (in alphabetical order)
   C. Bannwarth, F. Bohle, G. Brandenburg, E. Caldeweyher, M. Checinski,
   S. Dohm, S. Ehlert, S. Ehrlich, F. März, H. Neugebauer, J. Pisarek,
   P. Pracht, P. Shushkov, and S. Spicher.
   
 * started run on 2019/09/16 at 12:53:02.884     
========================================================================
 # omp threads = 1
========================================================================
number of atoms            : 26
number of electrons        : 80
charge                     : 0
spin                       : .0
first test random number   : .0140

########################################################################
# WARNING! Please study the warnings concerning your input carefully
#  - XTBPATH is not set, using XTBHOME instead
#  - the use of '-opt' is discouraged, please use '--opt' next time
#  - the use of '-chrg' is discouraged, please use '--chrg' next time
#  - the use of '-uhf' is discouraged, please use '--uhf' next time
########################################################################

           ------------------------------------------------- 
          |                 G F N 2 - x T B                 |
          | Geometry, Frequencies, Noncovalent interactions |
          |            JCTC 2018 parametrisation            |
           ------------------------------------------------- 
      method parameters     
 k(s)        :  1.8500
 k(p)        :  2.2300
 k(d)        :  2.2300
 k(f)        :  2.0000
 kEN (H0ij)  : -2.0000
 D4 a1       :  0.5200
 D4 a2       :  5.0000
 D4 s6       :  1.0000
 D4 s8       :  2.7000
 D4 s9       :  5.0000
 alphaj      :  2.0000


            Z     q(EN)     CN     RAES       Cart. coordinates
     1  S   6.0    0.61    4.51    4.57    -3.51169    -1.89082    -2.36076
     2  O   6.0   -0.31    1.19    1.80    -1.02677    -1.39051    -3.58671
     3  O   6.0   -0.30    1.19    1.80    -4.72636     0.55356    -1.66962
     4  O   6.0   -0.27    2.12    1.84    -3.12414    -3.41227    -0.07001
     5  O   6.0   -0.25    2.08    1.84    -5.15210    -3.27376    -4.12401
     6  H   1.0    0.14    1.22    1.47    -5.61381    -4.87008    -3.39623
     7  H   1.0    0.18    1.36    1.52    -2.05262    -2.50957     1.08241
     8  O   6.0   -0.36    1.50    1.80     0.77159     6.04521     0.73139
     9  H   1.0    0.18    0.94    1.42     1.13413     7.84242     0.38156
    10  O   6.0   -0.42    1.72    1.81    -0.38667    -0.73623     2.69160
    11  H   1.0    0.17    0.95    1.42    -0.37954    -1.03622     4.53380
    12  O   6.0   -0.29    2.01    1.83     2.83473    -3.88263     1.30889
    13  H   1.0    0.14    0.97    1.43     3.15254    -4.98617     2.72162
    14  H   1.0    0.17    1.13    1.45     1.57954    -2.70078     1.89401
    15  O   6.0   -0.28    2.01    1.83     4.00735    -1.63277    -3.16278
    16  H   1.0    0.16    1.02    1.43     3.92032    -2.83513    -1.79846
    17  H   1.0    0.18    1.03    1.43     2.31126    -1.52109    -3.81502
    18  O   6.0   -0.22    2.94    2.64    -2.55401     3.24571     1.87667
    19  H   1.0    0.16    1.16    1.46    -1.70599     1.69672     2.48604
    20  H   1.0    0.17    1.23    1.47    -1.33326     4.60425     1.48408
    21  H   1.0    0.15    1.02    1.43    -3.69800     2.89783     0.44077
    22  N   5.0   -0.15    3.98    2.80     3.11070     1.95847     0.47016
    23  H   1.0    0.10    1.03    1.43     3.45773     1.25588    -1.31040
    24  H   1.0    0.13    1.17    1.46     2.32861     3.73382     0.32567
    25  H   1.0    0.12    1.10    1.44     1.87578     0.77983     1.40303
    26  H   1.0    0.08    0.99    1.43     4.78067     2.06433     1.46234

  Z AO/shell   Hii/eV     exponent
  1     Wed Apr 25 08:07:45 CEST 2018   EN: 2.200 GM2: 0.406  GM3: 0.0800  RAES: 1.40
     1s    -10.707211    1.230000
  7     Wed Apr 25 08:07:45 CEST 2018   EN: 3.040 GM2: 0.461  GM3:-0.0640  RAES: 1.90
     2s    -16.686243    2.339881
     2p    -12.523956    2.014332
  8     Wed Apr 25 08:07:45 CEST 2018   EN: 3.440 GM2: 0.452  GM3:-0.0517  RAES: 1.80
     2s    -20.229985    2.439742
     2p    -15.503117    2.137023
 16     Tue Apr 24 11:44:34 CEST 2018   EN: 2.580 GM2: 0.340  GM3:-0.0502  RAES: 3.10
     3s    -20.029654    1.981333
     3p    -11.377694    2.025643
     3d     -0.420282    1.702555
 no old-style atom pair restraining (fixing) potential

molecular fragmentation (1/2 indicates fragments):
11111112222222222222222222
# atoms in fragment 1/2:     7    19
 fragment masses (1/2) :       98.07      107.11
CMA distance (Bohr)    :   6.282
constraining FC (au)   :  0.0500
           ------------------------------------------------- 
          |        Self-Consistent Charge Iterations        |
           ------------------------------------------------- 

 Ncao       : 65
 Nao        : 64
 Nshell     : 38
 Nel        : 80
 T(el)      :   300.0
 intcut     :    25.0
 scfconv/Eh :  0.100E-05
   qconv/e  :  0.100E-03
 intneglect :  0.100E-07
 broydamp   :      0.250
 iter      E             dE          RMSdq      gap      omega  full diag
   1    -50.5260868 -0.505261E+02  0.711E+00   10.40       0.0  T
   2    -50.5873415 -0.612547E-01  0.514E+00    9.04       1.0  T
   3    -50.6319299 -0.445884E-01  0.146E+00    4.94       1.0  T
   4    -50.6384741 -0.654415E-02  0.635E-01    5.24       1.0  T
   5    -50.6391500 -0.675953E-03  0.381E-01    5.08       1.0  T
   6    -50.6398870 -0.737014E-03  0.169E-01    5.23       1.0  T
   7    -50.6400850 -0.197985E-03  0.550E-02    5.29       1.0  T
   8    -50.6400986 -0.135689E-04  0.354E-02    5.28       1.0  T
   9    -50.6401059 -0.735147E-05  0.144E-02    5.29       1.4  T
  10    -50.6401073 -0.139080E-05  0.289E-03    5.30       6.8  T
  11    -50.6401074 -0.337968E-07  0.139E-03    5.30      14.1  T
  12    -50.6401074 -0.742531E-08  0.460E-04    5.30      42.7  T
  13    -50.6401074 -0.623871E-09  0.171E-04    5.30     115.0  T
speedup  1.01
cpu  time for SCC    0.01 s
wall time for SCC    0.01 s

   *** convergence criteria satisfied after 13 iterations ***

          eigenvalues
 #    :          28         29         30         31         32         33         34         35
 occ. :        2.000      2.000      2.000      2.000      2.000      2.000      2.000      2.000
 eps  :       -13.179    -12.824    -12.650    -12.564    -12.216    -11.874    -11.749    -11.433
 #    :          36         37         38         39         40         41         42         43
 occ. :        2.000      2.000      2.000      2.000      2.000      0.000      0.000      0.000
 eps  :       -11.316    -11.183    -11.067     -8.735     -8.335     -3.036     -1.779     -0.683
 #    :          44         45         46         47         48         49         50         51
 occ. :        0.000      0.000      0.000      0.000      0.000      0.000      0.000      0.000
 eps  :        -0.366      0.219      1.692      2.127      3.056      3.670      4.640      4.899


   #   Z            q   n(s)   n(p)   n(d)      C6AA      α(0)
   1  16 S      1.711  1.573  1.774  0.942    88.521    15.835
   2   8 O     -0.708  1.771  4.937  0.000    28.923     7.210
   3   8 O     -0.718  1.768  4.950  0.000    29.200     7.245
   4   8 O     -0.600  1.722  4.878  0.000    25.154     6.771
   5   8 O     -0.534  1.719  4.815  0.000    23.634     6.563
   6   1 H      0.379  0.621  0.000  0.000     0.517     1.125
   7   1 H      0.418  0.582  0.000  0.000     0.446     1.044
   8   8 O     -0.901  1.814  5.087  0.000    34.770     7.908
   9   1 H      0.177  0.823  0.000  0.000     1.243     1.751
  10   8 O     -0.852  1.846  5.007  0.000    33.212     7.727
  11   1 H      0.232  0.768  0.000  0.000     0.966     1.544
  12   8 O     -0.652  1.757  4.895  0.000    26.466     6.943
  13   1 H      0.266  0.734  0.000  0.000     0.835     1.435
  14   1 H      0.325  0.675  0.000  0.000     0.647     1.263
  15   8 O     -0.622  1.744  4.878  0.000    25.728     6.846
  16   1 H      0.315  0.685  0.000  0.000     0.678     1.293
  17   1 H      0.314  0.686  0.000  0.000     0.680     1.295
  18   8 O     -0.476  1.667  4.810  0.000    22.332     6.382
  19   1 H      0.384  0.616  0.000  0.000     0.511     1.121
  20   1 H      0.409  0.591  0.000  0.000     0.462     1.063
  21   1 H      0.378  0.622  0.000  0.000     0.527     1.140
  22   7 N     -0.334  1.273  4.061  0.000    28.569     7.939
  23   1 H      0.271  0.729  0.000  0.000     0.806     1.407
  24   1 H      0.310  0.690  0.000  0.000     0.683     1.294
  25   1 H      0.290  0.710  0.000  0.000     0.745     1.352
  26   1 H      0.219  0.781  0.000  0.000     1.016     1.579

 Mol. C6AA /au·bohr⁶  :       5511.223067
 Mol. C8AA /au·bohr⁸  :     119161.045161
 Mol. α(0) /au        :        107.075396

 
 Wiberg/Mayer (AO) data. WBOs > 0.1 written file <wbo>
 largest (>0.05) Wiberg bond orders for each atom
           total WBO             WBO to atom ...
     1  S   4.814    O    2 1.355    O    3 1.332    O    4 1.061    O    5 1.022
     2  O   1.704    S    1 1.355    O    3 0.135    O    4 0.094    O    5 0.074
     3  O   1.706    S    1 1.332    O    2 0.135    O    4 0.092    O    5 0.071
     4  O   2.005    S    1 1.061    H    7 0.661    O    2 0.094    O    3 0.092
     5  O   2.060    S    1 1.022    H    6 0.832    O    2 0.074    O    3 0.071
     6  H   0.856    O    5 0.832
     7  H   0.825    O    4 0.661    O   10 0.142
     8  O   1.444    H    9 0.942    H   20 0.204    H   24 0.162    N   22 0.067    O   18 0.059
     9  H   0.968    O    8 0.942
    10  O   1.646    H   11 0.938    H   19 0.159    H    7 0.142    H   14 0.103    H   25 0.097    O   18 0.055
    11  H   0.946    O   10 0.938
    12  O   1.797    H   13 0.921    H   14 0.781
    13  H   0.929    O   12 0.921
    14  H   0.894    O   12 0.781    O   10 0.103
    15  O   1.863    H   16 0.871    H   17 0.869    H   23 0.053
    16  H   0.901    O   15 0.871
    17  H   0.901    O   15 0.869
    18  O   2.261    H   21 0.801    H   19 0.684    H   20 0.621    O    8 0.059    O   10 0.055
    19  H   0.852    O   18 0.684    O   10 0.159
    20  H   0.833    O   18 0.621    O    8 0.204
    21  H   0.857    O   18 0.801
    22  N   3.526    H   26 0.948    H   23 0.868    H   25 0.809    H   24 0.736    O    8 0.067
    23  H   0.926    N   22 0.868    O   15 0.053
    24  H   0.904    N   22 0.736    O    8 0.162
    25  H   0.916    N   22 0.809    O   10 0.097
    26  H   0.952    N   22 0.948
 MOs/occ written to file <molden.input>
 
molecular dipole:
                 x           y           z       tot (Debye)
 q only:       -0.705      -1.839       1.116
   full:       -1.088      -2.406       1.524       7.749
molecular quadrupole (traceless):
                xx          xy          yy          xz          yz          zz
 q only:        8.282      12.504      -5.954       6.829       0.816      -2.329
  q+dip:        5.348      17.645      -1.332      10.787      -0.531      -4.016
   full:        5.023      17.785      -1.096      11.257      -0.998      -3.927

SCC energy    :     -50.6401074
rep           :       0.2949527
ES            :       0.3148396
AES           :      -0.0617246
AXC           :      -0.0076175
disp          :      -0.0189776
XB            :       0.0000000
fix           :       0.0000000
total E       :     -50.3448252
atomizationE  :       4.8751294     3059.19
(atE without considering molecular charge,
 total energy contains solvation terms)
H-L gap (eV)  :          5.2996
           ------------------------------------------------- 
          |                 ===============                 |
          |                   A N C O P T                   |
          |                 ===============                 |
          |          Approximate Normal Coordinate          |
          |           Rational Function Optimizer           |
           ------------------------------------------------- 
dumping coords to <xtbopt.coord> and <xtbopt.log>
 optlevel               2
 Maxcycle             520
 Maxmicro              25
 Econv         1.000000000000000E-007
 Gconv         2.000000000000000E-004
 Maxdispl       1.00000000000000     
 Hlow          5.000000000000000E-003
 S6             20.0000000000000     
 Nvar               72

generating ANC from model Hessian ...
 Shifting diagonal of input Hessian by   7.119392869879925E-003
 Lowest  eigenvalues of input Hessian
    0.005000   -0.000000   -0.000000   -0.000000    0.000000    0.000000
    0.000000    0.007295    0.007459    0.007520    0.008342    0.008942
    0.009131    0.009671    0.010542    0.011118    0.011799    0.012519
 Highest eigenvalues
    1.567994    1.572951    1.606980    3.215191    3.412743    3.466753
 
cpu  time for ANC gen    0.02 s
wall time for ANC gen    0.02 s
................................................................................
.............................. CYCLE    1 ......................................
................................................................................
   1    -50.6401074 -0.506401E+02  0.665E-05    5.30       0.0  T
   2    -50.6401074 -0.144524E-10  0.486E-05    5.30     403.3  T
   3    -50.6401074 -0.895994E-11  0.240E-05    5.30     817.0  T
speedup  0.97
cpu  time for SCC    0.00 s
wall time for SCC    0.00 s
speedup  1.02
cpu  time for grad    0.01 s
wall time for grad    0.01 s
 E :    -50.34482519  G :  0.256095    pred/act E change:  0.000D+00  0.310D-07
Maxdispl :   0.0924   ||displ|| :   0.2801   Lambda : -0.406D-01
Largest |displ|/coords:  0.0924 (  30)  0.0914 (  55)  0.0821 (  44)
................................................................................
.............................. CYCLE    2 ......................................
................................................................................
   1    -50.6547627 -0.506548E+02  0.284E-01    5.50       0.0  T
   2    -50.6551439 -0.381283E-03  0.215E-01    5.67       1.0  T
   3    -50.6553055 -0.161562E-03  0.111E-01    5.92       1.0  T
   4    -50.6553155 -0.100269E-04  0.275E-02    5.99       1.0  T
   5    -50.6553166 -0.107068E-05  0.574E-03    5.98       3.4  T
   6    -50.6553167 -0.699230E-07  0.319E-03    5.98       6.1  T
speedup  1.07
cpu  time for SCC    0.01 s
wall time for SCC    0.01 s
speedup  0.96
cpu  time for grad    0.01 s
wall time for grad    0.01 s
 E :    -50.37688284  G :  0.162283    pred/act E change:  0.000D+00 -0.321D-01
Maxdispl :   0.0798   ||displ|| :   0.2792   Lambda : -0.203D-01
Largest |displ|/coords:  0.0798 (  44)  0.0767 (  19)  0.0713 (  31)
................................................................................
.............................. CYCLE    3 ......................................
................................................................................
   1    -50.6652111 -0.506652E+02  0.275E-01    6.12       0.0  T
   2    -50.6656392 -0.428128E-03  0.203E-01    6.32       1.0  T
   3    -50.6658086 -0.169379E-03  0.110E-01    6.57       1.0  T
   4    -50.6658166 -0.799019E-05  0.273E-02    6.66       1.0  T
   5    -50.6658179 -0.131004E-05  0.537E-03    6.64       3.6  T
   6    -50.6658180 -0.596817E-07  0.302E-03    6.65       6.5  T
speedup  1.05
cpu  time for SCC    0.01 s
wall time for SCC    0.01 s
speedup  1.03
cpu  time for grad    0.01 s
wall time for grad    0.01 s
 E :    -50.39359468  G :  0.103239    pred/act E change: -0.219D-01 -0.167D-01
Maxdispl :   0.1138   ||displ|| :   0.3176   Lambda : -0.121D-01
Largest |displ|/coords:  0.1138 (   2)  0.1008 (  11)  0.0974 (  19)
................................................................................
.............................. CYCLE    4 ......................................
................................................................................
   1    -50.6706261 -0.506706E+02  0.335E-01    6.69       0.0  T
   2    -50.6710830 -0.456896E-03  0.244E-01    6.89       1.0  T
   3    -50.6712697 -0.186647E-03  0.110E-01    7.21       1.0  T
   4    -50.6712821 -0.124343E-04  0.302E-02    7.26       1.0  T
   5    -50.6712845 -0.235410E-05  0.612E-03    7.24       3.2  T
   6    -50.6712845 -0.755855E-07  0.369E-03    7.24       5.3  T
   7    -50.6712846 -0.265914E-07  0.123E-03    7.24      15.9  T
speedup  0.92
cpu  time for SCC    0.01 s
wall time for SCC    0.01 s
speedup  0.96
cpu  time for grad    0.01 s
wall time for grad    0.01 s
 E :    -50.40380720  G :  0.069621    pred/act E change: -0.109D-01 -0.102D-01
Maxdispl :   0.1113   ||displ|| :   0.3041   Lambda : -0.786D-02
Largest |displ|/coords:  0.1113 (  19)  0.1079 (   2)  0.0754 (  12)
................................................................................
.............................. CYCLE    5 ......................................
................................................................................
   1    -50.6737373 -0.506737E+02  0.315E-01    7.21       0.0  T
   2    -50.6741049 -0.367546E-03  0.228E-01    7.39       1.0  T
   3    -50.6742579 -0.152995E-03  0.951E-02    7.68       1.0  T
   4    -50.6742711 -0.132800E-04  0.271E-02    7.71       1.0  T
   5    -50.6742731 -0.201578E-05  0.593E-03    7.69       3.3  T
   6    -50.6742732 -0.615846E-07  0.363E-03    7.69       5.4  T
speedup  1.09
cpu  time for SCC    0.01 s
wall time for SCC    0.01 s
speedup  1.04
cpu  time for grad    0.01 s
wall time for grad    0.01 s
 E :    -50.41061106  G :  0.061413    pred/act E change: -0.666D-02 -0.680D-02
Maxdispl :   0.1014   ||displ|| :   0.2625   Lambda : -0.635D-02
Largest |displ|/coords:  0.1014 (  19)  0.1006 (  10)  0.0702 (   1)
................................................................................
.............................. CYCLE    6 ......................................
................................................................................
   1    -50.6829953 -0.506830E+02  0.214E-01    7.77       0.0  T
   2    -50.6831699 -0.174663E-03  0.158E-01    7.87       1.0  T
   3    -50.6832473 -0.774066E-04  0.672E-02    8.05       1.0  T
   4    -50.6832553 -0.798954E-05  0.207E-02    8.08       1.0  T
   5    -50.6832562 -0.933145E-06  0.545E-03    8.08       3.6  T
   6    -50.6832563 -0.408822E-07  0.272E-03    8.07       7.2  T
speedup  1.09
cpu  time for SCC    0.01 s
wall time for SCC    0.01 s
speedup  1.03
cpu  time for grad    0.01 s
wall time for grad    0.01 s
 E :    -50.41552594  G :  0.054145    pred/act E change: -0.429D-02 -0.491D-02
Maxdispl :   0.1319   ||displ|| :   0.3764   Lambda : -0.787D-02
Largest |displ|/coords:  0.1319 (   2)  0.1258 (  13)  0.1187 (  11)
................................................................................
.............................. CYCLE    7 ......................................
................................................................................
   1    -50.6744133 -0.506744E+02  0.549E-01    7.83       0.0  T
   2    -50.6750562 -0.642905E-03  0.394E-01    8.04       1.0  T
   3    -50.6753376 -0.281353E-03  0.127E-01    8.31       1.0  T
   4    -50.6753834 -0.458274E-04  0.277E-02    8.30       1.0  T
   5    -50.6753849 -0.150287E-05  0.102E-02    8.29       1.9  T
   6    -50.6753853 -0.431635E-06  0.601E-03    8.29       3.3  T
   7    -50.6753854 -0.493805E-07  0.117E-03    8.29      16.7  T
   8    -50.6753854 -0.464044E-08  0.333E-04    8.29      58.9  T
speedup  0.96
cpu  time for SCC    0.01 s
wall time for SCC    0.01 s
speedup  0.99
cpu  time for grad    0.01 s
wall time for grad    0.02 s
 E :    -50.41858783  G :  0.087557    pred/act E change: -0.339D-02 -0.306D-02
Maxdispl :   0.1493   ||displ|| :   0.3599   Lambda : -0.142D-01
Largest |displ|/coords:  0.1493 (  10)  0.1350 (   9)  0.1251 (  13)
................................................................................
.............................. CYCLE    8 ......................................
................................................................................
   1    -50.6962608 -0.506963E+02  0.526E-01    8.41       0.0  T
   2    -50.6965066 -0.245741E-03  0.393E-01    8.41       1.0  T
   3    -50.6966690 -0.162432E-03  0.880E-02    8.38       1.0  T
   4    -50.6966959 -0.269238E-04  0.267E-02    8.41       1.0  T
   5    -50.6966974 -0.148023E-05  0.863E-03    8.42       2.3  T
   6    -50.6966974 -0.361693E-07  0.446E-03    8.42       4.4  T
   7    -50.6966975 -0.501356E-07  0.892E-04    8.42      22.0  T
speedup  1.06
cpu  time for SCC    0.01 s
wall time for SCC    0.01 s
speedup  1.02
cpu  time for grad    0.01 s
wall time for grad    0.01 s
 E :    -50.42259597  G :  0.070382    pred/act E change: -0.449D-02 -0.401D-02
Maxdispl :   0.1181   ||displ|| :   0.3288   Lambda : -0.962D-02
Largest |displ|/coords:  0.1181 (   1)  0.0890 (   8)  0.0887 (   2)
................................................................................
.............................. CYCLE    9 ......................................
................................................................................
   1    -50.6983568 -0.506984E+02  0.420E-01    8.45       0.0  T
   2    -50.6985870 -0.230161E-03  0.309E-01    8.50       1.0  T
   3    -50.6987092 -0.122234E-03  0.809E-02    8.60       1.0  T
   4    -50.6987330 -0.237617E-04  0.183E-02    8.60       1.1  T
   5    -50.6987335 -0.550170E-06  0.705E-03    8.59       2.8  T
   6    -50.6987336 -0.106970E-06  0.416E-03    8.59       4.7  T
   7    -50.6987336 -0.220081E-07  0.828E-04    8.59      23.7  T
speedup  1.09
cpu  time for SCC    0.01 s
wall time for SCC    0.01 s
speedup  0.98
cpu  time for grad    0.01 s
wall time for grad    0.01 s
 E :    -50.42798015  G :  0.061774    pred/act E change: -0.803D-02 -0.538D-02
Maxdispl :   0.1697   ||displ|| :   0.3498   Lambda : -0.635D-02
Largest |displ|/coords:  0.1697 (   1)  0.1580 (   8)  0.1280 (   6)
................................................................................
.............................. CYCLE   10 ......................................
................................................................................
   1    -50.6947573 -0.506948E+02  0.531E-01    8.57       0.0  T
   2    -50.6949005 -0.143206E-03  0.401E-01    8.60       1.0  T
   3    -50.6949744 -0.739603E-04  0.677E-02    8.64       1.0  T
   4    -50.6949979 -0.234225E-04  0.197E-02    8.65       1.0  T
   5    -50.6949990 -0.115105E-05  0.514E-03    8.64       3.8  T
   6    -50.6949990 -0.229239E-07  0.343E-03    8.64       5.7  T
speedup  0.91
cpu  time for SCC    0.00 s
wall time for SCC    0.01 s
speedup  0.98
cpu  time for grad    0.01 s
wall time for grad    0.01 s
 E :    -50.43073776  G :  0.069097    pred/act E change: -0.533D-02 -0.276D-02
Maxdispl :   0.1723   ||displ|| :   0.3807   Lambda : -0.109D-01
Largest |displ|/coords:  0.1723 (   7)  0.1565 (   8)  0.1536 (   6)
................................................................................
.............................. CYCLE   11 ......................................
................................................................................
   1    -50.7163428 -0.507163E+02  0.595E-01    8.80       0.0  T
   2    -50.7165254 -0.182657E-03  0.450E-01    8.81       1.0  T
   3    -50.7166381 -0.112642E-03  0.788E-02    8.85       1.0  T
   4    -50.7166666 -0.284646E-04  0.128E-02    8.85       1.5  T
   5    -50.7166669 -0.348236E-06  0.723E-03    8.85       2.7  T
   6    -50.7166669 -0.263339E-07  0.303E-03    8.85       6.5  T
   7    -50.7166669 -0.147766E-07  0.693E-04    8.85      28.3  T
speedup  0.95
cpu  time for SCC    0.01 s
wall time for SCC    0.01 s
speedup  0.99
cpu  time for grad    0.01 s
wall time for grad    0.01 s
 E :    -50.43418660  G :  0.056233    pred/act E change: -0.356D-02 -0.345D-02
Maxdispl :   0.0647   ||displ|| :   0.2262   Lambda : -0.485D-02
Largest |displ|/coords:  0.0647 (   1)  0.0636 (   7)  0.0636 (   6)
................................................................................
.............................. CYCLE   12 ......................................
................................................................................
   1    -50.7146764 -0.507147E+02  0.266E-01    8.87       0.0  T
   2    -50.7147291 -0.527168E-04  0.200E-01    8.88       1.0  T
   3    -50.7147578 -0.286374E-04  0.405E-02    8.91       1.0  T
   4    -50.7147655 -0.769526E-05  0.128E-02    8.91       1.5  T
   5    -50.7147659 -0.432653E-06  0.352E-03    8.91       5.6  T
   6    -50.7147659 -0.127602E-07  0.225E-03    8.91       8.7  T
speedup  0.89
cpu  time for SCC    0.00 s
wall time for SCC    0.01 s
speedup  0.96
cpu  time for grad    0.01 s
wall time for grad    0.01 s
 E :    -50.43815533  G :  0.043178    pred/act E change: -0.626D-02 -0.397D-02
Maxdispl :   0.1211   ||displ|| :   0.4332   Lambda : -0.800D-02
Largest |displ|/coords:  0.1211 (  20)  0.1118 (  29)  0.1043 (   6)
................................................................................
.............................. CYCLE   13 ......................................
................................................................................
   1    -50.7203676 -0.507204E+02  0.460E-01    9.01       0.0  T
   2    -50.7206448 -0.277210E-03  0.343E-01    9.01       1.0  T
   3    -50.7207918 -0.146958E-03  0.921E-02    8.99       1.0  T
   4    -50.7208213 -0.295106E-04  0.310E-02    8.99       1.0  T
   5    -50.7208233 -0.197432E-05  0.811E-03    8.99       2.4  T
   6    -50.7208233 -0.850335E-07  0.528E-03    8.99       3.7  T
   7    -50.7208234 -0.371443E-07  0.120E-03    8.99      16.3  T
speedup  0.97
cpu  time for SCC    0.01 s
wall time for SCC    0.01 s
speedup  0.99
cpu  time for grad    0.01 s
wall time for grad    0.01 s
 E :    -50.44197967  G :  0.058329    pred/act E change: -0.255D-02 -0.382D-02
Maxdispl :   0.1497   ||displ|| :   0.2732   Lambda : -0.615D-02
Largest |displ|/coords:  0.1497 (   4)  0.0973 (   7)  0.0923 (   6)
................................................................................
.............................. CYCLE   14 ......................................
................................................................................
   1    -50.7249044 -0.507249E+02  0.404E-01    9.04       0.0  T
   2    -50.7250017 -0.973433E-04  0.304E-01    9.03       1.0  T
   3    -50.7250545 -0.527270E-04  0.584E-02    9.02       1.0  T
   4    -50.7250689 -0.144826E-04  0.118E-02    9.03       1.7  T
   5    -50.7250693 -0.413971E-06  0.467E-03    9.03       4.2  T
   6    -50.7250694 -0.654006E-08  0.252E-03    9.03       7.8  T
speedup  1.11
cpu  time for SCC    0.01 s
wall time for SCC    0.01 s
speedup  1.05
cpu  time for grad    0.01 s
wall time for grad    0.01 s
 E :    -50.44417055  G :  0.029836    pred/act E change: -0.475D-02 -0.219D-02
Maxdispl :   0.0856   ||displ|| :   0.2507   Lambda : -0.290D-02
Largest |displ|/coords:  0.0856 (   2)  0.0827 (  29)  0.0766 (  26)
................................................................................
.............................. CYCLE   15 ......................................
................................................................................
   1    -50.7356234 -0.507356E+02  0.158E-01    9.08       0.0  T
   2    -50.7356659 -0.425432E-04  0.118E-01    9.08       1.0  T
   3    -50.7356962 -0.302691E-04  0.360E-02    9.06       1.0  T
   4    -50.7357000 -0.381435E-05  0.155E-02    9.06       1.3  T
   5    -50.7357004 -0.394582E-06  0.401E-03    9.06       4.9  T
   6    -50.7357004 -0.252648E-07  0.214E-03    9.06       9.2  T
speedup  1.09
cpu  time for SCC    0.01 s
wall time for SCC    0.01 s
speedup  1.05
cpu  time for grad    0.01 s
wall time for grad    0.01 s
 E :    -50.44602025  G :  0.023570    pred/act E change: -0.331D-02 -0.185D-02
Maxdispl :   0.1128   ||displ|| :   0.3477   Lambda : -0.270D-02
Largest |displ|/coords:  0.1128 (  20)  0.1081 (  29)  0.1078 (  31)
................................................................................
.............................. CYCLE   16 ......................................
................................................................................
   1    -50.7358494 -0.507358E+02  0.232E-01    9.11       0.0  T
   2    -50.7359011 -0.516805E-04  0.171E-01    9.10       1.0  T
   3    -50.7359336 -0.324904E-04  0.413E-02    9.07       1.0  T
   4    -50.7359386 -0.503058E-05  0.114E-02    9.08       1.7  T
   5    -50.7359388 -0.207623E-06  0.394E-03    9.08       5.0  T
   6    -50.7359388 -0.179188E-07  0.228E-03    9.08       8.6  T
speedup  0.93
cpu  time for SCC    0.00 s
wall time for SCC    0.01 s
speedup  0.98
cpu  time for grad    0.01 s
wall time for grad    0.01 s
 E :    -50.44723922  G :  0.022158    pred/act E change: -0.154D-02 -0.122D-02
Maxdispl :   0.0781   ||displ|| :   0.1594   Lambda : -0.979D-03
Largest |displ|/coords:  0.0781 (   2)  0.0506 (  12)  0.0501 (   5)
................................................................................
.............................. CYCLE   17 ......................................
................................................................................
   1    -50.7350617 -0.507351E+02  0.114E-01    9.07       0.0  T
   2    -50.7350704 -0.865367E-05  0.860E-02    9.07       1.0  T
   3    -50.7350777 -0.731172E-05  0.167E-02    9.07       1.2  T
   4    -50.7350787 -0.101152E-05  0.526E-03    9.07       3.7  T
   5    -50.7350787 -0.379702E-07  0.200E-03    9.07       9.8  T
speedup  0.87
cpu  time for SCC    0.00 s
wall time for SCC    0.00 s
speedup  0.98
cpu  time for grad    0.01 s
wall time for grad    0.01 s
 E :    -50.44772828  G :  0.019755    pred/act E change: -0.151D-02 -0.489D-03
Maxdispl :   0.0465   ||displ|| :   0.1063   Lambda : -0.656D-03
Largest |displ|/coords:  0.0465 (  10)  0.0359 (  18)  0.0308 (  27)
................................................................................
.............................. CYCLE   18 ......................................
................................................................................
   1    -50.7383024 -0.507383E+02  0.678E-02    9.08       0.0  T
   2    -50.7383075 -0.503375E-05  0.516E-02    9.08       1.0  T
   3    -50.7383097 -0.227374E-05  0.148E-02    9.08       1.3  T
   4    -50.7383103 -0.601111E-06  0.503E-03    9.08       3.9  T
   5    -50.7383104 -0.412553E-07  0.108E-03    9.08      18.1  T
   6    -50.7383104 -0.174570E-08  0.615E-04    9.08      31.9  T
speedup  0.93
cpu  time for SCC    0.00 s
wall time for SCC    0.01 s
speedup  0.98
cpu  time for grad    0.01 s
wall time for grad    0.01 s
 E :    -50.44812344  G :  0.014160    pred/act E change: -0.502D-03 -0.395D-03
Maxdispl :   0.0830   ||displ|| :   0.2023   Lambda : -0.807D-03
Largest |displ|/coords:  0.0830 (  25)  0.0683 (  10)  0.0543 (   5)
................................................................................
.............................. CYCLE   19 ......................................
................................................................................
   1    -50.7395600 -0.507396E+02  0.119E-01    9.07       0.0  T
   2    -50.7395674 -0.744550E-05  0.901E-02    9.07       1.0  T
   3    -50.7395710 -0.356813E-05  0.189E-02    9.07       1.0  T
   4    -50.7395722 -0.122781E-05  0.611E-03    9.07       3.2  T
   5    -50.7395723 -0.586017E-07  0.145E-03    9.07      13.5  T
   6    -50.7395723 -0.176502E-08  0.908E-04    9.07      21.6  T
speedup  1.11
cpu  time for SCC    0.01 s
wall time for SCC    0.01 s
speedup  0.98
cpu  time for grad    0.01 s
wall time for grad    0.01 s
 E :    -50.44855683  G :  0.016796    pred/act E change: -0.332D-03 -0.433D-03
Maxdispl :   0.1087   ||displ|| :   0.2815   Lambda : -0.907D-03
Largest |displ|/coords:  0.1087 (  25)  0.1048 (  10)  0.0922 (   2)
................................................................................
.............................. CYCLE   20 ......................................
................................................................................
   1    -50.7367485 -0.507367E+02  0.182E-01    9.04       0.0  T
   2    -50.7367600 -0.115683E-04  0.137E-01    9.04       1.0  T
   3    -50.7367676 -0.761644E-05  0.189E-02    9.04       1.0  T
   4    -50.7367694 -0.177689E-05  0.618E-03    9.05       3.2  T
   5    -50.7367695 -0.622914E-07  0.226E-03    9.05       8.7  T
   6    -50.7367695 -0.441164E-08  0.118E-03    9.05      16.7  T
speedup  1.05
cpu  time for SCC    0.01 s
wall time for SCC    0.01 s
speedup  1.04
cpu  time for grad    0.01 s
wall time for grad    0.01 s
 E :    -50.44888774  G :  0.018174    pred/act E change: -0.420D-03 -0.331D-03
Maxdispl :   0.0607   ||displ|| :   0.1310   Lambda : -0.590D-03
Largest |displ|/coords:  0.0607 (  10)  0.0552 (   2)  0.0393 (  18)
................................................................................
.............................. CYCLE   21 ......................................
................................................................................
   1    -50.7359882 -0.507360E+02  0.116E-01    9.07       0.0  T
   2    -50.7359960 -0.773842E-05  0.869E-02    9.06       1.0  T
   3    -50.7360014 -0.542431E-05  0.163E-02    9.06       1.2  T
   4    -50.7360024 -0.102820E-05  0.405E-03    9.06       4.8  T
   5    -50.7360025 -0.331247E-07  0.164E-03    9.06      11.9  T
   6    -50.7360025 -0.267531E-08  0.787E-04    9.06      24.9  T
speedup  1.11
cpu  time for SCC    0.01 s
wall time for SCC    0.01 s
speedup  0.99
cpu  time for grad    0.01 s
wall time for grad    0.01 s
 E :    -50.44916907  G :  0.018221    pred/act E change: -0.490D-03 -0.281D-03
Maxdispl :   0.0313   ||displ|| :   0.0901   Lambda : -0.477D-03
Largest |displ|/coords:  0.0313 (  14)  0.0311 (  15)  0.0297 (   4)
................................................................................
.............................. CYCLE   22 ......................................
................................................................................
   1    -50.7404724 -0.507405E+02  0.608E-02    9.09       0.0  T
   2    -50.7404781 -0.575011E-05  0.440E-02    9.09       1.0  T
   3    -50.7404806 -0.245667E-05  0.167E-02    9.09       1.2  T
   4    -50.7404810 -0.380657E-06  0.381E-03    9.09       5.1  T
   5    -50.7404810 -0.457758E-07  0.112E-03    9.09      17.6  T
   6    -50.7404810 -0.104155E-08  0.613E-04    9.09      32.0  T
speedup  0.93
cpu  time for SCC    0.01 s
wall time for SCC    0.01 s
speedup  0.97
cpu  time for grad    0.01 s
wall time for grad    0.01 s
 E :    -50.44941169  G :  0.010945    pred/act E change: -0.300D-03 -0.243D-03
Maxdispl :   0.0867   ||displ|| :   0.1650   Lambda : -0.360D-03
Largest |displ|/coords:  0.0867 (   3)  0.0689 (   2)  0.0506 (  15)
................................................................................
.............................. CYCLE   23 ......................................
................................................................................
   1    -50.7410873 -0.507411E+02  0.121E-01    9.10       0.0  T
   2    -50.7410903 -0.299488E-05  0.904E-02    9.10       1.0  T
   3    -50.7410921 -0.177948E-05  0.121E-02    9.10       1.6  T
   4    -50.7410925 -0.453659E-06  0.337E-03    9.10       5.8  T
   5    -50.7410926 -0.262335E-07  0.119E-03    9.10      16.5  T
   6    -50.7410926 -0.812172E-09  0.601E-04    9.10      32.6  T
speedup  0.93
cpu  time for SCC    0.00 s
wall time for SCC    0.01 s
speedup  0.98
cpu  time for grad    0.01 s
wall time for grad    0.01 s
 E :    -50.44960406  G :  0.013791    pred/act E change: -0.241D-03 -0.192D-03
Maxdispl :   0.0919   ||displ|| :   0.1685   Lambda : -0.324D-03
Largest |displ|/coords:  0.0919 (   2)  0.0541 (  10)  0.0510 (  15)
................................................................................
.............................. CYCLE   24 ......................................
................................................................................
   1    -50.7402257 -0.507402E+02  0.102E-01    9.11       0.0  T
   2    -50.7402285 -0.284498E-05  0.772E-02    9.11       1.0  T
   3    -50.7402308 -0.224748E-05  0.104E-02    9.11       1.9  T
   4    -50.7402312 -0.375542E-06  0.313E-03    9.11       6.3  T
   5    -50.7402312 -0.204871E-07  0.114E-03    9.11      17.2  T
   6    -50.7402312 -0.969436E-09  0.607E-04    9.11      32.3  T
speedup  0.91
cpu  time for SCC    0.00 s
wall time for SCC    0.01 s
speedup  0.97
cpu  time for grad    0.01 s
wall time for grad    0.01 s
 E :    -50.44979086  G :  0.012690    pred/act E change: -0.185D-03 -0.187D-03
Maxdispl :   0.0573   ||displ|| :   0.1438   Lambda : -0.256D-03
Largest |displ|/coords:  0.0573 (   3)  0.0567 (   2)  0.0376 (  10)
................................................................................
.............................. CYCLE   25 ......................................
................................................................................
   1    -50.7388961 -0.507389E+02  0.102E-01    9.11       0.0  T
   2    -50.7388981 -0.193611E-05  0.774E-02    9.11       1.0  T
   3    -50.7388998 -0.169071E-05  0.745E-03    9.11       2.6  T
   4    -50.7389000 -0.231415E-06  0.264E-03    9.11       7.4  T
   5    -50.7389000 -0.820647E-08  0.865E-04    9.11      22.7  T
speedup  1.02
cpu  time for SCC    0.00 s
wall time for SCC    0.00 s
speedup  1.02
cpu  time for grad    0.01 s
wall time for grad    0.01 s
 E :    -50.44994616  G :  0.013440    pred/act E change: -0.167D-03 -0.155D-03
Maxdispl :   0.0712   ||displ|| :   0.1610   Lambda : -0.314D-03
Largest |displ|/coords:  0.0712 (   2)  0.0652 (   3)  0.0503 (  17)

generating ANC from model Hessian ...
 Shifting diagonal of input Hessian by   4.969007306822881E-003
 Lowest  eigenvalues of input Hessian
   -0.000000   -0.000000   -0.000000    0.000000    0.000000    0.000000
    0.005000    0.005269    0.005518    0.005787    0.006216    0.006617
    0.007778    0.008051    0.008173    0.008365    0.009108    0.010400
 Highest eigenvalues
    1.402927    1.413749    1.421626    2.570125    3.502109    3.605822
 
cpu  time for ANC gen    0.02 s
wall time for ANC gen    0.02 s
................................................................................
.............................. CYCLE   26 ......................................
................................................................................
   1    -50.7400037 -0.507400E+02  0.100E-01    9.10       0.0  T
   2    -50.7400076 -0.394896E-05  0.751E-02    9.10       1.0  T
   3    -50.7400096 -0.195288E-05  0.132E-02    9.11       1.5  T
   4    -50.7400102 -0.598734E-06  0.479E-03    9.11       4.1  T
   5    -50.7400102 -0.320088E-07  0.101E-03    9.11      19.5  T
   6    -50.7400102 -0.117156E-08  0.606E-04    9.11      32.4  T
   7    -50.7400102 -0.679790E-09  0.200E-04    9.11      97.8  T
speedup  0.94
cpu  time for SCC    0.01 s
wall time for SCC    0.01 s
speedup  1.01
cpu  time for grad    0.01 s
wall time for grad    0.01 s
 E :    -50.45008996  G :  0.012555    pred/act E change:  0.000D+00 -0.144D-03
Maxdispl :   0.1646   ||displ|| :   0.2629   Lambda : -0.825D-03
Largest |displ|/coords:  0.1646 (   4)  0.1038 (   7)  0.0984 (   3)
................................................................................
.............................. CYCLE   27 ......................................
................................................................................
   1    -50.7395088 -0.507395E+02  0.283E-01    9.11       0.0  T
   2    -50.7395167 -0.790587E-05  0.214E-01    9.11       1.0  T
   3    -50.7395262 -0.957635E-05  0.132E-02    9.11       1.5  T
   4    -50.7395267 -0.425964E-06  0.503E-03    9.11       3.9  T
   5    -50.7395267 -0.201571E-07  0.215E-03    9.11       9.1  T
   6    -50.7395267 -0.543624E-08  0.760E-04    9.11      25.8  T
speedup  0.89
cpu  time for SCC    0.00 s
wall time for SCC    0.01 s
speedup  0.97
cpu  time for grad    0.01 s
wall time for grad    0.01 s
 E :    -50.45066232  G :  0.011312    pred/act E change:  0.000D+00 -0.572D-03
Maxdispl :   0.2650   ||displ|| :   0.3860   Lambda : -0.881D-03
Largest |displ|/coords:  0.2650 (   1)  0.1613 (   7)  0.1179 (   4)
................................................................................
.............................. CYCLE   28 ......................................
................................................................................
   1    -50.7365391 -0.507365E+02  0.349E-01    9.10       0.0  T
   2    -50.7365598 -0.207357E-04  0.264E-01    9.10       1.0  T
   3    -50.7365788 -0.189818E-04  0.236E-02    9.10       1.0  T
   4    -50.7365812 -0.238984E-05  0.657E-03    9.10       3.0  T
   5    -50.7365812 -0.240525E-07  0.346E-03    9.10       5.7  T
   6    -50.7365812 -0.160610E-07  0.112E-03    9.10      17.5  T
   7    -50.7365812 -0.362070E-08  0.297E-04    9.10      66.1  T
speedup  0.95
cpu  time for SCC    0.01 s
wall time for SCC    0.01 s
speedup  0.99
cpu  time for grad    0.01 s
wall time for grad    0.01 s
 E :    -50.45080564  G :  0.028432    pred/act E change: -0.441D-03 -0.143D-03
Maxdispl :   0.0466   ||displ|| :   0.1165   Lambda : -0.950D-03
Largest |displ|/coords:  0.0466 (   5)  0.0405 (  16)  0.0398 (   7)
................................................................................
.............................. CYCLE   29 ......................................
................................................................................
   1    -50.7412221 -0.507412E+02  0.154E-01    9.09       0.0  T
   2    -50.7412348 -0.126689E-04  0.116E-01    9.09       1.0  T
   3    -50.7412436 -0.879579E-05  0.200E-02    9.10       1.0  T
   4    -50.7412453 -0.175905E-05  0.342E-03    9.09       5.7  T
   5    -50.7412453 -0.123289E-07  0.201E-03    9.09       9.7  T
speedup  0.85
cpu  time for SCC    0.00 s
wall time for SCC    0.00 s
speedup  0.95
cpu  time for grad    0.01 s
wall time for grad    0.01 s
 E :    -50.45124283  G :  0.009582    pred/act E change: -0.506D-03 -0.437D-03
Maxdispl :   0.1045   ||displ|| :   0.2209   Lambda : -0.561D-03
Largest |displ|/coords:  0.1045 (   3)  0.0957 (   1)  0.0765 (  10)
................................................................................
.............................. CYCLE   30 ......................................
................................................................................
   1    -50.7402073 -0.507402E+02  0.236E-01    9.09       0.0  T
   2    -50.7402203 -0.130853E-04  0.179E-01    9.09       1.0  T
   3    -50.7402336 -0.132288E-04  0.179E-02    9.09       1.1  T
   4    -50.7402349 -0.131427E-05  0.560E-03    9.09       3.5  T
   5    -50.7402349 -0.448690E-07  0.243E-03    9.09       8.1  T
   6    -50.7402349 -0.422809E-08  0.118E-03    9.09      16.6  T
speedup  0.88
cpu  time for SCC    0.00 s
wall time for SCC    0.01 s
speedup  0.96
cpu  time for grad    0.01 s
wall time for grad    0.01 s
 E :    -50.45133669  G :  0.018995    pred/act E change: -0.481D-03 -0.939D-04
Maxdispl :   0.1394   ||displ|| :   0.2415   Lambda : -0.707D-03
Largest |displ|/coords:  0.1394 (   1)  0.1100 (   4)  0.0827 (   3)
................................................................................
.............................. CYCLE   31 ......................................
................................................................................
   1    -50.7397219 -0.507397E+02  0.197E-01    9.09       0.0  T
   2    -50.7397324 -0.105109E-04  0.148E-01    9.09       1.0  T
   3    -50.7397402 -0.783965E-05  0.181E-02    9.09       1.1  T
   4    -50.7397417 -0.149706E-05  0.431E-03    9.09       4.6  T
   5    -50.7397418 -0.200573E-07  0.238E-03    9.09       8.2  T
   6    -50.7397418 -0.570788E-08  0.864E-04    9.09      22.7  T
speedup  0.93
cpu  time for SCC    0.00 s
wall time for SCC    0.01 s
speedup  0.98
cpu  time for grad    0.01 s
wall time for grad    0.01 s
 E :    -50.45173242  G :  0.010666    pred/act E change: -0.294D-03 -0.396D-03
Maxdispl :   0.2205   ||displ|| :   0.2864   Lambda : -0.575D-03
Largest |displ|/coords:  0.2205 (   1)  0.0630 (   3)  0.0536 (  19)
................................................................................
.............................. CYCLE   32 ......................................
................................................................................
   1    -50.7408737 -0.507409E+02  0.167E-01    9.08       0.0  T
   2    -50.7408786 -0.486619E-05  0.126E-01    9.08       1.0  T
   3    -50.7408830 -0.447127E-05  0.119E-02    9.08       1.7  T
   4    -50.7408836 -0.530364E-06  0.320E-03    9.08       6.1  T
   5    -50.7408836 -0.123575E-07  0.150E-03    9.08      13.0  T
   6    -50.7408836 -0.235526E-08  0.599E-04    9.08      32.8  T
speedup  0.89
cpu  time for SCC    0.00 s
wall time for SCC    0.01 s
speedup  0.96
cpu  time for grad    0.01 s
wall time for grad    0.01 s
 E :    -50.45199124  G :  0.013854    pred/act E change: -0.374D-03 -0.259D-03
Maxdispl :   0.2860   ||displ|| :   0.4214   Lambda : -0.574D-03
Largest |displ|/coords:  0.2860 (   1)  0.2007 (   3)  0.1018 (   2)
................................................................................
.............................. CYCLE   33 ......................................
................................................................................
   1    -50.7366748 -0.507367E+02  0.245E-01    9.06       0.0  T
   2    -50.7366818 -0.696659E-05  0.185E-01    9.06       1.0  T
   3    -50.7366898 -0.801531E-05  0.143E-02    9.06       1.4  T
   4    -50.7366904 -0.541436E-06  0.477E-03    9.06       4.1  T
   5    -50.7366904 -0.199446E-07  0.239E-03    9.06       8.2  T
   6    -50.7366904 -0.965882E-08  0.922E-04    9.06      21.3  T
speedup  0.91
cpu  time for SCC    0.01 s
wall time for SCC    0.01 s
speedup  0.97
cpu  time for grad    0.01 s
wall time for grad    0.01 s
 E :    -50.45233651  G :  0.020068    pred/act E change: -0.311D-03 -0.345D-03
Maxdispl :   0.2307   ||displ|| :   0.3602   Lambda : -0.947D-03
Largest |displ|/coords:  0.2307 (   1)  0.1827 (   3)  0.1079 (   2)
................................................................................
.............................. CYCLE   34 ......................................
................................................................................
   1    -50.7386425 -0.507386E+02  0.191E-01    9.05       0.0  T
   2    -50.7386541 -0.115789E-04  0.144E-01    9.05       1.0  T
   3    -50.7386636 -0.950496E-05  0.192E-02    9.05       1.0  T
   4    -50.7386650 -0.137900E-05  0.504E-03    9.05       3.9  T
   5    -50.7386650 -0.324091E-07  0.220E-03    9.05       8.9  T
speedup  0.85
cpu  time for SCC    0.00 s
wall time for SCC    0.00 s
speedup  1.02
cpu  time for grad    0.01 s
wall time for grad    0.01 s
 E :    -50.45265723  G :  0.020213    pred/act E change: -0.338D-03 -0.321D-03
Maxdispl :   0.2325   ||displ|| :   0.3342   Lambda : -0.780D-03
Largest |displ|/coords:  0.2325 (   1)  0.1269 (   3)  0.0783 (   2)
................................................................................
.............................. CYCLE   35 ......................................
................................................................................
   1    -50.7379678 -0.507380E+02  0.182E-01    9.03       0.0  T
   2    -50.7379759 -0.808270E-05  0.136E-01    9.03       1.0  T
   3    -50.7379832 -0.734099E-05  0.168E-02    9.04       1.2  T
   4    -50.7379841 -0.878801E-06  0.452E-03    9.04       4.3  T
   5    -50.7379841 -0.244615E-07  0.208E-03    9.04       9.4  T
speedup  1.09
cpu  time for SCC    0.01 s
wall time for SCC    0.00 s
speedup  1.05
cpu  time for grad    0.01 s
wall time for grad    0.01 s
 E :    -50.45315957  G :  0.013819    pred/act E change: -0.535D-03 -0.502D-03
Maxdispl :   0.2619   ||displ|| :   0.4108   Lambda : -0.832D-03
Largest |displ|/coords:  0.2619 (   1)  0.1624 (   3)  0.0968 (  26)
................................................................................
.............................. CYCLE   36 ......................................
................................................................................
   1    -50.7380816 -0.507381E+02  0.229E-01    9.03       0.0  T
   2    -50.7380874 -0.580946E-05  0.172E-01    9.03       1.0  T
   3    -50.7380944 -0.692844E-05  0.149E-02    9.03       1.3  T
   4    -50.7380947 -0.298089E-06  0.483E-03    9.03       4.1  T
   5    -50.7380947 -0.245037E-07  0.185E-03    9.03      10.6  T
   6    -50.7380947 -0.344302E-08  0.926E-04    9.03      21.2  T
speedup  1.11
cpu  time for SCC    0.01 s
wall time for SCC    0.01 s
speedup  1.04
cpu  time for grad    0.01 s
wall time for grad    0.01 s
 E :    -50.45353922  G :  0.018378    pred/act E change: -0.434D-03 -0.380D-03
Maxdispl :   0.2628   ||displ|| :   0.3943   Lambda : -0.716D-03
Largest |displ|/coords:  0.2628 (   1)  0.1843 (   3)  0.0937 (   2)
................................................................................
.............................. CYCLE   37 ......................................
................................................................................
   1    -50.7377484 -0.507377E+02  0.204E-01    9.02       0.0  T
   2    -50.7377565 -0.813003E-05  0.154E-01    9.02       1.0  T
   3    -50.7377661 -0.956512E-05  0.152E-02    9.03       1.3  T
   4    -50.7377666 -0.538117E-06  0.607E-03    9.03       3.2  T
   5    -50.7377666 -0.350675E-07  0.196E-03    9.03      10.0  T
   6    -50.7377666 -0.495648E-08  0.115E-03    9.03      17.1  T
speedup  1.07
cpu  time for SCC    0.01 s
wall time for SCC    0.01 s
speedup  1.03
cpu  time for grad    0.01 s
wall time for grad    0.01 s
 E :    -50.45398994  G :  0.022581    pred/act E change: -0.486D-03 -0.451D-03
Maxdispl :   0.1494   ||displ|| :   0.3303   Lambda : -0.165D-02
Largest |displ|/coords:  0.1494 (   3)  0.1291 (   1)  0.1008 (   8)
................................................................................
.............................. CYCLE   38 ......................................
................................................................................
   1    -50.7535349 -0.507535E+02  0.197E-01    9.22       0.0  T
   2    -50.7535731 -0.382628E-04  0.146E-01    9.22       1.0  T
   3    -50.7535948 -0.216601E-04  0.382E-02    9.22       1.0  T
   4    -50.7535984 -0.365233E-05  0.133E-02    9.22       1.5  T
   5    -50.7535988 -0.393813E-06  0.338E-03    9.22       5.8  T
   6    -50.7535988 -0.737964E-08  0.192E-03    9.22      10.2  T
speedup  0.93
cpu  time for SCC    0.00 s
wall time for SCC    0.01 s
speedup  0.98
cpu  time for grad    0.01 s
wall time for grad    0.01 s
 E :    -50.45346807  G :  0.039748    pred/act E change: -0.413D-03  0.522D-03
Maxdispl :   0.2082   ||displ|| :   0.3431   Lambda : -0.280D-02
Largest |displ|/coords:  0.2082 (   1)  0.1614 (   3)  0.0884 (   7)
................................................................................
.............................. CYCLE   39 ......................................
................................................................................
   1    -50.7398825 -0.507399E+02  0.223E-01    9.12       0.0  T
   2    -50.7399068 -0.243639E-04  0.166E-01    9.12       1.0  T
   3    -50.7399245 -0.176476E-04  0.288E-02    9.12       1.0  T
   4    -50.7399276 -0.315161E-05  0.758E-03    9.12       2.6  T
   5    -50.7399277 -0.688049E-07  0.371E-03    9.12       5.3  T
   6    -50.7399277 -0.127203E-07  0.155E-03    9.12      12.6  T
speedup  1.07
cpu  time for SCC    0.01 s
wall time for SCC    0.01 s
speedup  0.95
cpu  time for grad    0.01 s
wall time for grad    0.01 s
 E :    -50.45479843  G :  0.017895    pred/act E change: -0.912D-03 -0.133D-02
Maxdispl :   0.2172   ||displ|| :   0.3059   Lambda : -0.991D-03
Largest |displ|/coords:  0.2172 (   1)  0.0805 (  26)  0.0779 (  22)
................................................................................
.............................. CYCLE   40 ......................................
................................................................................
   1    -50.7405328 -0.507405E+02  0.176E-01    9.05       0.0  T
   2    -50.7405431 -0.102490E-04  0.132E-01    9.05       1.0  T
   3    -50.7405514 -0.830113E-05  0.210E-02    9.05       1.0  T
   4    -50.7405525 -0.111252E-05  0.593E-03    9.05       3.3  T
   5    -50.7405525 -0.603969E-07  0.197E-03    9.05      10.0  T
   6    -50.7405525 -0.372251E-08  0.108E-03    9.05      18.1  T
speedup  1.11
cpu  time for SCC    0.01 s
wall time for SCC    0.01 s
speedup  1.04
cpu  time for grad    0.01 s
wall time for grad    0.01 s
 E :    -50.45519858  G :  0.021430    pred/act E change: -0.157D-02 -0.400D-03
Maxdispl :   0.2898   ||displ|| :   0.4392   Lambda : -0.747D-03
Largest |displ|/coords:  0.2898 (   1)  0.2171 (   3)  0.0880 (   2)
................................................................................
.............................. CYCLE   41 ......................................
................................................................................
   1    -50.7390545 -0.507391E+02  0.200E-01    9.04       0.0  T
   2    -50.7390611 -0.655625E-05  0.150E-01    9.04       1.0  T
   3    -50.7390669 -0.588470E-05  0.152E-02    9.04       1.3  T
   4    -50.7390677 -0.738473E-06  0.718E-03    9.04       2.7  T
   5    -50.7390677 -0.485420E-07  0.165E-03    9.04      11.9  T
   6    -50.7390677 -0.291850E-08  0.109E-03    9.04      17.9  T
speedup  1.07
cpu  time for SCC    0.01 s
wall time for SCC    0.01 s
speedup  1.02
cpu  time for grad    0.01 s
wall time for grad    0.01 s
 E :    -50.45577188  G :  0.019893    pred/act E change: -0.542D-03 -0.573D-03
Maxdispl :   0.1213   ||displ|| :   0.3711   Lambda : -0.213D-02
Largest |displ|/coords:  0.1213 (   5)  0.1180 (   1)  0.1161 (   3)
................................................................................
.............................. CYCLE   42 ......................................
................................................................................
   1    -50.7581359 -0.507581E+02  0.266E-01    9.53       0.0  T
   2    -50.7581959 -0.600366E-04  0.194E-01    9.53       1.0  T
   3    -50.7582236 -0.276559E-04  0.599E-02    9.51       1.0  T
   4    -50.7582290 -0.545363E-05  0.150E-02    9.51       1.3  T
   5    -50.7582295 -0.461387E-06  0.421E-03    9.51       4.7  T
   6    -50.7582295 -0.169562E-07  0.243E-03    9.52       8.1  T
   7    -50.7582295 -0.125278E-07  0.766E-04    9.52      25.6  T
speedup  0.95
cpu  time for SCC    0.01 s
wall time for SCC    0.01 s
speedup  0.98
cpu  time for grad    0.01 s
wall time for grad    0.01 s
 E :    -50.45494814  G :  0.055325    pred/act E change: -0.446D-03  0.824D-03
Maxdispl :   0.1369   ||displ|| :   0.3250   Lambda : -0.809D-02
Largest |displ|/coords:  0.1369 (   1)  0.1021 (  13)  0.0887 (  15)
................................................................................
.............................. CYCLE   43 ......................................
................................................................................
   1    -50.7329175 -0.507329E+02  0.338E-01    8.89       0.0  T
   2    -50.7331042 -0.186604E-03  0.242E-01    8.89       1.0  T
   3    -50.7332081 -0.103958E-03  0.891E-02    8.91       1.0  T
   4    -50.7332230 -0.149045E-04  0.258E-02    8.91       1.0  T
   5    -50.7332248 -0.175440E-05  0.819E-03    8.91       2.4  T
   6    -50.7332249 -0.111251E-06  0.449E-03    8.91       4.4  T
   7    -50.7332249 -0.318945E-07  0.116E-03    8.91      17.0  T
speedup  0.91
cpu  time for SCC    0.01 s
wall time for SCC    0.01 s
speedup  0.95
cpu  time for grad    0.01 s
wall time for grad    0.01 s
 E :    -50.45378647  G :  0.065315    pred/act E change: -0.121D-02  0.116D-02
Maxdispl :   0.0812   ||displ|| :   0.2727   Lambda : -0.961D-02
Largest |displ|/coords:  0.0812 (   8)  0.0775 (   4)  0.0753 (  10)
................................................................................
.............................. CYCLE   44 ......................................
................................................................................
   1    -50.7498766 -0.507499E+02  0.318E-01    9.35       0.0  T
   2    -50.7500149 -0.138377E-03  0.233E-01    9.34       1.0  T
   3    -50.7501136 -0.986548E-04  0.745E-02    9.34       1.0  T
   4    -50.7501258 -0.122255E-04  0.236E-02    9.34       1.0  T
   5    -50.7501270 -0.122821E-05  0.755E-03    9.34       2.6  T
   6    -50.7501271 -0.431021E-07  0.371E-03    9.34       5.3  T
   7    -50.7501271 -0.294018E-07  0.902E-04    9.34      21.7  T
speedup  0.94
cpu  time for SCC    0.01 s
wall time for SCC    0.01 s
speedup  0.97
cpu  time for grad    0.01 s
wall time for grad    0.01 s
 E :    -50.45520622  G :  0.054943    pred/act E change: -0.447D-02 -0.142D-02
Maxdispl :   0.0741   ||displ|| :   0.2266   Lambda : -0.650D-02
Largest |displ|/coords:  0.0741 (   8)  0.0659 (   2)  0.0651 (   9)
................................................................................
.............................. CYCLE   45 ......................................
................................................................................
   1    -50.7474062 -0.507474E+02  0.278E-01    9.20       0.0  T
   2    -50.7475024 -0.962045E-04  0.207E-01    9.20       1.0  T
   3    -50.7475773 -0.748653E-04  0.555E-02    9.21       1.0  T
   4    -50.7475868 -0.951071E-05  0.162E-02    9.21       1.2  T
   5    -50.7475873 -0.459401E-06  0.642E-03    9.21       3.1  T
   6    -50.7475873 -0.368230E-07  0.293E-03    9.21       6.7  T
   7    -50.7475873 -0.154300E-07  0.663E-04    9.21      29.6  T
speedup  1.08
cpu  time for SCC    0.01 s
wall time for SCC    0.01 s
speedup  1.03
cpu  time for grad    0.01 s
wall time for grad    0.01 s
 E :    -50.45558533  G :  0.053420    pred/act E change: -0.516D-02 -0.379D-03
Maxdispl :   0.0698   ||displ|| :   0.2134   Lambda : -0.504D-02
Largest |displ|/coords:  0.0698 (   8)  0.0681 (  11)  0.0625 (   1)
................................................................................
.............................. CYCLE   46 ......................................
................................................................................
   1    -50.7414047 -0.507414E+02  0.263E-01    9.14       0.0  T
   2    -50.7414882 -0.835025E-04  0.196E-01    9.14       1.0  T
   3    -50.7415487 -0.604920E-04  0.510E-02    9.14       1.0  T
   4    -50.7415574 -0.873253E-05  0.108E-02    9.14       1.8  T
   5    -50.7415576 -0.110451E-06  0.514E-03    9.14       3.8  T
   6    -50.7415576 -0.446524E-07  0.149E-03    9.14      13.2  T
speedup  1.09
cpu  time for SCC    0.01 s
wall time for SCC    0.01 s
speedup  1.04
cpu  time for grad    0.01 s
wall time for grad    0.01 s
 E :    -50.45621439  G :  0.039951    pred/act E change: -0.342D-02 -0.629D-03
Maxdispl :   0.0338   ||displ|| :   0.1014   Lambda : -0.196D-02
Largest |displ|/coords:  0.0338 (   5)  0.0301 (  11)  0.0281 (   7)
................................................................................
.............................. CYCLE   47 ......................................
................................................................................
   1    -50.7488644 -0.507489E+02  0.127E-01    9.26       0.0  T
   2    -50.7488850 -0.206895E-04  0.937E-02    9.26       1.0  T
   3    -50.7488998 -0.147373E-04  0.265E-02    9.25       1.0  T
   4    -50.7489016 -0.177246E-05  0.654E-03    9.25       3.0  T
   5    -50.7489016 -0.940116E-07  0.282E-03    9.25       6.9  T
   6    -50.7489017 -0.725747E-08  0.131E-03    9.25      15.0  T
speedup  0.89
cpu  time for SCC    0.01 s
wall time for SCC    0.01 s
speedup  0.96
cpu  time for grad    0.01 s
wall time for grad    0.01 s
 E :    -50.45720225  G :  0.009600    pred/act E change: -0.264D-02 -0.988D-03
Maxdispl :   0.0727   ||displ|| :   0.1261   Lambda : -0.390D-03
Largest |displ|/coords:  0.0727 (   1)  0.0614 (   3)  0.0259 (  22)
................................................................................
.............................. CYCLE   48 ......................................
................................................................................
   1    -50.7468259 -0.507468E+02  0.831E-02    9.21       0.0  T
   2    -50.7468291 -0.319524E-05  0.622E-02    9.21       1.0  T
   3    -50.7468318 -0.269642E-05  0.110E-02    9.21       1.8  T
   4    -50.7468321 -0.368352E-06  0.343E-03    9.21       5.7  T
   5    -50.7468322 -0.205731E-07  0.124E-03    9.21      15.8  T
   6    -50.7468322 -0.194269E-08  0.629E-04    9.21      31.2  T
speedup  1.09
cpu  time for SCC    0.01 s
wall time for SCC    0.01 s
speedup  1.02
cpu  time for grad    0.01 s
wall time for grad    0.01 s
 E :    -50.45741357  G :  0.011897    pred/act E change: -0.992D-03 -0.211D-03
Maxdispl :   0.1060   ||displ|| :   0.1767   Lambda : -0.349D-03
Largest |displ|/coords:  0.1060 (   1)  0.0704 (   3)  0.0410 (  37)
................................................................................
.............................. CYCLE   49 ......................................
................................................................................
   1    -50.7464449 -0.507464E+02  0.113E-01    9.20       0.0  T
   2    -50.7464471 -0.219669E-05  0.850E-02    9.20       1.0  T
   3    -50.7464492 -0.213504E-05  0.104E-02    9.20       1.9  T
   4    -50.7464495 -0.248036E-06  0.351E-03    9.20       5.6  T
   5    -50.7464495 -0.136400E-07  0.103E-03    9.20      19.1  T
   6    -50.7464495 -0.105333E-08  0.639E-04    9.20      30.7  T
speedup  0.88
cpu  time for SCC    0.01 s
wall time for SCC    0.01 s
speedup  1.01
cpu  time for grad    0.01 s
wall time for grad    0.01 s
 E :    -50.45774320  G :  0.013302    pred/act E change: -0.198D-03 -0.330D-03
Maxdispl :   0.3886   ||displ|| :   0.6911   Lambda : -0.156D-02
Largest |displ|/coords:  0.3886 (   1)  0.2335 (   3)  0.1704 (  37)
................................................................................
.............................. CYCLE   50 ......................................
................................................................................
   1    -50.7430477 -0.507430E+02  0.471E-01    9.18       0.0  T
   2    -50.7430867 -0.389755E-04  0.355E-01    9.17       1.0  T
   3    -50.7431211 -0.344936E-04  0.449E-02    9.16       1.0  T
   4    -50.7431262 -0.502125E-05  0.138E-02    9.17       1.4  T
   5    -50.7431264 -0.218693E-06  0.450E-03    9.17       4.4  T
   6    -50.7431264 -0.208002E-07  0.265E-03    9.17       7.4  T
   7    -50.7431264 -0.964410E-08  0.668E-04    9.17      29.4  T
speedup  1.09
cpu  time for SCC    0.01 s
wall time for SCC    0.01 s
speedup  1.02
cpu  time for grad    0.01 s
wall time for grad    0.01 s
 E :    -50.45877004  G :  0.026055    pred/act E change: -0.180D-03 -0.103D-02
Maxdispl :   0.1160   ||displ|| :   0.2517   Lambda : -0.893D-03
Largest |displ|/coords:  0.1160 (   1)  0.0828 (   5)  0.0569 (   9)
................................................................................
.............................. CYCLE   51 ......................................
................................................................................
   1    -50.7464664 -0.507465E+02  0.176E-01    9.19       0.0  T
   2    -50.7464721 -0.565907E-05  0.133E-01    9.19       1.0  T
   3    -50.7464784 -0.636946E-05  0.154E-02    9.19       1.3  T
   4    -50.7464789 -0.435972E-06  0.458E-03    9.19       4.3  T
   5    -50.7464789 -0.353859E-07  0.198E-03    9.19       9.9  T
speedup  0.85
cpu  time for SCC    0.00 s
wall time for SCC    0.00 s
speedup  0.98
cpu  time for grad    0.01 s
wall time for grad    0.01 s
 E :    -50.45940716  G :  0.017301    pred/act E change: -0.115D-02 -0.637D-03
Maxdispl :   0.1174   ||displ|| :   0.4070   Lambda : -0.128D-02
Largest |displ|/coords:  0.1174 (   5)  0.1150 (   1)  0.1079 (  31)
................................................................................
.............................. CYCLE   52 ......................................
................................................................................
   1    -50.7534777 -0.507535E+02  0.314E-01    9.48       0.0  T
   2    -50.7535048 -0.270456E-04  0.231E-01    9.48       1.0  T
   3    -50.7535159 -0.111107E-04  0.477E-02    9.47       1.0  T
   4    -50.7535200 -0.410487E-05  0.126E-02    9.48       1.6  T
   5    -50.7535201 -0.148210E-06  0.263E-03    9.48       7.5  T
   6    -50.7535201 -0.989212E-08  0.149E-03    9.48      13.2  T
speedup  0.91
cpu  time for SCC    0.01 s
wall time for SCC    0.01 s
speedup  1.01
cpu  time for grad    0.01 s
wall time for grad    0.01 s
 E :    -50.45989510  G :  0.024543    pred/act E change: -0.475D-03 -0.488D-03
Maxdispl :   0.1799   ||displ|| :   0.3911   Lambda : -0.105D-02
Largest |displ|/coords:  0.1799 (   1)  0.1203 (   5)  0.1143 (  11)

generating ANC from model Hessian ...
 Shifting diagonal of input Hessian by   4.967710805260095E-003
 Lowest  eigenvalues of input Hessian
   -0.000000    0.000000    0.000000    0.000000    0.000000    0.000000
    0.005000    0.005426    0.005984    0.006113    0.006485    0.007415
    0.007594    0.008317    0.008641    0.009403    0.009960    0.010131
 Highest eigenvalues
    1.398632    1.408314    1.475936    2.551738    3.441087    3.600510
 
cpu  time for ANC gen    0.03 s
wall time for ANC gen    0.03 s
................................................................................
.............................. CYCLE   53 ......................................
................................................................................
   1    -50.7479212 -0.507479E+02  0.288E-01    9.19       0.0  T
   2    -50.7479405 -0.193472E-04  0.215E-01    9.19       1.0  T
   3    -50.7479540 -0.134175E-04  0.349E-02    9.20       1.0  T
   4    -50.7479567 -0.277482E-05  0.951E-03    9.20       2.1  T
   5    -50.7479569 -0.124781E-06  0.283E-03    9.20       6.9  T
   6    -50.7479569 -0.808043E-08  0.163E-03    9.20      12.0  T
   7    -50.7479569 -0.471573E-08  0.351E-04    9.20      55.9  T
   8    -50.7479569 -0.642565E-09  0.137E-04    9.20     143.3  T
speedup  0.97
cpu  time for SCC    0.01 s
wall time for SCC    0.01 s
speedup  1.00
cpu  time for grad    0.02 s
wall time for grad    0.02 s
 E :    -50.46032860  G :  0.023068    pred/act E change:  0.000D+00 -0.434D-03
Maxdispl :   0.1324   ||displ|| :   0.2842   Lambda : -0.137D-02
Largest |displ|/coords:  0.1324 (   7)  0.1003 (   9)  0.0942 (   3)
................................................................................
.............................. CYCLE   54 ......................................
................................................................................
   1    -50.7502366 -0.507502E+02  0.216E-01    9.23       0.0  T
   2    -50.7502452 -0.862002E-05  0.163E-01    9.23       1.0  T
   3    -50.7502525 -0.724782E-05  0.196E-02    9.24       1.0  T
   4    -50.7502537 -0.117944E-05  0.608E-03    9.23       3.2  T
   5    -50.7502537 -0.360356E-07  0.219E-03    9.24       8.9  T
   6    -50.7502537 -0.328467E-08  0.109E-03    9.24      18.0  T
speedup  0.89
cpu  time for SCC    0.01 s
wall time for SCC    0.01 s
speedup  0.94
cpu  time for grad    0.01 s
wall time for grad    0.01 s
 E :    -50.46123462  G :  0.010500    pred/act E change:  0.000D+00 -0.906D-03
Maxdispl :   0.1588   ||displ|| :   0.3236   Lambda : -0.814D-03
Largest |displ|/coords:  0.1588 (   1)  0.1478 (   3)  0.1313 (   7)
................................................................................
.............................. CYCLE   55 ......................................
................................................................................
   1    -50.7514470 -0.507514E+02  0.225E-01    9.27       0.0  T
   2    -50.7514547 -0.769478E-05  0.169E-01    9.27       1.0  T
   3    -50.7514612 -0.658304E-05  0.198E-02    9.27       1.0  T
   4    -50.7514623 -0.102871E-05  0.618E-03    9.27       3.2  T
   5    -50.7514623 -0.397448E-07  0.233E-03    9.27       8.4  T
   6    -50.7514623 -0.504534E-08  0.117E-03    9.27      16.8  T
speedup  1.09
cpu  time for SCC    0.01 s
wall time for SCC    0.01 s
speedup  1.03
cpu  time for grad    0.01 s
wall time for grad    0.01 s
 E :    -50.46178624  G :  0.013918    pred/act E change: -0.741D-03 -0.552D-03
Maxdispl :   0.1908   ||displ|| :   0.3932   Lambda : -0.812D-03
Largest |displ|/coords:  0.1908 (   1)  0.1600 (   7)  0.1355 (   9)
................................................................................
.............................. CYCLE   56 ......................................
................................................................................
   1    -50.7532394 -0.507532E+02  0.228E-01    9.26       0.0  T
   2    -50.7532504 -0.109580E-04  0.170E-01    9.26       1.0  T
   3    -50.7532594 -0.902457E-05  0.237E-02    9.27       1.0  T
   4    -50.7532607 -0.133586E-05  0.644E-03    9.27       3.0  T
   5    -50.7532608 -0.623016E-07  0.235E-03    9.27       8.3  T
   6    -50.7532608 -0.751485E-08  0.128E-03    9.27      15.4  T
speedup  1.09
cpu  time for SCC    0.01 s
wall time for SCC    0.01 s
speedup  1.01
cpu  time for grad    0.01 s
wall time for grad    0.01 s
 E :    -50.46233761  G :  0.013681    pred/act E change: -0.450D-03 -0.551D-03
Maxdispl :   0.2140   ||displ|| :   0.5219   Lambda : -0.961D-03
Largest |displ|/coords:  0.2140 (   1)  0.2104 (   3)  0.2080 (   7)
................................................................................
.............................. CYCLE   57 ......................................
................................................................................
   1    -50.7483477 -0.507483E+02  0.337E-01    9.18       0.0  T
   2    -50.7483717 -0.239791E-04  0.252E-01    9.18       1.0  T
   3    -50.7483940 -0.223341E-04  0.316E-02    9.18       1.0  T
   4    -50.7483968 -0.276167E-05  0.999E-03    9.19       2.0  T
   5    -50.7483969 -0.163432E-06  0.391E-03    9.18       5.0  T
   6    -50.7483969 -0.247322E-07  0.218E-03    9.18       9.0  T
   7    -50.7483969 -0.732655E-08  0.552E-04    9.18      35.5  T
speedup  0.95
cpu  time for SCC    0.01 s
wall time for SCC    0.01 s
speedup  0.97
cpu  time for grad    0.01 s
wall time for grad    0.01 s
 E :    -50.46289337  G :  0.022079    pred/act E change: -0.469D-03 -0.556D-03
Maxdispl :   0.1301   ||displ|| :   0.3004   Lambda : -0.107D-02
Largest |displ|/coords:  0.1301 (   8)  0.1090 (   6)  0.0895 (   7)
................................................................................
.............................. CYCLE   58 ......................................
................................................................................
   1    -50.7515410 -0.507515E+02  0.160E-01    9.14       0.0  T
   2    -50.7515563 -0.153793E-04  0.118E-01    9.14       1.0  T
   3    -50.7515645 -0.818980E-05  0.249E-02    9.13       1.0  T
   4    -50.7515666 -0.201942E-05  0.889E-03    9.14       2.2  T
   5    -50.7515667 -0.127564E-06  0.226E-03    9.14       8.7  T
   6    -50.7515667 -0.745653E-08  0.127E-03    9.14      15.4  T
speedup  1.09
cpu  time for SCC    0.01 s
wall time for SCC    0.01 s
speedup  1.02
cpu  time for grad    0.01 s
wall time for grad    0.01 s
 E :    -50.46334738  G :  0.014964    pred/act E change: -0.611D-03 -0.454D-03
Maxdispl :   0.0821   ||displ|| :   0.2290   Lambda : -0.597D-03
Largest |displ|/coords:  0.0821 (   8)  0.0776 (   7)  0.0750 (   1)
................................................................................
.............................. CYCLE   59 ......................................
................................................................................
   1    -50.7492807 -0.507493E+02  0.169E-01    9.14       0.0  T
   2    -50.7492869 -0.618068E-05  0.128E-01    9.14       1.0  T
   3    -50.7492934 -0.651957E-05  0.141E-02    9.14       1.4  T
   4    -50.7492941 -0.629014E-06  0.609E-03    9.14       3.2  T
   5    -50.7492941 -0.442672E-07  0.194E-03    9.14      10.1  T
   6    -50.7492941 -0.419271E-08  0.981E-04    9.14      20.0  T
speedup  1.07
cpu  time for SCC    0.01 s
wall time for SCC    0.01 s
speedup  1.01
cpu  time for grad    0.01 s
wall time for grad    0.01 s
 E :    -50.46370214  G :  0.015164    pred/act E change: -0.582D-03 -0.355D-03
Maxdispl :   0.0934   ||displ|| :   0.2303   Lambda : -0.747D-03
Largest |displ|/coords:  0.0934 (   3)  0.0830 (  12)  0.0715 (   5)
................................................................................
.............................. CYCLE   60 ......................................
................................................................................
   1    -50.7503188 -0.507503E+02  0.186E-01    9.29       0.0  T
   2    -50.7503312 -0.123820E-04  0.138E-01    9.29       1.0  T
   3    -50.7503388 -0.757970E-05  0.228E-02    9.29       1.0  T
   4    -50.7503405 -0.173248E-05  0.724E-03    9.29       2.7  T
   5    -50.7503406 -0.795269E-07  0.246E-03    9.29       8.0  T
   6    -50.7503406 -0.667001E-08  0.143E-03    9.29      13.7  T
speedup  0.93
cpu  time for SCC    0.00 s
wall time for SCC    0.01 s
speedup  0.95
cpu  time for grad    0.01 s
wall time for grad    0.01 s
 E :    -50.46393313  G :  0.022116    pred/act E change: -0.314D-03 -0.231D-03
Maxdispl :   0.0580   ||displ|| :   0.1273   Lambda : -0.614D-03
Largest |displ|/coords:  0.0580 (   9)  0.0450 (  10)  0.0379 (   8)
................................................................................
.............................. CYCLE   61 ......................................
................................................................................
   1    -50.7528941 -0.507529E+02  0.892E-02    9.31       0.0  T
   2    -50.7528985 -0.440404E-05  0.664E-02    9.31       1.0  T
   3    -50.7529014 -0.290340E-05  0.129E-02    9.31       1.5  T
   4    -50.7529020 -0.552366E-06  0.486E-03    9.31       4.0  T
   5    -50.7529020 -0.426521E-07  0.136E-03    9.31      14.5  T
speedup  1.09
cpu  time for SCC    0.00 s
wall time for SCC    0.00 s
speedup  1.01
cpu  time for grad    0.01 s
wall time for grad    0.01 s
 E :    -50.46433046  G :  0.009606    pred/act E change: -0.393D-03 -0.397D-03
Maxdispl :   0.1821   ||displ|| :   0.4293   Lambda : -0.668D-03
Largest |displ|/coords:  0.1821 (   9)  0.1505 (   8)  0.1434 (   1)
................................................................................
.............................. CYCLE   62 ......................................
................................................................................
   1    -50.7483644 -0.507484E+02  0.294E-01    9.15       0.0  T
   2    -50.7483819 -0.175147E-04  0.220E-01    9.15       1.0  T
   3    -50.7483968 -0.148663E-04  0.298E-02    9.12       1.0  T
   4    -50.7483989 -0.214814E-05  0.109E-02    9.13       1.8  T
   5    -50.7483991 -0.142031E-06  0.310E-03    9.13       6.3  T
   6    -50.7483991 -0.133061E-07  0.194E-03    9.13      10.1  T
   7    -50.7483991 -0.556405E-08  0.484E-04    9.13      40.5  T
speedup  0.95
cpu  time for SCC    0.01 s
wall time for SCC    0.01 s
speedup  0.97
cpu  time for grad    0.01 s
wall time for grad    0.01 s
 E :    -50.46455795  G :  0.017480    pred/act E change: -0.312D-03 -0.227D-03
Maxdispl :   0.0938   ||displ|| :   0.2183   Lambda : -0.816D-03
Largest |displ|/coords:  0.0938 (   1)  0.0872 (   4)  0.0751 (   2)
................................................................................
.............................. CYCLE   63 ......................................
................................................................................
   1    -50.7534299 -0.507534E+02  0.162E-01    9.29       0.0  T
   2    -50.7534354 -0.549790E-05  0.119E-01    9.29       1.0  T
   3    -50.7534387 -0.333869E-05  0.170E-02    9.30       1.2  T
   4    -50.7534394 -0.684554E-06  0.737E-03    9.30       2.7  T
   5    -50.7534394 -0.411833E-07  0.127E-03    9.30      15.4  T
   6    -50.7534394 -0.223012E-08  0.832E-04    9.30      23.6  T
speedup  1.03
cpu  time for SCC    0.01 s
wall time for SCC    0.01 s
speedup  0.98
cpu  time for grad    0.01 s
wall time for grad    0.01 s
 E :    -50.46502154  G :  0.010515    pred/act E change: -0.396D-03 -0.464D-03
Maxdispl :   0.0929   ||displ|| :   0.3050   Lambda : -0.712D-03
Largest |displ|/coords:  0.0929 (  15)  0.0897 (   2)  0.0868 (   4)
................................................................................
.............................. CYCLE   64 ......................................
................................................................................
   1    -50.7564694 -0.507565E+02  0.233E-01    9.41       0.0  T
   2    -50.7564794 -0.100570E-04  0.174E-01    9.41       1.0  T
   3    -50.7564882 -0.876717E-05  0.227E-02    9.41       1.0  T
   4    -50.7564894 -0.117160E-05  0.107E-02    9.41       1.8  T
   5    -50.7564895 -0.966845E-07  0.232E-03    9.41       8.5  T
   6    -50.7564895 -0.531022E-08  0.157E-03    9.41      12.5  T
speedup  1.09
cpu  time for SCC    0.01 s
wall time for SCC    0.01 s
speedup  1.01
cpu  time for grad    0.01 s
wall time for grad    0.01 s
 E :    -50.46531666  G :  0.018984    pred/act E change: -0.427D-03 -0.295D-03
Maxdispl :   0.1459   ||displ|| :   0.4217   Lambda : -0.838D-03
Largest |displ|/coords:  0.1459 (   5)  0.1431 (   3)  0.1280 (   9)
................................................................................
.............................. CYCLE   65 ......................................
................................................................................
[...]
wall time for SCC    0.00 s
speedup  1.03
cpu  time for grad    0.01 s
wall time for grad    0.01 s
 E :    -50.47375855  G :  0.000315    pred/act E change: -0.298D-06 -0.350D-06
Maxdispl :   0.0041   ||displ|| :   0.0094   Lambda : -0.407D-06
Largest |displ|/coords:  0.0041 (  11)  0.0040 (  37)  0.0036 (   4)
................................................................................
.............................. CYCLE  203 ......................................
................................................................................
   1    -50.7677059 -0.507677E+02  0.770E-03    9.11       0.0  T
   2    -50.7677059 -0.812688E-08  0.576E-03    9.11       3.4  T
   3    -50.7677060 -0.878675E-08  0.733E-04    9.11      26.8  T
   4    -50.7677060 -0.509750E-09  0.210E-04    9.11      93.4  T
speedup  1.03
cpu  time for SCC    0.00 s
wall time for SCC    0.00 s
speedup  0.94
cpu  time for grad    0.01 s
wall time for grad    0.01 s
 E :    -50.47375884  G :  0.000249    pred/act E change: -0.242D-06 -0.286D-06
Maxdispl :   0.0042   ||displ|| :   0.0084   Lambda : -0.321D-06
Largest |displ|/coords:  0.0042 (   4)  0.0036 (  37)  0.0026 (  12)
................................................................................
.............................. CYCLE  204 ......................................
................................................................................
   1    -50.7676960 -0.507677E+02  0.701E-03    9.11       0.0  T
   2    -50.7676960 -0.646799E-08  0.524E-03    9.11       3.7  T
   3    -50.7676960 -0.672829E-08  0.663E-04    9.11      29.6  T
   4    -50.7676960 -0.455067E-09  0.142E-04    9.11     138.4  T
speedup  1.03
cpu  time for SCC    0.00 s
wall time for SCC    0.00 s
speedup  1.02
cpu  time for grad    0.01 s
wall time for grad    0.01 s
 E :    -50.47375907  G :  0.000293    pred/act E change: -0.204D-06 -0.231D-06
Maxdispl :   0.0059   ||displ|| :   0.0098   Lambda : -0.330D-06
Largest |displ|/coords:  0.0059 (   4)  0.0040 (  37)  0.0027 (   3)
................................................................................
.............................. CYCLE  205 ......................................
................................................................................
   1    -50.7676820 -0.507677E+02  0.785E-03    9.11       0.0  T
   2    -50.7676820 -0.895558E-08  0.587E-03    9.11       3.3  T
   3    -50.7676820 -0.665712E-08  0.735E-04    9.11      26.7  T
   4    -50.7676820 -0.112158E-08  0.295E-04    9.11      66.5  T
speedup  1.05
cpu  time for SCC    0.00 s
wall time for SCC    0.00 s
speedup  1.03
cpu  time for grad    0.01 s
wall time for grad    0.01 s
 E :    -50.47375931  G :  0.000327    pred/act E change: -0.161D-06 -0.236D-06
Maxdispl :   0.0049   ||displ|| :   0.0086   Lambda : -0.273D-06
Largest |displ|/coords:  0.0049 (   4)  0.0036 (   3)  0.0030 (  37)
................................................................................
.............................. CYCLE  206 ......................................
................................................................................
   1    -50.7676912 -0.507677E+02  0.625E-03    9.11       0.0  T
   2    -50.7676912 -0.720416E-08  0.466E-03    9.11       4.2  T
   3    -50.7676913 -0.302654E-08  0.635E-04    9.11      30.9  T
   4    -50.7676913 -0.130319E-08  0.253E-04    9.11      77.6  T
speedup  1.05
cpu  time for SCC    0.00 s
wall time for SCC    0.00 s
speedup  1.02
cpu  time for grad    0.01 s
wall time for grad    0.01 s
 E :    -50.47375951  G :  0.000261    pred/act E change: -0.165D-06 -0.209D-06
Maxdispl :   0.0059   ||displ|| :   0.0115   Lambda : -0.311D-06
Largest |displ|/coords:  0.0059 (   4)  0.0052 (   3)  0.0041 (  37)
................................................................................
.............................. CYCLE  207 ......................................
................................................................................
   1    -50.7677008 -0.507677E+02  0.843E-03    9.11       0.0  T
   2    -50.7677008 -0.148518E-07  0.628E-03    9.11       3.1  T
   3    -50.7677008 -0.405790E-08  0.921E-04    9.11      21.3  T
   4    -50.7677008 -0.303621E-08  0.311E-04    9.11      63.0  T
speedup  1.05
cpu  time for SCC    0.00 s
wall time for SCC    0.00 s
speedup  1.03
cpu  time for grad    0.01 s
wall time for grad    0.01 s
 E :    -50.47375974  G :  0.000187    pred/act E change: -0.137D-06 -0.226D-06
Maxdispl :   0.0051   ||displ|| :   0.0108   Lambda : -0.247D-06
Largest |displ|/coords:  0.0051 (   3)  0.0044 (   4)  0.0043 (   9)
................................................................................
.............................. CYCLE  208 ......................................
................................................................................
   1    -50.7677124 -0.507677E+02  0.743E-03    9.11       0.0  T
   2    -50.7677125 -0.110198E-07  0.553E-03    9.11       3.5  T
   3    -50.7677125 -0.237667E-08  0.808E-04    9.11      24.3  T
   4    -50.7677125 -0.233968E-08  0.233E-04    9.11      84.3  T
speedup  0.81
cpu  time for SCC    0.00 s
wall time for SCC    0.00 s
speedup  0.87
cpu  time for grad    0.01 s
wall time for grad    0.01 s
 E :    -50.47375993  G :  0.000203    pred/act E change: -0.155D-06 -0.193D-06
Maxdispl :   0.0062   ||displ|| :   0.0135   Lambda : -0.298D-06
Largest |displ|/coords:  0.0062 (   9)  0.0047 (   3)  0.0046 (   4)
................................................................................
.............................. CYCLE  209 ......................................
................................................................................
   1    -50.7677132 -0.507677E+02  0.973E-03    9.11       0.0  T
   2    -50.7677133 -0.164377E-07  0.724E-03    9.11       2.7  T
   3    -50.7677133 -0.343433E-08  0.101E-03    9.11      19.5  T
   4    -50.7677133 -0.358202E-08  0.256E-04    9.11      76.6  T
   5    -50.7677133 -0.609930E-10  0.436E-05    9.11     449.9  T
speedup  1.09
cpu  time for SCC    0.00 s
wall time for SCC    0.00 s
speedup  1.04
cpu  time for grad    0.01 s
wall time for grad    0.01 s
 E :    -50.47376015  G :  0.000266    pred/act E change: -0.123D-06 -0.218D-06
Maxdispl :   0.0063   ||displ|| :   0.0120   Lambda : -0.236D-06
Largest |displ|/coords:  0.0063 (   9)  0.0039 (  11)  0.0037 (  37)
................................................................................
.............................. CYCLE  210 ......................................
................................................................................
   1    -50.7677102 -0.507677E+02  0.839E-03    9.11       0.0  T
   2    -50.7677103 -0.960280E-08  0.626E-03    9.11       3.1  T
   3    -50.7677103 -0.286634E-08  0.748E-04    9.11      26.2  T
   4    -50.7677103 -0.205117E-08  0.177E-04    9.11     110.9  T
speedup  1.05
cpu  time for SCC    0.00 s
wall time for SCC    0.00 s
speedup  1.03
cpu  time for grad    0.01 s
wall time for grad    0.01 s
 E :    -50.47376032  G :  0.000254    pred/act E change: -0.149D-06 -0.168D-06
Maxdispl :   0.0046   ||displ|| :   0.0088   Lambda : -0.172D-06
Largest |displ|/coords:  0.0046 (   9)  0.0028 (  11)  0.0028 (  37)
................................................................................
.............................. CYCLE  211 ......................................
................................................................................
   1    -50.7676982 -0.507677E+02  0.625E-03    9.11       0.0  T
   2    -50.7676982 -0.425306E-08  0.467E-03    9.11       4.2  T
   3    -50.7676982 -0.223081E-08  0.472E-04    9.11      41.6  T
   4    -50.7676982 -0.803787E-09  0.142E-04    9.11     138.0  T
speedup  1.08
cpu  time for SCC    0.00 s
wall time for SCC    0.00 s
speedup  1.04
cpu  time for grad    0.01 s
wall time for grad    0.01 s
 E :    -50.47376044  G :  0.000172    pred/act E change: -0.118D-06 -0.126D-06
Maxdispl :   0.0034   ||displ|| :   0.0068   Lambda : -0.109D-06
Largest |displ|/coords:  0.0034 (   9)  0.0030 (   3)  0.0023 (  11)
................................................................................
.............................. CYCLE  212 ......................................
................................................................................
   1    -50.7676928 -0.507677E+02  0.466E-03    9.11       0.0  T
   2    -50.7676928 -0.250999E-08  0.350E-03    9.11       5.6  T
   3    -50.7676928 -0.188543E-08  0.320E-04    9.11      61.3  T
   4    -50.7676928 -0.389015E-09  0.136E-04    9.11     144.1  T
speedup  1.00
cpu  time for SCC    0.00 s
wall time for SCC    0.00 s
speedup  1.01
cpu  time for grad    0.01 s
wall time for grad    0.01 s
 E :    -50.47376052  G :  0.000104    pred/act E change: -0.859D-07 -0.749D-07
Maxdispl :   0.0027   ||displ|| :   0.0040   Lambda : -0.467D-07
Largest |displ|/coords:  0.0027 (   3)  0.0015 (   9)  0.0011 (  11)

   *** GEOMETRY OPTIMIZATION CONVERGED AFTER 212 ITERATIONS ***

------------------------------------------------------------------------
 total energy gain (kcal):     -0.0690
------------------------------------------------------------------------
================
 final structure:
================
$coord
       -2.75947765717123       -0.99572939305735       -1.86308672606303      S 
       -0.76402777910773        0.24604461986280       -3.28551303864292      O 
       -5.23094200578615        0.05349971482073       -2.26418845975140      O 
       -2.06856008534318       -1.30562097915818        0.78477486847394      O 
       -2.87558136607837       -3.82912216266276       -2.92444045571103      O 
       -4.09094149960165       -3.67269831458609       -4.23945776223609      H 
       -0.16923721755689       -0.81037527820482        3.41359833597597      H 
       -0.06322493969651        4.66217522068149       -0.92698945579550      O 
       -0.31757546271673        3.30716882751462       -2.15319556725652      H 
        1.28315684292572       -0.71441628829348        4.54530028934034      O 
        2.01351946529066       -2.37748569764888        4.49063586179848      H 
        1.45367355453625       -4.82284156534748        0.38757105714671      O 
        0.03157017234899       -3.64441685896687        0.52948747909678      H 
        0.85879368017712       -6.15474244439440       -0.68681746764308      H 
        3.93918823356887       -1.14938094284090       -2.16893021037274      O 
        3.49613765711218       -2.69555160980795       -1.26096211177232      H 
        2.34429897959207       -0.62045726677689       -2.94772395171945      H 
       -4.42257698459105        3.46873324471694        1.36362846602788      O 
       -4.14619424009508        2.32363047429850        2.74347625847150      H 
       -1.63338234488246        4.67447779997833        0.05605413100142      H 
       -5.04949802816900        2.41926501688233       -0.01603785618374      H 
        3.68639100889605        2.36059231938157        1.32197077668601      N 
        4.10905825873307        0.99942037388569       -0.11125954616336      H 
        2.22057390184843        3.52404346115862        0.54222725487542      H 
        2.93411660581563        1.35901104342132        2.85627132042008      H 
        5.22074124997952        3.39477670398124        1.81360652887406      H 
$end
 
 Bond Distances (Angstroems)
 ---------------------------
S1-O2=1.4538         S1-O3=1.4366         S1-O4=1.4574         S1-O5=1.6023         O2-S1=1.4538         O3-S1=1.4366         
O4-S1=1.4574         O5-S1=1.6023         O5-H6=0.9512         H6-O5=0.9512         H7-O10=0.9757        O8-H9=0.9764         
O8-H20=0.9803        H9-O8=0.9764         O10-H7=0.9757        O10-H11=0.9616       H11-O10=0.9616       O12-H13=0.9802       
O12-H14=0.9587       H13-O12=0.9802       H14-O12=0.9587       O15-H16=0.9774       O15-H17=0.9800       H16-O15=0.9774       
H17-O15=0.9800       O18-H19=0.9601       O18-H21=0.9755       H19-O18=0.9601       H20-O8=0.9803        H21-O18=0.9755       
N22-H23=1.0696       N22-H24=1.0728       N22-H25=1.0481       N22-H26=1.0131       H23-N22=1.0696       H24-N22=1.0728       
H25-N22=1.0481       H26-N22=1.0131       
 N  H  Rav=1.0509 sigma=0.0238  Rmin=1.0131  Rmax=1.0728     4
 O  H  Rav=0.9706 sigma=0.0101  Rmin=0.9512  Rmax=0.9803    11
 S  O  Rav=1.4875 sigma=0.0667  Rmin=1.4366  Rmax=1.6023     4
 
 selected bond angles (degree)
 --------------------
O3-S1-O2=114.21                O4-S1-O2=111.50                O4-S1-O3=114.45                O5-S1-O2=105.62                
O5-S1-O3=105.96                O5-S1-O4=103.97                H6-O5-S1=101.59                H20-O8-H9=103.93               
H11-O10-H7=104.51              
 
 selected dihedral angles (degree)
 ---------------------------------
H6-O5-S1-O2=268.85            H6-O5-S1-O3= 30.38            H6-O5-S1-O4=151.36            
 
 CMA Distance (Angstroems)
 ---------------------------
R(CMA):  2.5402

========================================================================
 FINAL SINGLEPOINT CALCULATION ON OPTIMIZED GEOMETRY
========================================================================

 Ncao       : 65
 Nao        : 64
 Nshell     : 38
 Nel        : 80
 T(el)      :   300.0
 intcut     :    25.0
 scfconv/Eh :  0.100E-05
   qconv/e  :  0.100E-03
 intneglect :  0.100E-07
 broydamp   :      0.250
 iter      E             dE          RMSdq      gap      omega  full diag
   1    -50.7676928 -0.507677E+02  0.388E-05    9.11       0.0  T
   2    -50.7676928 -0.112976E-11  0.258E-05    9.11     760.0  T
   3    -50.7676928 -0.717648E-12  0.544E-06    9.11    3606.0  T
speedup  1.03
cpu  time for SCC    0.00 s
wall time for SCC    0.00 s

   *** convergence criteria satisfied after 3 iterations ***

          eigenvalues
 #    :          28         29         30         31         32         33         34         35
 occ. :        2.000      2.000      2.000      2.000      2.000      2.000      2.000      2.000
 eps  :       -13.730    -13.446    -12.758    -12.529    -12.475    -12.358    -12.287    -12.223
 #    :          36         37         38         39         40         41         42         43
 occ. :        2.000      2.000      2.000      2.000      2.000      0.000      0.000      0.000
 eps  :       -12.127    -12.107    -11.971    -11.908    -11.822     -2.714     -0.932     -0.581
 #    :          44         45         46         47         48         49         50         51
 occ. :        0.000      0.000      0.000      0.000      0.000      0.000      0.000      0.000
 eps  :         0.773      1.106      1.835      2.211      2.633      3.990      4.083      4.491


   #   Z            q   n(s)   n(p)   n(d)      C6AA      α(0)
   1  16 S      1.719  1.584  1.756  0.941    88.328    15.818
   2   8 O     -0.756  1.774  4.981  0.000    30.276     7.377
   3   8 O     -0.737  1.776  4.961  0.000    29.729     7.310
   4   8 O     -0.762  1.765  4.996  0.000    30.445     7.398
   5   8 O     -0.615  1.751  4.864  0.000    25.510     6.818
   6   1 H      0.343  0.657  0.000  0.000     0.596     1.208
   7   1 H      0.333  0.667  0.000  0.000     0.630     1.247
   8   8 O     -0.617  1.747  4.869  0.000    25.589     6.827
   9   1 H      0.317  0.683  0.000  0.000     0.673     1.289
  10   8 O     -0.598  1.743  4.855  0.000    25.136     6.767
  11   1 H      0.305  0.695  0.000  0.000     0.705     1.319
  12   8 O     -0.623  1.742  4.880  0.000    25.735     6.847
  13   1 H      0.318  0.682  0.000  0.000     0.668     1.284
  14   1 H      0.290  0.710  0.000  0.000     0.750     1.360
  15   8 O     -0.618  1.755  4.864  0.000    25.628     6.833
  16   1 H      0.320  0.680  0.000  0.000     0.664     1.280
  17   1 H      0.323  0.677  0.000  0.000     0.655     1.271
  18   8 O     -0.608  1.739  4.869  0.000    25.388     6.800
  19   1 H      0.294  0.706  0.000  0.000     0.738     1.349
  20   1 H      0.326  0.674  0.000  0.000     0.647     1.263
  21   1 H      0.314  0.686  0.000  0.000     0.679     1.295
  22   7 N     -0.356  1.281  4.076  0.000    29.162     8.020
  23   1 H      0.291  0.709  0.000  0.000     0.741     1.349
  24   1 H      0.294  0.706  0.000  0.000     0.731     1.340
  25   1 H      0.278  0.722  0.000  0.000     0.784     1.387
  26   1 H      0.221  0.779  0.000  0.000     1.005     1.571

 Mol. C6AA /au·bohr⁶  :       5454.149889
 Mol. C8AA /au·bohr⁸  :     117919.903406
 Mol. α(0) /au        :        106.627801

 
 Wiberg/Mayer (AO) data. WBOs > 0.1 written file <wbo>
 largest (>0.05) Wiberg bond orders for each atom
           total WBO             WBO to atom ...
     1  S   4.816    O    3 1.357    O    2 1.283    O    4 1.278    O    5 0.860
     2  O   1.715    S    1 1.283    O    4 0.110    O    3 0.110    O    5 0.072    H   17 0.051
     3  O   1.730    S    1 1.357    O    2 0.110    O    4 0.106    O    5 0.077
     4  O   1.708    S    1 1.278    O    2 0.110    O    3 0.106    H   13 0.062    O    5 0.061
     5  O   1.944    H    6 0.866    S    1 0.860    O    3 0.077    O    2 0.072    O    4 0.061
     6  H   0.882    O    5 0.866
     7  H   0.889    O   10 0.844
     8  O   1.937    H    9 0.849    H   20 0.833    H   24 0.135    N   22 0.064
     9  H   0.900    O    8 0.849
    10  O   1.910    H   11 0.901    H    7 0.844    H   25 0.089
    11  H   0.907    O   10 0.901
    12  O   1.853    H   14 0.911    H   13 0.831
    13  H   0.899    O   12 0.831    O    4 0.062
    14  H   0.916    O   12 0.911
    15  O   1.933    H   16 0.846    H   17 0.841    H   23 0.129    N   22 0.063
    16  H   0.897    O   15 0.846
    17  H   0.895    O   15 0.841    O    2 0.051
    18  O   1.870    H   19 0.907    H   21 0.848    H   20 0.056
    19  H   0.913    O   18 0.907
    20  H   0.893    O    8 0.833    O   18 0.056
    21  H   0.901    O   18 0.848
    22  N   3.516    H   26 0.948    H   25 0.830    H   23 0.782    H   24 0.775    O    8 0.064    O   15 0.063
    23  H   0.915    N   22 0.782    O   15 0.129
    24  H   0.914    N   22 0.775    O    8 0.135
    25  H   0.923    N   22 0.830    O   10 0.089
    26  H   0.951    N   22 0.948
 MOs/occ written to file <molden.input>
 
molecular dipole:
                 x           y           z       tot (Debye)
 q only:        2.004      -0.071       0.925
   full:        1.120      -0.967       0.454       3.935
molecular quadrupole (traceless):
                xx          xy          yy          xz          yz          zz
 q only:       -0.587      12.109       1.141       5.759       6.219      -0.554
  q+dip:       -0.434      15.163      -0.107       8.119       7.331       0.541
   full:       -0.666      15.074       0.310       8.626       7.772       0.356

SCC energy    :     -50.7676928
rep           :       0.2935636
ES            :       0.2600645
AES           :      -0.0794703
AXC           :      -0.0081818
disp          :      -0.0203248
XB            :       0.0000000
fix           :       0.0000000
total E       :     -50.4737605
atomizationE  :       5.0040647     3140.10
(atE without considering molecular charge,
 total energy contains solvation terms)
H-L gap (eV)  :          9.1080
optimized geometry written to: xtbopt.xyz


------------------------------------------------------------------------
 * finished run on 2019/09/16 at 12:53:08.160     
------------------------------------------------------------------------
 total:
 * wall-time:     0 d,  0 h,  0 min,  5.274 sec
 *  cpu-time:     0 d,  0 h,  0 min,  4.580 sec
 * ratio c/w:     0.869 speedup
 SCF:
 * wall-time:     0 d,  0 h,  0 min,  0.136 sec
 *  cpu-time:     0 d,  0 h,  0 min,  0.131 sec
 * ratio c/w:     0.963 speedup
 ANC optimizer:
 * wall-time:     0 d,  0 h,  0 min,  5.111 sec
 *  cpu-time:     0 d,  0 h,  0 min,  4.428 sec
 * ratio c/w:     0.866 speedup

