      -----------------------------------------------------------      
     |                   =====================                   |     
     |                           x T B                           |     
     |                   =====================                   |     
     |                         S. Grimme                         |     
     |          Mulliken Center for Theoretical Chemistry        |     
     |                    University of Bonn                     |     
     |                 Version 6.0.1 (SAW181210)                 |     
      -----------------------------------------------------------      

   This program is distributed in the hope that it will be useful,
   but WITHOUT ANY WARRANTY; without even the implied warranty of
   MERCHANTABILITY or FITNESS FOR A PARTICULAR PURPOSE.
   
   FOR NON-COMMERCIAL, ACADEMIA USE ONLY.
   
   Cite this work as:
   S. Grimme, C. Bannwarth, P. Shushkov, J. Comput. Theory Chem., 2017,
   13, 1989-2009.
   C. Bannwarth, S. Ehlert and S. Grimme., ChemRxiv, 2018, preprint.
   http://doi.org/10.26434/chemrxiv.7246238.v1
   
   for sTDA-xTB:
   S. Grimme and C. Bannwarth, J. Chem. Phys., 2016, 145, 054103.
   
   in the mass-spec context:
   V. Asgeirsson, C. Bauer and S. Grimme, Chem. Sci., 2017, 8, 4879.
   
   if GBSA is used:
   P. Shushkov, F. März and S. Grimme, unpublished.
   
   for ANC optimizer:
   S. Grimme, unpublished.
   Rational Function algorithm used in ANCopt:
   F. Eckert, P. Pulay, H.-J. Werner, J. Comput. Chem., 1997, 18, 1473.
   
   with help from (in alphabetical order)
   C. Bannwarth, F. Bohle, G. Brandenburg, E. Caldeweyher, M. Checinski,
   S. Dohm, S. Ehlert, S. Ehrlich, F. März, H. Neugebauer, J. Pisarek,
   P. Pracht, P. Shushkov, and S. Spicher.
   
 * started run on 2019/09/16 at 13:03:01.516     
========================================================================
 # omp threads = 1
========================================================================
number of atoms            : 26
number of electrons        : 80
charge                     : 0
spin                       : .0
first test random number   : .3007

########################################################################
# WARNING! Please study the warnings concerning your input carefully
#  - XTBPATH is not set, using XTBHOME instead
#  - the use of '-opt' is discouraged, please use '--opt' next time
#  - the use of '-chrg' is discouraged, please use '--chrg' next time
#  - the use of '-uhf' is discouraged, please use '--uhf' next time
########################################################################

           ------------------------------------------------- 
          |                 G F N 2 - x T B                 |
          | Geometry, Frequencies, Noncovalent interactions |
          |            JCTC 2018 parametrisation            |
           ------------------------------------------------- 
      method parameters     
 k(s)        :  1.8500
 k(p)        :  2.2300
 k(d)        :  2.2300
 k(f)        :  2.0000
 kEN (H0ij)  : -2.0000
 D4 a1       :  0.5200
 D4 a2       :  5.0000
 D4 s6       :  1.0000
 D4 s8       :  2.7000
 D4 s9       :  5.0000
 alphaj      :  2.0000


            Z     q(EN)     CN     RAES       Cart. coordinates
     1  S   6.0    0.61    4.53    4.60     2.22453     2.09168    -4.44982
     2  O   6.0   -0.30    1.18    1.80     3.16771     2.25969    -1.80212
     3  O   6.0   -0.30    1.16    1.80    -0.45195     2.96037    -4.54963
     4  O   6.0   -0.27    2.12    1.84     2.37649    -0.54078    -5.32135
     5  O   6.0   -0.25    2.08    1.84     3.78214     3.70163    -6.09129
     6  H   1.0    0.14    1.22    1.47     4.56014     2.68387    -7.37580
     7  H   1.0    0.18    1.38    1.53     1.35923    -1.59319    -4.24958
     8  O   6.0   -0.39    1.64    1.81    -0.31091    -2.84316    -2.29151
     9  H   1.0    0.18    0.95    1.42    -1.17462    -4.28294    -3.10687
    10  O   6.0   -0.42    1.71    1.81    -0.88396     0.40043     4.02376
    11  H   1.0    0.17    0.95    1.42    -1.06745     1.42524     5.57290
    12  O   6.0   -0.28    1.98    1.82    -1.90873    -3.95011     5.57868
    13  H   1.0    0.14    0.97    1.43    -2.86471    -3.90775     7.12752
    14  H   1.0    0.17    1.11    1.45    -1.67875    -2.20676     5.10703
    15  O   6.0   -0.26    1.97    1.82     0.75225     4.45270     2.16198
    16  H   1.0    0.17    1.11    1.45     0.22706     2.96234     3.06620
    17  H   1.0    0.18    1.03    1.43     1.91468     3.86068     0.89199
    18  O   6.0   -0.22    2.93    2.62     1.45704    -2.86928     1.89458
    19  H   1.0    0.16    1.17    1.46     0.85956    -1.31871     2.74817
    20  H   1.0    0.13    0.98    1.43     0.94516    -4.41474     2.81085
    21  H   1.0    0.16    1.20    1.47     0.94514    -2.92008     0.09822
    22  N   5.0   -0.14    3.98    2.81    -2.84601     0.80977    -0.36879
    23  H   1.0    0.12    1.12    1.45    -2.08752    -0.75989    -1.23209
    24  H   1.0    0.11    1.02    1.43    -2.27959     2.40987    -1.31921
    25  H   1.0    0.09    0.99    1.43    -4.78755     0.69132    -0.39801
    26  H   1.0    0.12    1.13    1.45    -2.22939     0.89779     1.47417

  Z AO/shell   Hii/eV     exponent
  1     Wed Apr 25 08:07:45 CEST 2018   EN: 2.200 GM2: 0.406  GM3: 0.0800  RAES: 1.40
     1s    -10.707211    1.230000
  7     Wed Apr 25 08:07:45 CEST 2018   EN: 3.040 GM2: 0.461  GM3:-0.0640  RAES: 1.90
     2s    -16.686243    2.339881
     2p    -12.523956    2.014332
  8     Wed Apr 25 08:07:45 CEST 2018   EN: 3.440 GM2: 0.452  GM3:-0.0517  RAES: 1.80
     2s    -20.229985    2.439742
     2p    -15.503117    2.137023
 16     Tue Apr 24 11:44:34 CEST 2018   EN: 2.580 GM2: 0.340  GM3:-0.0502  RAES: 3.10
     3s    -20.029654    1.981333
     3p    -11.377694    2.025643
     3d     -0.420282    1.702555
 no old-style atom pair restraining (fixing) potential

molecular fragmentation (1/2 indicates fragments):
11111112222222222222222222
# atoms in fragment 1/2:     7    19
 fragment masses (1/2) :       98.07      107.11
CMA distance (Bohr)    :   7.478
constraining FC (au)   :  0.0500
           ------------------------------------------------- 
          |        Self-Consistent Charge Iterations        |
           ------------------------------------------------- 

 Ncao       : 65
 Nao        : 64
 Nshell     : 38
 Nel        : 80
 T(el)      :   300.0
 intcut     :    25.0
 scfconv/Eh :  0.100E-05
   qconv/e  :  0.100E-03
 intneglect :  0.100E-07
 broydamp   :      0.250
 iter      E             dE          RMSdq      gap      omega  full diag
   1    -50.5198801 -0.505199E+02  0.712E+00   10.55       0.0  T
   2    -50.5813411 -0.614610E-01  0.515E+00    9.54       1.0  T
   3    -50.6252736 -0.439324E-01  0.147E+00    6.92       1.0  T
   4    -50.6317044 -0.643083E-02  0.627E-01    7.19       1.0  T
   5    -50.6323174 -0.612996E-03  0.381E-01    7.10       1.0  T
   6    -50.6330465 -0.729125E-03  0.164E-01    7.19       1.0  T
   7    -50.6332281 -0.181570E-03  0.532E-02    7.21       1.0  T
   8    -50.6332404 -0.123397E-04  0.347E-02    7.21       1.0  T
   9    -50.6332482 -0.779589E-05  0.105E-02    7.22       1.9  T
  10    -50.6332489 -0.717487E-06  0.223E-03    7.22       8.8  T
  11    -50.6332490 -0.161558E-07  0.122E-03    7.22      16.0  T
  12    -50.6332490 -0.558293E-08  0.348E-04    7.22      56.4  T
  13    -50.6332490 -0.615579E-09  0.135E-04    7.22     144.8  T
speedup  1.03
cpu  time for SCC    0.01 s
wall time for SCC    0.01 s

   *** convergence criteria satisfied after 13 iterations ***

          eigenvalues
 #    :          28         29         30         31         32         33         34         35
 occ. :        2.000      2.000      2.000      2.000      2.000      2.000      2.000      2.000
 eps  :       -12.858    -12.636    -12.427    -12.194    -11.889    -11.737    -11.350    -11.307
 #    :          36         37         38         39         40         41         42         43
 occ. :        2.000      2.000      2.000      2.000      2.000      0.000      0.000      0.000
 eps  :       -10.794    -10.706    -10.290     -9.869     -9.727     -2.506     -1.474     -0.853
 #    :          44         45         46         47         48         49         50         51
 occ. :        0.000      0.000      0.000      0.000      0.000      0.000      0.000      0.000
 eps  :        -0.184      0.556      0.901      2.196      3.373      3.965      4.651      4.773


   #   Z            q   n(s)   n(p)   n(d)      C6AA      α(0)
   1  16 S      1.681  1.575  1.793  0.951    89.193    15.895
   2   8 O     -0.703  1.773  4.930  0.000    28.789     7.194
   3   8 O     -0.713  1.770  4.942  0.000    29.051     7.226
   4   8 O     -0.601  1.721  4.880  0.000    25.189     6.775
   5   8 O     -0.531  1.718  4.814  0.000    23.566     6.554
   6   1 H      0.375  0.625  0.000  0.000     0.524     1.133
   7   1 H      0.411  0.589  0.000  0.000     0.457     1.057
   8   8 O     -0.863  1.835  5.029  0.000    33.540     7.766
   9   1 H      0.218  0.782  0.000  0.000     1.030     1.595
  10   8 O     -0.863  1.827  5.036  0.000    33.556     7.767
  11   1 H      0.225  0.775  0.000  0.000     0.999     1.570
  12   8 O     -0.659  1.753  4.906  0.000    26.639     6.966
  13   1 H      0.257  0.743  0.000  0.000     0.864     1.460
  14   1 H      0.325  0.675  0.000  0.000     0.648     1.264
  15   8 O     -0.684  1.764  4.920  0.000    27.279     7.049
  16   1 H      0.308  0.692  0.000  0.000     0.697     1.311
  17   1 H      0.289  0.711  0.000  0.000     0.754     1.364
  18   8 O     -0.453  1.664  4.789  0.000    21.848     6.313
  19   1 H      0.421  0.579  0.000  0.000     0.445     1.045
  20   1 H      0.379  0.621  0.000  0.000     0.526     1.139
  21   1 H      0.403  0.597  0.000  0.000     0.473     1.077
  22   7 N     -0.327  1.268  4.059  0.000    28.394     7.914
  23   1 H      0.295  0.705  0.000  0.000     0.729     1.337
  24   1 H      0.273  0.727  0.000  0.000     0.801     1.402
  25   1 H      0.221  0.779  0.000  0.000     1.004     1.569
  26   1 H      0.315  0.685  0.000  0.000     0.671     1.283

 Mol. C6AA /au·bohr⁶  :       5506.117206
 Mol. C8AA /au·bohr⁸  :     119157.900410
 Mol. α(0) /au        :        107.025185

 
 Wiberg/Mayer (AO) data. WBOs > 0.1 written file <wbo>
 largest (>0.05) Wiberg bond orders for each atom
           total WBO             WBO to atom ...
     1  S   4.840    O    2 1.358    O    3 1.354    O    4 1.068    O    5 1.022
     2  O   1.714    S    1 1.358    O    3 0.139    O    4 0.092    O    5 0.074
     3  O   1.703    S    1 1.354    O    2 0.139    O    4 0.093    O    5 0.073
     4  O   2.004    S    1 1.068    H    7 0.647    O    3 0.093    O    2 0.092
     5  O   2.061    S    1 1.022    H    6 0.834    O    2 0.074    O    3 0.073
     6  H   0.859    O    5 0.834
     7  H   0.831    O    4 0.647    O    8 0.165
     8  O   1.603    H    9 0.941    H   21 0.181    H    7 0.165    H   23 0.131    N   22 0.061    O   18 0.057
     9  H   0.952    O    8 0.941
    10  O   1.596    H   11 0.922    H   19 0.151    H   26 0.127    H   14 0.107    H   16 0.086    N   22 0.056
    11  H   0.949    O   10 0.922
    12  O   1.779    H   13 0.929    H   14 0.780
    13  H   0.934    O   12 0.929
    14  H   0.894    O   12 0.780    O   10 0.107
    15  O   1.770    H   17 0.883    H   16 0.807
    16  H   0.905    O   15 0.807    O   10 0.086
    17  H   0.916    O   15 0.883
    18  O   2.281    H   20 0.838    H   19 0.662    H   21 0.651    O    8 0.057
    19  H   0.823    O   18 0.662    O   10 0.151
    20  H   0.856    O   18 0.838
    21  H   0.838    O   18 0.651    O    8 0.181
    22  N   3.530    H   25 0.946    H   24 0.895    H   23 0.778    H   26 0.764    O    8 0.061    O   10 0.056
    23  H   0.913    N   22 0.778    O    8 0.131
    24  H   0.926    N   22 0.895
    25  H   0.951    N   22 0.946
    26  H   0.901    N   22 0.764    O   10 0.127
 MOs/occ written to file <molden.input>
 
molecular dipole:
                 x           y           z       tot (Debye)
 q only:       -0.340      -1.611      -1.251
   full:       -0.372      -1.871      -1.544       6.239
molecular quadrupole (traceless):
                xx          xy          yy          xz          yz          zz
 q only:        9.212      -3.984     -16.252     -11.060      -4.569       7.041
  q+dip:        8.081      -2.307     -23.265     -16.570      -3.820      15.184
   full:        7.298      -1.899     -22.611     -17.466      -3.876      15.313

SCC energy    :     -50.6332490
rep           :       0.2951589
ES            :       0.3206475
AES           :      -0.0629180
AXC           :      -0.0074384
disp          :      -0.0188676
XB            :       0.0000000
fix           :       0.0000000
total E       :     -50.3378706
atomizationE  :       4.8681747     3054.83
(atE without considering molecular charge,
 total energy contains solvation terms)
H-L gap (eV)  :          7.2209
           ------------------------------------------------- 
          |                 ===============                 |
          |                   A N C O P T                   |
          |                 ===============                 |
          |          Approximate Normal Coordinate          |
          |           Rational Function Optimizer           |
           ------------------------------------------------- 
dumping coords to <xtbopt.coord> and <xtbopt.log>
 optlevel               2
 Maxcycle             520
 Maxmicro              25
 Econv         1.000000000000000E-007
 Gconv         2.000000000000000E-004
 Maxdispl       1.00000000000000     
 Hlow          5.000000000000000E-003
 S6             20.0000000000000     
 Nvar               72

generating ANC from model Hessian ...
 Shifting diagonal of input Hessian by   5.406797777592975E-003
 Lowest  eigenvalues of input Hessian
    0.005000   -0.000000   -0.000000   -0.000000   -0.000000   -0.000000
    0.000000    0.005596    0.005737    0.006306    0.006669    0.006788
    0.007475    0.007992    0.008257    0.008981    0.009350    0.009774
 Highest eigenvalues
    1.563811    1.569599    1.597059    3.210295    3.410410    3.462423
 
cpu  time for ANC gen    0.02 s
wall time for ANC gen    0.02 s
................................................................................
.............................. CYCLE    1 ......................................
................................................................................
   1    -50.6332490 -0.506332E+02  0.529E-05    7.22       0.0  T
   2    -50.6332490 -0.586908E-11  0.380E-05    7.22     516.0  T
   3    -50.6332490 -0.463274E-11  0.173E-05    7.22    1131.7  T
speedup  1.03
cpu  time for SCC    0.00 s
wall time for SCC    0.00 s
speedup  0.98
cpu  time for grad    0.01 s
wall time for grad    0.01 s
 E :    -50.33787055  G :  0.258581    pred/act E change:  0.000D+00  0.169D-07
Maxdispl :   0.1251   ||displ|| :   0.2864   Lambda : -0.395D-01
Largest |displ|/coords:  0.1251 (  26)  0.0948 (  22)  0.0817 (  43)
................................................................................
.............................. CYCLE    2 ......................................
................................................................................
   1    -50.6459270 -0.506459E+02  0.288E-01    7.36       0.0  T
   2    -50.6462762 -0.349233E-03  0.222E-01    7.43       1.0  T
   3    -50.6464110 -0.134743E-03  0.119E-01    7.51       1.0  T
   4    -50.6464210 -0.100204E-04  0.305E-02    7.53       1.0  T
   5    -50.6464220 -0.106420E-05  0.609E-03    7.53       3.2  T
   6    -50.6464221 -0.659637E-07  0.330E-03    7.53       6.0  T
   7    -50.6464221 -0.191845E-07  0.103E-03    7.53      19.0  T
speedup  0.94
cpu  time for SCC    0.01 s
wall time for SCC    0.01 s
speedup  0.99
cpu  time for grad    0.01 s
wall time for grad    0.01 s
 E :    -50.36831220  G :  0.157801    pred/act E change:  0.000D+00 -0.304D-01
Maxdispl :   0.1073   ||displ|| :   0.2903   Lambda : -0.173D-01
Largest |displ|/coords:  0.1073 (  10)  0.1018 (  26)  0.0996 (  22)
................................................................................
.............................. CYCLE    3 ......................................
................................................................................
   1    -50.6534778 -0.506535E+02  0.255E-01    7.53       0.0  T
   2    -50.6537740 -0.296211E-03  0.195E-01    7.59       1.0  T
   3    -50.6538748 -0.100775E-03  0.110E-01    7.67       1.0  T
   4    -50.6538800 -0.521139E-05  0.259E-02    7.69       1.0  T
   5    -50.6538808 -0.867048E-06  0.461E-03    7.69       4.3  T
   6    -50.6538809 -0.346110E-07  0.248E-03    7.69       7.9  T
speedup  1.11
cpu  time for SCC    0.01 s
wall time for SCC    0.01 s
speedup  1.06
cpu  time for grad    0.01 s
wall time for grad    0.01 s
 E :    -50.38218949  G :  0.094533    pred/act E change: -0.214D-01 -0.139D-01
Maxdispl :   0.1410   ||displ|| :   0.3205   Lambda : -0.913D-02
Largest |displ|/coords:  0.1410 (  10)  0.0862 (  20)  0.0844 (   6)
................................................................................
.............................. CYCLE    4 ......................................
................................................................................
   1    -50.6567851 -0.506568E+02  0.242E-01    7.62       0.0  T
   2    -50.6570029 -0.217789E-03  0.183E-01    7.66       1.0  T
   3    -50.6570758 -0.729116E-04  0.927E-02    7.73       1.0  T
   4    -50.6570808 -0.495014E-05  0.226E-02    7.75       1.0  T
   5    -50.6570816 -0.818414E-06  0.426E-03    7.75       4.6  T
   6    -50.6570816 -0.280573E-07  0.220E-03    7.75       8.9  T
speedup  0.93
cpu  time for SCC    0.00 s
wall time for SCC    0.01 s
speedup  0.99
cpu  time for grad    0.01 s
wall time for grad    0.01 s
 E :    -50.38958989  G :  0.052802    pred/act E change: -0.940D-02 -0.740D-02
Maxdispl :   0.1649   ||displ|| :   0.3483   Lambda : -0.504D-02
Largest |displ|/coords:  0.1649 (  10)  0.1128 (   3)  0.1015 (  15)
................................................................................
.............................. CYCLE    5 ......................................
................................................................................
   1    -50.6571830 -0.506572E+02  0.244E-01    7.64       0.0  T
   2    -50.6573210 -0.137975E-03  0.183E-01    7.68       1.0  T
   3    -50.6573679 -0.469344E-04  0.700E-02    7.74       1.0  T
   4    -50.6573764 -0.842032E-05  0.193E-02    7.75       1.0  T
   5    -50.6573772 -0.862846E-06  0.400E-03    7.74       4.9  T
   6    -50.6573772 -0.227281E-07  0.209E-03    7.74       9.4  T
speedup  0.93
cpu  time for SCC    0.01 s
wall time for SCC    0.01 s
speedup  0.99
cpu  time for grad    0.01 s
wall time for grad    0.01 s
 E :    -50.39383535  G :  0.034907    pred/act E change: -0.503D-02 -0.425D-02
Maxdispl :   0.2024   ||displ|| :   0.5700   Lambda : -0.701D-02
Largest |displ|/coords:  0.2024 (  10)  0.1828 (  20)  0.1553 (  15)
................................................................................
.............................. CYCLE    6 ......................................
................................................................................
   1    -50.6588379 -0.506588E+02  0.432E-01    7.47       0.0  T
   2    -50.6593691 -0.531199E-03  0.321E-01    7.54       1.0  T
   3    -50.6595636 -0.194573E-03  0.126E-01    7.67       1.0  T
   4    -50.6595939 -0.302953E-04  0.380E-02    7.68       1.0  T
   5    -50.6595971 -0.313260E-05  0.864E-03    7.68       2.3  T
   6    -50.6595972 -0.112178E-06  0.446E-03    7.68       4.4  T
   7    -50.6595972 -0.343605E-07  0.145E-03    7.68      13.5  T
speedup  1.11
cpu  time for SCC    0.01 s
wall time for SCC    0.01 s
speedup  1.04
cpu  time for grad    0.01 s
wall time for grad    0.01 s
 E :    -50.39818375  G :  0.042149    pred/act E change: -0.282D-02 -0.435D-02
Maxdispl :   0.2652   ||displ|| :   0.6404   Lambda : -0.614D-02
Largest |displ|/coords:  0.2652 (  10)  0.2112 (   5)  0.2055 (   8)
................................................................................
.............................. CYCLE    7 ......................................
................................................................................
   1    -50.6507701 -0.506508E+02  0.662E-01    7.45       0.0  T
   2    -50.6514193 -0.649161E-03  0.493E-01    7.52       1.0  T
   3    -50.6516518 -0.232488E-03  0.136E-01    7.66       1.0  T
   4    -50.6517292 -0.774234E-04  0.406E-02    7.66       1.0  T
   5    -50.6517335 -0.426233E-05  0.944E-03    7.65       2.1  T
   6    -50.6517336 -0.970535E-07  0.518E-03    7.65       3.8  T
   7    -50.6517336 -0.395929E-07  0.149E-03    7.65      13.2  T
speedup  1.11
cpu  time for SCC    0.01 s
wall time for SCC    0.01 s
speedup  1.00
cpu  time for grad    0.01 s
wall time for grad    0.01 s
 E :    -50.39927855  G :  0.072619    pred/act E change: -0.464D-02 -0.109D-02
Maxdispl :   0.2218   ||displ|| :   0.4327   Lambda : -0.110D-01
Largest |displ|/coords:  0.2218 (   8)  0.1810 (   5)  0.1674 (   9)
................................................................................
.............................. CYCLE    8 ......................................
................................................................................
   1    -50.6669963 -0.506670E+02  0.666E-01    7.80       0.0  T
   2    -50.6672297 -0.233415E-03  0.505E-01    7.79       1.0  T
   3    -50.6673585 -0.128774E-03  0.841E-02    7.77       1.0  T
   4    -50.6673978 -0.393736E-04  0.252E-02    7.77       1.0  T
   5    -50.6673994 -0.153100E-05  0.781E-03    7.77       2.5  T
   6    -50.6673994 -0.355680E-07  0.412E-03    7.77       4.8  T
   7    -50.6673994 -0.163505E-07  0.999E-04    7.78      19.6  T
speedup  0.95
cpu  time for SCC    0.01 s
wall time for SCC    0.01 s
speedup  0.99
cpu  time for grad    0.01 s
wall time for grad    0.01 s
 E :    -50.40217940  G :  0.053655    pred/act E change: -0.433D-02 -0.290D-02
Maxdispl :   0.1448   ||displ|| :   0.3977   Lambda : -0.413D-02
Largest |displ|/coords:  0.1448 (  20)  0.1436 (   2)  0.1120 (  10)
................................................................................
.............................. CYCLE    9 ......................................
................................................................................
   1    -50.6644647 -0.506645E+02  0.313E-01    7.75       0.0  T
   2    -50.6647663 -0.301567E-03  0.226E-01    7.78       1.0  T
   3    -50.6648957 -0.129425E-03  0.857E-02    7.85       1.0  T
   4    -50.6649138 -0.181459E-04  0.254E-02    7.86       1.0  T
   5    -50.6649155 -0.163011E-05  0.672E-03    7.86       2.9  T
   6    -50.6649155 -0.736051E-07  0.397E-03    7.86       4.9  T
   7    -50.6649156 -0.184035E-07  0.108E-03    7.86      18.2  T
speedup  0.95
cpu  time for SCC    0.01 s
wall time for SCC    0.01 s
speedup  0.99
cpu  time for grad    0.01 s
wall time for grad    0.01 s
 E :    -50.40501155  G :  0.062571    pred/act E change: -0.654D-02 -0.283D-02
Maxdispl :   0.1178   ||displ|| :   0.2645   Lambda : -0.443D-02
Largest |displ|/coords:  0.1178 (   6)  0.1077 (   3)  0.0758 (  28)
................................................................................
.............................. CYCLE   10 ......................................
................................................................................
   1    -50.6732858 -0.506733E+02  0.195E-01    7.89       0.0  T
   2    -50.6733219 -0.360403E-04  0.146E-01    7.91       1.0  T
   3    -50.6733483 -0.264088E-04  0.340E-02    7.96       1.0  T
   4    -50.6733521 -0.381914E-05  0.123E-02    7.96       1.6  T
   5    -50.6733524 -0.250608E-06  0.375E-03    7.96       5.2  T
   6    -50.6733524 -0.178735E-07  0.194E-03    7.96      10.1  T
speedup  0.89
cpu  time for SCC    0.00 s
wall time for SCC    0.01 s
speedup  0.98
cpu  time for grad    0.01 s
wall time for grad    0.01 s
 E :    -50.40748875  G :  0.057729    pred/act E change: -0.239D-02 -0.248D-02
Maxdispl :   0.0893   ||displ|| :   0.2967   Lambda : -0.542D-02
Largest |displ|/coords:  0.0893 (  20)  0.0858 (  13)  0.0843 (  26)
................................................................................
.............................. CYCLE   11 ......................................
................................................................................
   1    -50.6729548 -0.506730E+02  0.254E-01    8.07       0.0  T
   2    -50.6731136 -0.158769E-03  0.185E-01    8.09       1.0  T
   3    -50.6732004 -0.867866E-04  0.643E-02    8.14       1.0  T
   4    -50.6732137 -0.133370E-04  0.172E-02    8.15       1.1  T
   5    -50.6732144 -0.677253E-06  0.607E-03    8.14       3.2  T
   6    -50.6732145 -0.673678E-07  0.348E-03    8.14       5.6  T
   7    -50.6732145 -0.105989E-07  0.819E-04    8.14      23.9  T
speedup  1.13
cpu  time for SCC    0.01 s
wall time for SCC    0.01 s
speedup  1.00
cpu  time for grad    0.01 s
wall time for grad    0.01 s
 E :    -50.41136916  G :  0.060966    pred/act E change: -0.237D-02 -0.388D-02
Maxdispl :   0.1029   ||displ|| :   0.2933   Lambda : -0.515D-02
Largest |displ|/coords:  0.1029 (   6)  0.0953 (   2)  0.0950 (  26)
................................................................................
.............................. CYCLE   12 ......................................
................................................................................
   1    -50.6843979 -0.506844E+02  0.176E-01    8.19       0.0  T
   2    -50.6844722 -0.743009E-04  0.133E-01    8.22       1.0  T
   3    -50.6845128 -0.406191E-04  0.482E-02    8.28       1.0  T
   4    -50.6845196 -0.682832E-05  0.185E-02    8.29       1.1  T
   5    -50.6845203 -0.704579E-06  0.500E-03    8.29       3.9  T
   6    -50.6845204 -0.336745E-07  0.236E-03    8.28       8.3  T
speedup  0.89
cpu  time for SCC    0.01 s
wall time for SCC    0.01 s
speedup  0.96
cpu  time for grad    0.01 s
wall time for grad    0.01 s
 E :    -50.41616013  G :  0.055695    pred/act E change: -0.295D-02 -0.479D-02
Maxdispl :   0.1078   ||displ|| :   0.2994   Lambda : -0.622D-02
Largest |displ|/coords:  0.1078 (  28)  0.0886 (   2)  0.0864 (  26)
................................................................................
.............................. CYCLE   13 ......................................
................................................................................
   1    -50.6977384 -0.506977E+02  0.199E-01    8.41       0.0  T
   2    -50.6978259 -0.874725E-04  0.149E-01    8.44       1.0  T
   3    -50.6978838 -0.578757E-04  0.515E-02    8.50       1.0  T
   4    -50.6978922 -0.843706E-05  0.196E-02    8.51       1.0  T
   5    -50.6978929 -0.728277E-06  0.575E-03    8.51       3.4  T
   6    -50.6978930 -0.442848E-07  0.285E-03    8.51       6.9  T
speedup  0.93
cpu  time for SCC    0.00 s
wall time for SCC    0.01 s
speedup  0.99
cpu  time for grad    0.01 s
wall time for grad    0.01 s
 E :    -50.42178043  G :  0.048286    pred/act E change: -0.280D-02 -0.562D-02
Maxdispl :   0.2193   ||displ|| :   0.5875   Lambda : -0.152D-01
Largest |displ|/coords:  0.2193 (  29)  0.1969 (  69)  0.1726 (  28)
................................................................................
.............................. CYCLE   14 ......................................
................................................................................
   1    -50.7310580 -0.507311E+02  0.416E-01    9.07       0.0  T
   2    -50.7313406 -0.282667E-03  0.316E-01    9.07       1.0  T
   3    -50.7315376 -0.196979E-03  0.109E-01    9.09       1.0  T
   4    -50.7315683 -0.306410E-04  0.387E-02    9.10       1.0  T
   5    -50.7315705 -0.220666E-05  0.927E-03    9.10       2.1  T
   6    -50.7315706 -0.124787E-06  0.515E-03    9.10       3.8  T
   7    -50.7315706 -0.413654E-07  0.201E-03    9.10       9.8  T
speedup  1.09
cpu  time for SCC    0.01 s
wall time for SCC    0.01 s
speedup  1.06
cpu  time for grad    0.01 s
wall time for grad    0.01 s
 E :    -50.42520638  G :  0.106325    pred/act E change: -0.339D-02 -0.343D-02
Maxdispl :   0.0916   ||displ|| :   0.2564   Lambda : -0.166D-01
Largest |displ|/coords:  0.0916 (  69)  0.0812 (  55)  0.0793 (  10)
................................................................................
.............................. CYCLE   15 ......................................
................................................................................
   1    -50.7189607 -0.507190E+02  0.299E-01    8.71       0.0  T
   2    -50.7191755 -0.214845E-03  0.233E-01    8.73       1.0  T
   3    -50.7192770 -0.101461E-03  0.100E-01    8.78       1.0  T
   4    -50.7192943 -0.172611E-04  0.340E-02    8.78       1.0  T
   5    -50.7192957 -0.138959E-05  0.773E-03    8.77       2.5  T
   6    -50.7192957 -0.852780E-07  0.387E-03    8.77       5.1  T
   7    -50.7192958 -0.142214E-07  0.168E-03    8.77      11.7  T
speedup  1.09
cpu  time for SCC    0.01 s
wall time for SCC    0.01 s
speedup  1.06
cpu  time for grad    0.01 s
wall time for grad    0.01 s
 E :    -50.42839314  G :  0.053861    pred/act E change: -0.103D-01 -0.319D-02
Maxdispl :   0.1175   ||displ|| :   0.3064   Lambda : -0.808D-02
Largest |displ|/coords:  0.1175 (  29)  0.1149 (  30)  0.0835 (   4)
................................................................................
.............................. CYCLE   16 ......................................
................................................................................
   1    -50.7161867 -0.507162E+02  0.254E-01    9.00       0.0  T
   2    -50.7163381 -0.151408E-03  0.195E-01    8.98       1.0  T
   3    -50.7164032 -0.650147E-04  0.818E-02    8.94       1.0  T
   4    -50.7164135 -0.103917E-04  0.254E-02    8.94       1.0  T
   5    -50.7164144 -0.838735E-06  0.558E-03    8.94       3.5  T
   6    -50.7164144 -0.520108E-07  0.300E-03    8.94       6.5  T
speedup  0.93
cpu  time for SCC    0.01 s
wall time for SCC    0.01 s
speedup  1.00
cpu  time for grad    0.01 s
wall time for grad    0.01 s
 E :    -50.43081120  G :  0.042265    pred/act E change: -0.884D-02 -0.242D-02
Maxdispl :   0.1199   ||displ|| :   0.2764   Lambda : -0.358D-02
Largest |displ|/coords:  0.1199 (   2)  0.0933 (  26)  0.0685 (   6)
................................................................................
.............................. CYCLE   17 ......................................
................................................................................
   1    -50.7336342 -0.507336E+02  0.169E-01    9.02       0.0  T
   2    -50.7336655 -0.312626E-04  0.129E-01    9.03       1.0  T
   3    -50.7336930 -0.274522E-04  0.331E-02    9.04       1.0  T
   4    -50.7336962 -0.320163E-05  0.148E-02    9.04       1.3  T
   5    -50.7336964 -0.282127E-06  0.376E-03    9.04       5.2  T
   6    -50.7336965 -0.175944E-07  0.201E-03    9.04       9.8  T
speedup  0.91
cpu  time for SCC    0.00 s
wall time for SCC    0.01 s
speedup  0.99
cpu  time for grad    0.01 s
wall time for grad    0.01 s
 E :    -50.43248034  G :  0.030892    pred/act E change: -0.442D-02 -0.167D-02
Maxdispl :   0.0900   ||displ|| :   0.1875   Lambda : -0.192D-02
Largest |displ|/coords:  0.0900 (   2)  0.0559 (  13)  0.0525 (  29)
................................................................................
.............................. CYCLE   18 ......................................
................................................................................
   1    -50.7276108 -0.507276E+02  0.131E-01    8.95       0.0  T
   2    -50.7276258 -0.150522E-04  0.994E-02    8.96       1.0  T
   3    -50.7276352 -0.936459E-05  0.252E-02    8.99       1.0  T
   4    -50.7276368 -0.164914E-05  0.928E-03    8.99       2.1  T
   5    -50.7276370 -0.146308E-06  0.218E-03    8.98       9.0  T
   6    -50.7276370 -0.684472E-08  0.123E-03    8.98      16.0  T
speedup  1.09
cpu  time for SCC    0.01 s
wall time for SCC    0.01 s
speedup  0.99
cpu  time for grad    0.01 s
wall time for grad    0.01 s
 E :    -50.43339197  G :  0.027042    pred/act E change: -0.193D-02 -0.912D-03
Maxdispl :   0.0921   ||displ|| :   0.2077   Lambda : -0.167D-02
Largest |displ|/coords:  0.0921 (   6)  0.0707 (  29)  0.0698 (   2)
................................................................................
.............................. CYCLE   19 ......................................
................................................................................
   1    -50.7283065 -0.507283E+02  0.125E-01    9.02       0.0  T
   2    -50.7283238 -0.173006E-04  0.931E-02    9.00       1.0  T
   3    -50.7283351 -0.112846E-04  0.234E-02    8.97       1.0  T
   4    -50.7283369 -0.181150E-05  0.697E-03    8.99       2.8  T
   5    -50.7283370 -0.787853E-07  0.259E-03    8.99       7.6  T
   6    -50.7283370 -0.666196E-08  0.137E-03    8.99      14.3  T
speedup  1.09
cpu  time for SCC    0.01 s
wall time for SCC    0.01 s
speedup  0.98
cpu  time for grad    0.01 s
wall time for grad    0.01 s
 E :    -50.43419687  G :  0.020000    pred/act E change: -0.992D-03 -0.805D-03
Maxdispl :   0.1321   ||displ|| :   0.3692   Lambda : -0.207D-02
Largest |displ|/coords:  0.1321 (   2)  0.1306 (  13)  0.1186 (  25)
................................................................................
.............................. CYCLE   20 ......................................
................................................................................
   1    -50.7263034 -0.507263E+02  0.261E-01    9.02       0.0  T
   2    -50.7263457 -0.423539E-04  0.196E-01    9.05       1.0  T
   3    -50.7263747 -0.290089E-04  0.382E-02    9.12       1.0  T
   4    -50.7263805 -0.573411E-05  0.116E-02    9.10       1.7  T
   5    -50.7263807 -0.284452E-06  0.453E-03    9.09       4.3  T
   6    -50.7263808 -0.237867E-07  0.248E-03    9.09       7.9  T
   7    -50.7263808 -0.114353E-07  0.626E-04    9.10      31.3  T
speedup  0.97
cpu  time for SCC    0.01 s
wall time for SCC    0.01 s
speedup  0.94
cpu  time for grad    0.01 s
wall time for grad    0.01 s
 E :    -50.43463772  G :  0.037172    pred/act E change: -0.873D-03 -0.441D-03
Maxdispl :   0.0847   ||displ|| :   0.2228   Lambda : -0.207D-02
Largest |displ|/coords:  0.0847 (   7)  0.0781 (  13)  0.0741 (  29)
................................................................................
.............................. CYCLE   21 ......................................
................................................................................
   1    -50.7319668 -0.507320E+02  0.136E-01    9.16       0.0  T
   2    -50.7319907 -0.239218E-04  0.102E-01    9.14       1.0  T
   3    -50.7320042 -0.134867E-04  0.333E-02    9.10       1.0  T
   4    -50.7320066 -0.236959E-05  0.105E-02    9.11       1.9  T
   5    -50.7320068 -0.240394E-06  0.301E-03    9.11       6.5  T
   6    -50.7320068 -0.911827E-08  0.154E-03    9.11      12.7  T
speedup  0.93
cpu  time for SCC    0.01 s
wall time for SCC    0.01 s
speedup  1.00
cpu  time for grad    0.01 s
wall time for grad    0.01 s
 E :    -50.43554969  G :  0.019612    pred/act E change: -0.118D-02 -0.912D-03
Maxdispl :   0.0912   ||displ|| :   0.2018   Lambda : -0.975D-03
Largest |displ|/coords:  0.0912 (   2)  0.0706 (  18)  0.0673 (  15)
................................................................................
.............................. CYCLE   22 ......................................
................................................................................
   1    -50.7319216 -0.507319E+02  0.140E-01    9.06       0.0  T
   2    -50.7319445 -0.228998E-04  0.105E-01    9.06       1.0  T
   3    -50.7319572 -0.126935E-04  0.283E-02    9.07       1.0  T
   4    -50.7319599 -0.273510E-05  0.118E-02    9.07       1.7  T
   5    -50.7319601 -0.192834E-06  0.294E-03    9.07       6.7  T
   6    -50.7319601 -0.112477E-07  0.153E-03    9.07      12.8  T
speedup  1.07
cpu  time for SCC    0.01 s
wall time for SCC    0.01 s
speedup  1.06
cpu  time for grad    0.01 s
wall time for grad    0.01 s
 E :    -50.43557180  G :  0.024070    pred/act E change: -0.109D-02 -0.221D-04
Maxdispl :   0.0739   ||displ|| :   0.2186   Lambda : -0.135D-02
Largest |displ|/coords:  0.0739 (  15)  0.0643 (   1)  0.0622 (   3)
................................................................................
.............................. CYCLE   23 ......................................
................................................................................
   1    -50.7326217 -0.507326E+02  0.147E-01    9.12       0.0  T
   2    -50.7326312 -0.955392E-05  0.111E-01    9.13       1.0  T
   3    -50.7326402 -0.896136E-05  0.169E-02    9.16       1.2  T
   4    -50.7326412 -0.104582E-05  0.520E-03    9.15       3.8  T
   5    -50.7326413 -0.383558E-07  0.221E-03    9.15       8.9  T
speedup  1.09
cpu  time for SCC    0.00 s
wall time for SCC    0.00 s
speedup  0.99
cpu  time for grad    0.01 s
wall time for grad    0.01 s
 E :    -50.43628046  G :  0.014204    pred/act E change: -0.507D-03 -0.709D-03
Maxdispl :   0.0953   ||displ|| :   0.2210   Lambda : -0.690D-03
Largest |displ|/coords:  0.0953 (  13)  0.0797 (  10)  0.0737 (   2)
................................................................................
.............................. CYCLE   24 ......................................
................................................................................
   1    -50.7316767 -0.507317E+02  0.135E-01    9.17       0.0  T
   2    -50.7316834 -0.668509E-05  0.101E-01    9.17       1.0  T
   3    -50.7316871 -0.369728E-05  0.144E-02    9.18       1.4  T
   4    -50.7316883 -0.116735E-05  0.384E-03    9.18       5.1  T
   5    -50.7316883 -0.319197E-07  0.171E-03    9.18      11.5  T
   6    -50.7316883 -0.382533E-08  0.849E-04    9.18      23.1  T
speedup  0.91
cpu  time for SCC    0.00 s
wall time for SCC    0.01 s
speedup  0.98
cpu  time for grad    0.01 s
wall time for grad    0.01 s
 E :    -50.43666595  G :  0.016922    pred/act E change: -0.708D-03 -0.385D-03
Maxdispl :   0.1105   ||displ|| :   0.2847   Lambda : -0.683D-03
Largest |displ|/coords:  0.1105 (   2)  0.0882 (  10)  0.0875 (   3)
................................................................................
.............................. CYCLE   25 ......................................
................................................................................
   1    -50.7339447 -0.507339E+02  0.154E-01    9.18       0.0  T
   2    -50.7339494 -0.470638E-05  0.115E-01    9.18       1.0  T
   3    -50.7339534 -0.396578E-05  0.148E-02    9.19       1.3  T
   4    -50.7339539 -0.495237E-06  0.450E-03    9.19       4.4  T
   5    -50.7339539 -0.313199E-07  0.159E-03    9.19      12.4  T
   6    -50.7339539 -0.262205E-08  0.857E-04    9.19      22.9  T
speedup  0.89
cpu  time for SCC    0.00 s
wall time for SCC    0.01 s
speedup  0.98
cpu  time for grad    0.01 s
wall time for grad    0.01 s
 E :    -50.43720619  G :  0.016094    pred/act E change: -0.362D-03 -0.540D-03
Maxdispl :   0.2399   ||displ|| :   0.6062   Lambda : -0.127D-02
Largest |displ|/coords:  0.2399 (   2)  0.2164 (  10)  0.1959 (   6)

generating ANC from model Hessian ...
 Shifting diagonal of input Hessian by   5.140026263412019E-003
 Lowest  eigenvalues of input Hessian
    0.005000   -0.000000   -0.000000   -0.000000   -0.000000    0.000000
    0.000000    0.005207    0.005269    0.005605    0.005825    0.006381
    0.007082    0.007619    0.007886    0.008340    0.008547    0.009351
 Highest eigenvalues
    1.400026    1.423464    1.428278    2.549776    3.445345    3.568982
 
cpu  time for ANC gen    0.02 s
wall time for ANC gen    0.02 s
................................................................................
.............................. CYCLE   26 ......................................
................................................................................
   1    -50.7300291 -0.507300E+02  0.325E-01    9.12       0.0  T
   2    -50.7300505 -0.214128E-04  0.243E-01    9.13       1.0  T
   3    -50.7300685 -0.180584E-04  0.270E-02    9.14       1.0  T
   4    -50.7300709 -0.235337E-05  0.815E-03    9.14       2.4  T
   5    -50.7300710 -0.114600E-06  0.352E-03    9.14       5.6  T
   6    -50.7300710 -0.226355E-07  0.150E-03    9.14      13.0  T
   7    -50.7300710 -0.442520E-08  0.445E-04    9.14      44.1  T
   8    -50.7300710 -0.441204E-09  0.142E-04    9.14     137.7  T
speedup  0.99
cpu  time for SCC    0.01 s
wall time for SCC    0.01 s
speedup  1.04
cpu  time for grad    0.02 s
wall time for grad    0.02 s
 E :    -50.43817939  G :  0.019457    pred/act E change:  0.000D+00 -0.973D-03
Maxdispl :   0.1594   ||displ|| :   0.3937   Lambda : -0.278D-02
Largest |displ|/coords:  0.1594 (  14)  0.1278 (   9)  0.1248 (   6)
................................................................................
.............................. CYCLE   27 ......................................
................................................................................
   1    -50.7315687 -0.507316E+02  0.442E-01    9.19       0.0  T
   2    -50.7315915 -0.227860E-04  0.335E-01    9.19       1.0  T
   3    -50.7316145 -0.229761E-04  0.225E-02    9.19       1.0  T
   4    -50.7316166 -0.211190E-05  0.788E-03    9.20       2.5  T
   5    -50.7316167 -0.782356E-07  0.335E-03    9.19       5.9  T
   6    -50.7316167 -0.674733E-08  0.166E-03    9.19      11.8  T
   7    -50.7316167 -0.642801E-08  0.288E-04    9.19      68.1  T
speedup  0.97
cpu  time for SCC    0.01 s
wall time for SCC    0.01 s
speedup  1.00
cpu  time for grad    0.01 s
wall time for grad    0.01 s
 E :    -50.43980290  G :  0.030416    pred/act E change:  0.000D+00 -0.162D-02
Maxdispl :   0.1344   ||displ|| :   0.3724   Lambda : -0.231D-02
Largest |displ|/coords:  0.1344 (  18)  0.1319 (   9)  0.1281 (  15)
................................................................................
.............................. CYCLE   28 ......................................
................................................................................
   1    -50.7361786 -0.507362E+02  0.235E-01    9.24       0.0  T
   2    -50.7361925 -0.138998E-04  0.177E-01    9.24       1.0  T
   3    -50.7362012 -0.869074E-05  0.224E-02    9.23       1.0  T
   4    -50.7362032 -0.202783E-05  0.802E-03    9.24       2.4  T
   5    -50.7362033 -0.122490E-06  0.230E-03    9.24       8.5  T
   6    -50.7362033 -0.333347E-08  0.127E-03    9.24      15.4  T
speedup  0.93
cpu  time for SCC    0.00 s
wall time for SCC    0.01 s
speedup  1.01
cpu  time for grad    0.01 s
wall time for grad    0.01 s
 E :    -50.44119457  G :  0.013758    pred/act E change: -0.161D-02 -0.139D-02
Maxdispl :   0.1736   ||displ|| :   0.4348   Lambda : -0.176D-02
Largest |displ|/coords:  0.1736 (   1)  0.1675 (  15)  0.1447 (   2)
................................................................................
.............................. CYCLE   29 ......................................
................................................................................
   1    -50.7365557 -0.507366E+02  0.280E-01    9.26       0.0  T
   2    -50.7365794 -0.237308E-04  0.212E-01    9.26       1.0  T
   3    -50.7365921 -0.126391E-04  0.255E-02    9.26       1.0  T
   4    -50.7365965 -0.439599E-05  0.807E-03    9.26       2.4  T
   5    -50.7365966 -0.122037E-06  0.282E-03    9.26       7.0  T
   6    -50.7365966 -0.520449E-08  0.145E-03    9.26      13.5  T
speedup  0.93
cpu  time for SCC    0.00 s
wall time for SCC    0.01 s
speedup  1.00
cpu  time for grad    0.01 s
wall time for grad    0.01 s
 E :    -50.44247781  G :  0.014947    pred/act E change: -0.132D-02 -0.128D-02
Maxdispl :   0.2226   ||displ|| :   0.5094   Lambda : -0.156D-02
Largest |displ|/coords:  0.2226 (   1)  0.2208 (   2)  0.1681 (  15)
................................................................................
.............................. CYCLE   30 ......................................
................................................................................
   1    -50.7363637 -0.507364E+02  0.246E-01    9.26       0.0  T
   2    -50.7363951 -0.314243E-04  0.184E-01    9.26       1.0  T
   3    -50.7364063 -0.111247E-04  0.313E-02    9.26       1.0  T
   4    -50.7364120 -0.573874E-05  0.811E-03    9.26       2.4  T
   5    -50.7364122 -0.165153E-06  0.276E-03    9.26       7.1  T
   6    -50.7364122 -0.727808E-08  0.137E-03    9.26      14.3  T
speedup  0.93
cpu  time for SCC    0.00 s
wall time for SCC    0.01 s
speedup  0.99
cpu  time for grad    0.01 s
wall time for grad    0.01 s
 E :    -50.44323407  G :  0.013603    pred/act E change: -0.105D-02 -0.756D-03
Maxdispl :   0.1679   ||displ|| :   0.2636   Lambda : -0.881D-03
Largest |displ|/coords:  0.1679 (   1)  0.1099 (   2)  0.0729 (   3)
................................................................................
.............................. CYCLE   31 ......................................
................................................................................
   1    -50.7397436 -0.507397E+02  0.112E-01    9.27       0.0  T
   2    -50.7397494 -0.575753E-05  0.845E-02    9.27       1.0  T
   3    -50.7397532 -0.383605E-05  0.139E-02    9.26       1.4  T
   4    -50.7397541 -0.873909E-06  0.349E-03    9.26       5.6  T
   5    -50.7397541 -0.252127E-07  0.149E-03    9.26      13.2  T
   6    -50.7397541 -0.230408E-08  0.734E-04    9.26      26.7  T
speedup  0.94
cpu  time for SCC    0.01 s
wall time for SCC    0.01 s
speedup  0.93
cpu  time for grad    0.01 s
wall time for grad    0.01 s
 E :    -50.44376996  G :  0.008015    pred/act E change: -0.982D-03 -0.536D-03
Maxdispl :   0.2686   ||displ|| :   0.4232   Lambda : -0.773D-03
Largest |displ|/coords:  0.2686 (   1)  0.1853 (   2)  0.1599 (   3)
................................................................................
.............................. CYCLE   32 ......................................
................................................................................
   1    -50.7355429 -0.507355E+02  0.163E-01    9.23       0.0  T
   2    -50.7355532 -0.102270E-04  0.123E-01    9.23       1.0  T
   3    -50.7355593 -0.610802E-05  0.172E-02    9.22       1.1  T
   4    -50.7355612 -0.188622E-05  0.506E-03    9.22       3.9  T
   5    -50.7355612 -0.354758E-07  0.198E-03    9.22       9.9  T
   6    -50.7355612 -0.399920E-08  0.778E-04    9.22      25.2  T
speedup  0.94
cpu  time for SCC    0.00 s
wall time for SCC    0.01 s
speedup  1.02
cpu  time for grad    0.01 s
wall time for grad    0.01 s
 E :    -50.44400331  G :  0.017012    pred/act E change: -0.471D-03 -0.233D-03
Maxdispl :   0.2403   ||displ|| :   0.3923   Lambda : -0.113D-02
Largest |displ|/coords:  0.2403 (   1)  0.1710 (   2)  0.1409 (   3)
................................................................................
.............................. CYCLE   33 ......................................
................................................................................
   1    -50.7400295 -0.507400E+02  0.158E-01    9.21       0.0  T
   2    -50.7400510 -0.215282E-04  0.117E-01    9.21       1.0  T
   3    -50.7400622 -0.112490E-04  0.257E-02    9.20       1.0  T
   4    -50.7400652 -0.299352E-05  0.691E-03    9.20       2.8  T
   5    -50.7400653 -0.107773E-06  0.259E-03    9.20       7.6  T
   6    -50.7400653 -0.589427E-08  0.140E-03    9.20      14.0  T
speedup  0.93
cpu  time for SCC    0.00 s
wall time for SCC    0.01 s
speedup  1.01
cpu  time for grad    0.01 s
wall time for grad    0.01 s
 E :    -50.44415580  G :  0.022188    pred/act E change: -0.456D-03 -0.152D-03
Maxdispl :   0.1141   ||displ|| :   0.2201   Lambda : -0.985D-03
Largest |displ|/coords:  0.1141 (   1)  0.0920 (   2)  0.0596 (  21)
................................................................................
.............................. CYCLE   34 ......................................
................................................................................
   1    -50.7413599 -0.507414E+02  0.202E-01    9.22       0.0  T
   2    -50.7413785 -0.185799E-04  0.154E-01    9.22       1.0  T
   3    -50.7413892 -0.106780E-04  0.230E-02    9.22       1.0  T
   4    -50.7413926 -0.336630E-05  0.568E-03    9.22       3.5  T
   5    -50.7413926 -0.812473E-07  0.220E-03    9.22       8.9  T
speedup  1.11
cpu  time for SCC    0.01 s
wall time for SCC    0.00 s
speedup  0.99
cpu  time for grad    0.01 s
wall time for grad    0.01 s
 E :    -50.44465080  G :  0.010864    pred/act E change: -0.649D-03 -0.495D-03
Maxdispl :   0.2111   ||displ|| :   0.3305   Lambda : -0.561D-03
Largest |displ|/coords:  0.2111 (   1)  0.1451 (   3)  0.1352 (   2)
................................................................................
.............................. CYCLE   35 ......................................
................................................................................
   1    -50.7400838 -0.507401E+02  0.143E-01    9.22       0.0  T
   2    -50.7400912 -0.740585E-05  0.108E-01    9.22       1.0  T
   3    -50.7400957 -0.452975E-05  0.156E-02    9.22       1.3  T
   4    -50.7400970 -0.126317E-05  0.478E-03    9.22       4.1  T
   5    -50.7400970 -0.376768E-07  0.167E-03    9.22      11.8  T
   6    -50.7400970 -0.322884E-08  0.929E-04    9.22      21.1  T
speedup  0.93
cpu  time for SCC    0.00 s
wall time for SCC    0.01 s
speedup  1.01
cpu  time for grad    0.01 s
wall time for grad    0.01 s
 E :    -50.44493831  G :  0.008534    pred/act E change: -0.516D-03 -0.288D-03
Maxdispl :   0.3046   ||displ|| :   0.4309   Lambda : -0.466D-03
Largest |displ|/coords:  0.3046 (   1)  0.1982 (   2)  0.1613 (   3)
................................................................................
.............................. CYCLE   36 ......................................
................................................................................
   1    -50.7384565 -0.507385E+02  0.157E-01    9.21       0.0  T
   2    -50.7384609 -0.437551E-05  0.119E-01    9.21       1.0  T
   3    -50.7384655 -0.460140E-05  0.111E-02    9.20       1.8  T
   4    -50.7384658 -0.368790E-06  0.443E-03    9.20       4.4  T
   5    -50.7384659 -0.180290E-07  0.129E-03    9.20      15.2  T
   6    -50.7384659 -0.157129E-08  0.754E-04    9.20      26.0  T
speedup  1.11
cpu  time for SCC    0.01 s
wall time for SCC    0.01 s
speedup  1.01
cpu  time for grad    0.01 s
wall time for grad    0.01 s
 E :    -50.44529167  G :  0.010655    pred/act E change: -0.311D-03 -0.353D-03
Maxdispl :   0.3482   ||displ|| :   0.5343   Lambda : -0.670D-03
Largest |displ|/coords:  0.3482 (   1)  0.2265 (   2)  0.2066 (   3)
................................................................................
.............................. CYCLE   37 ......................................
................................................................................
   1    -50.7411955 -0.507412E+02  0.200E-01    9.21       0.0  T
   2    -50.7412038 -0.832732E-05  0.151E-01    9.21       1.0  T
   3    -50.7412105 -0.674306E-05  0.158E-02    9.21       1.2  T
   4    -50.7412116 -0.106789E-05  0.443E-03    9.21       4.4  T
   5    -50.7412116 -0.240436E-07  0.179E-03    9.21      11.0  T
   6    -50.7412116 -0.202425E-08  0.868E-04    9.21      22.6  T
speedup  0.93
cpu  time for SCC    0.00 s
wall time for SCC    0.01 s
speedup  1.01
cpu  time for grad    0.01 s
wall time for grad    0.01 s
 E :    -50.44573452  G :  0.010780    pred/act E change: -0.276D-03 -0.443D-03
Maxdispl :   0.3578   ||displ|| :   0.5679   Lambda : -0.559D-03
Largest |displ|/coords:  0.3578 (   1)  0.2645 (   2)  0.2110 (   3)
................................................................................
.............................. CYCLE   38 ......................................
................................................................................
   1    -50.7383188 -0.507383E+02  0.230E-01    9.16       0.0  T
   2    -50.7383275 -0.872773E-05  0.174E-01    9.17       1.0  T
   3    -50.7383354 -0.787652E-05  0.162E-02    9.17       1.2  T
   4    -50.7383365 -0.110663E-05  0.542E-03    9.17       3.6  T
   5    -50.7383365 -0.312522E-07  0.213E-03    9.17       9.2  T
   6    -50.7383366 -0.688595E-08  0.991E-04    9.17      19.8  T
speedup  1.09
cpu  time for SCC    0.01 s
wall time for SCC    0.01 s
speedup  1.06
cpu  time for grad    0.01 s
wall time for grad    0.01 s
 E :    -50.44615313  G :  0.013558    pred/act E change: -0.431D-03 -0.419D-03
Maxdispl :   0.2162   ||displ|| :   0.4898   Lambda : -0.798D-03
Largest |displ|/coords:  0.2162 (   5)  0.2080 (   1)  0.1770 (   2)
................................................................................
.............................. CYCLE   39 ......................................
................................................................................
   1    -50.7397822 -0.507398E+02  0.255E-01    9.17       0.0  T
   2    -50.7398031 -0.208908E-04  0.192E-01    9.17       1.0  T
   3    -50.7398137 -0.105403E-04  0.254E-02    9.18       1.0  T
   4    -50.7398178 -0.412303E-05  0.695E-03    9.18       2.8  T
   5    -50.7398179 -0.835363E-07  0.294E-03    9.18       6.7  T
   6    -50.7398179 -0.655201E-08  0.129E-03    9.18      15.2  T
speedup  1.09
cpu  time for SCC    0.01 s
wall time for SCC    0.01 s
speedup  0.98
cpu  time for grad    0.01 s
wall time for grad    0.01 s
 E :    -50.44666793  G :  0.014399    pred/act E change: -0.370D-03 -0.515D-03
Maxdispl :   0.1999   ||displ|| :   0.4394   Lambda : -0.950D-03
Largest |displ|/coords:  0.1999 (   5)  0.1934 (   1)  0.1520 (  14)
................................................................................
.............................. CYCLE   40 ......................................
................................................................................
   1    -50.7412052 -0.507412E+02  0.239E-01    9.23       0.0  T
   2    -50.7412217 -0.164422E-04  0.179E-01    9.23       1.0  T
   3    -50.7412285 -0.689382E-05  0.241E-02    9.23       1.0  T
   4    -50.7412318 -0.327732E-05  0.657E-03    9.23       3.0  T
   5    -50.7412319 -0.745707E-07  0.251E-03    9.23       7.8  T
   6    -50.7412319 -0.397435E-08  0.119E-03    9.23      16.5  T
speedup  0.93
cpu  time for SCC    0.00 s
wall time for SCC    0.01 s
speedup  1.01
cpu  time for grad    0.01 s
wall time for grad    0.01 s
 E :    -50.44708854  G :  0.018415    pred/act E change: -0.495D-03 -0.421D-03
Maxdispl :   0.1892   ||displ|| :   0.3835   Lambda : -0.910D-03
Largest |displ|/coords:  0.1892 (   1)  0.1496 (   6)  0.1453 (  14)
................................................................................
.............................. CYCLE   41 ......................................
................................................................................
   1    -50.7397516 -0.507398E+02  0.223E-01    9.21       0.0  T
   2    -50.7397639 -0.122348E-04  0.168E-01    9.21       1.0  T
   3    -50.7397740 -0.101070E-04  0.208E-02    9.20       1.0  T
   4    -50.7397756 -0.160183E-05  0.668E-03    9.20       2.9  T
   5    -50.7397757 -0.801152E-07  0.284E-03    9.20       6.9  T
   6    -50.7397757 -0.456606E-08  0.133E-03    9.20      14.7  T
speedup  1.11
cpu  time for SCC    0.01 s
wall time for SCC    0.01 s
speedup  1.01
cpu  time for grad    0.01 s
wall time for grad    0.01 s
 E :    -50.44741859  G :  0.019757    pred/act E change: -0.567D-03 -0.330D-03
Maxdispl :   0.1290   ||displ|| :   0.3080   Lambda : -0.141D-02
Largest |displ|/coords:  0.1290 (  15)  0.1108 (   8)  0.1074 (  11)
................................................................................
.............................. CYCLE   42 ......................................
................................................................................
   1    -50.7510308 -0.507510E+02  0.265E-01    9.21       0.0  T
   2    -50.7510606 -0.298450E-04  0.199E-01    9.20       1.0  T
   3    -50.7510817 -0.210206E-04  0.342E-02    9.19       1.0  T
   4    -50.7510857 -0.405112E-05  0.907E-03    9.20       2.2  T
   5    -50.7510859 -0.179129E-06  0.378E-03    9.20       5.2  T
   6    -50.7510859 -0.112901E-07  0.187E-03    9.20      10.5  T
   7    -50.7510859 -0.874123E-08  0.488E-04    9.20      40.2  T
speedup  0.94
cpu  time for SCC    0.01 s
wall time for SCC    0.01 s
speedup  1.01
cpu  time for grad    0.01 s
wall time for grad    0.01 s
 E :    -50.44681130  G :  0.036493    pred/act E change: -0.522D-03  0.607D-03
Maxdispl :   0.0980   ||displ|| :   0.2478   Lambda : -0.210D-02
Largest |displ|/coords:  0.0980 (  15)  0.0896 (  11)  0.0788 (   4)
................................................................................
.............................. CYCLE   43 ......................................
................................................................................
   1    -50.7446549 -0.507447E+02  0.212E-01    9.20       0.0  T
   2    -50.7446732 -0.183342E-04  0.160E-01    9.20       1.0  T
   3    -50.7446883 -0.150712E-04  0.242E-02    9.21       1.0  T
   4    -50.7446906 -0.233385E-05  0.709E-03    9.21       2.8  T
   5    -50.7446907 -0.783373E-07  0.300E-03    9.21       6.5  T
   6    -50.7446907 -0.978748E-08  0.136E-03    9.21      14.4  T
speedup  1.09
cpu  time for SCC    0.01 s
wall time for SCC    0.01 s
speedup  1.07
cpu  time for grad    0.01 s
wall time for grad    0.01 s
 E :    -50.44765929  G :  0.022635    pred/act E change: -0.772D-03 -0.848D-03
Maxdispl :   0.1187   ||displ|| :   0.2852   Lambda : -0.156D-02
Largest |displ|/coords:  0.1187 (   6)  0.1100 (  21)  0.1060 (   1)
................................................................................
.............................. CYCLE   44 ......................................
................................................................................
   1    -50.7362814 -0.507363E+02  0.312E-01    9.22       0.0  T
   2    -50.7363320 -0.505329E-04  0.234E-01    9.22       1.0  T
   3    -50.7363607 -0.287317E-04  0.427E-02    9.23       1.0  T
   4    -50.7363681 -0.741798E-05  0.110E-02    9.23       1.8  T
   5    -50.7363684 -0.281889E-06  0.418E-03    9.23       4.7  T
   6    -50.7363684 -0.132889E-07  0.239E-03    9.23       8.2  T
speedup  0.91
cpu  time for SCC    0.00 s
wall time for SCC    0.01 s
speedup  0.99
cpu  time for grad    0.01 s
wall time for grad    0.01 s
 E :    -50.44686768  G :  0.035823    pred/act E change: -0.111D-02  0.792D-03
Maxdispl :   0.0891   ||displ|| :   0.1961   Lambda : -0.239D-02
Largest |displ|/coords:  0.0891 (   6)  0.0815 (  16)  0.0673 (  21)
................................................................................
.............................. CYCLE   45 ......................................
................................................................................
   1    -50.7440989 -0.507441E+02  0.230E-01    9.21       0.0  T
   2    -50.7441271 -0.282765E-04  0.173E-01    9.21       1.0  T
   3    -50.7441433 -0.161589E-04  0.318E-02    9.20       1.0  T
   4    -50.7441475 -0.423824E-05  0.713E-03    9.21       2.8  T
   5    -50.7441477 -0.126688E-06  0.315E-03    9.21       6.2  T
   6    -50.7441477 -0.403531E-08  0.163E-03    9.21      12.1  T
speedup  1.09
cpu  time for SCC    0.01 s
wall time for SCC    0.01 s
speedup  1.05
cpu  time for grad    0.01 s
wall time for grad    0.01 s
 E :    -50.44801565  G :  0.004627    pred/act E change: -0.843D-03 -0.115D-02
Maxdispl :   0.1311   ||displ|| :   0.2118   Lambda : -0.229D-03
Largest |displ|/coords:  0.1311 (  14)  0.0879 (   5)  0.0792 (   6)
................................................................................
.............................. CYCLE   46 ......................................
................................................................................
   1    -50.7422938 -0.507423E+02  0.153E-01    9.20       0.0  T
   2    -50.7423006 -0.676372E-05  0.115E-01    9.20       1.0  T
   3    -50.7423040 -0.344147E-05  0.148E-02    9.21       1.3  T
   4    -50.7423053 -0.127909E-05  0.451E-03    9.21       4.3  T
   5    -50.7423054 -0.403235E-07  0.166E-03    9.21      11.8  T
   6    -50.7423054 -0.172089E-08  0.832E-04    9.21      23.6  T
speedup  1.07
cpu  time for SCC    0.01 s
wall time for SCC    0.01 s
speedup  0.98
cpu  time for grad    0.01 s
wall time for grad    0.01 s
 E :    -50.44802476  G :  0.014607    pred/act E change: -0.124D-02 -0.912D-05
Maxdispl :   0.0506   ||displ|| :   0.0831   Lambda : -0.244D-03
Largest |displ|/coords:  0.0506 (   2)  0.0325 (  14)  0.0272 (  19)
................................................................................
.............................. CYCLE   47 ......................................
................................................................................
   1    -50.7434869 -0.507435E+02  0.446E-02    9.20       0.0  T
   2    -50.7434899 -0.290322E-05  0.330E-02    9.20       1.0  T
   3    -50.7434911 -0.122002E-05  0.931E-03    9.20       2.1  T
   4    -50.7434914 -0.350535E-06  0.224E-03    9.20       8.7  T
   5    -50.7434914 -0.116189E-07  0.765E-04    9.20      25.6  T
speedup  0.87
cpu  time for SCC    0.00 s
wall time for SCC    0.00 s
speedup  0.98
cpu  time for grad    0.01 s
wall time for grad    0.01 s
 E :    -50.44816945  G :  0.008082    pred/act E change: -0.120D-03 -0.145D-03
Maxdispl :   0.0789   ||displ|| :   0.1223   Lambda : -0.129D-03
Largest |displ|/coords:  0.0789 (   1)  0.0530 (   3)  0.0294 (   6)
................................................................................
.............................. CYCLE   48 ......................................
................................................................................
   1    -50.7427254 -0.507427E+02  0.654E-02    9.18       0.0  T
   2    -50.7427267 -0.132750E-05  0.492E-02    9.18       1.0  T
   3    -50.7427278 -0.102921E-05  0.715E-03    9.18       2.7  T
   4    -50.7427279 -0.160263E-06  0.258E-03    9.18       7.6  T
   5    -50.7427279 -0.102039E-07  0.682E-04    9.18      28.7  T
speedup  1.06
cpu  time for SCC    0.00 s
wall time for SCC    0.00 s
speedup  1.07
cpu  time for grad    0.01 s
wall time for grad    0.01 s
 E :    -50.44824075  G :  0.005057    pred/act E change: -0.123D-03 -0.713D-04
Maxdispl :   0.2047   ||displ|| :   0.2850   Lambda : -0.217D-03
Largest |displ|/coords:  0.2047 (   2)  0.0826 (   6)  0.0704 (  19)
................................................................................
.............................. CYCLE   49 ......................................
................................................................................
   1    -50.7442067 -0.507442E+02  0.159E-01    9.19       0.0  T
   2    -50.7442114 -0.466383E-05  0.121E-01    9.19       1.0  T
   3    -50.7442163 -0.490657E-05  0.107E-02    9.19       1.8  T
   4    -50.7442167 -0.429468E-06  0.455E-03    9.19       4.3  T
   5    -50.7442167 -0.267814E-07  0.143E-03    9.19      13.8  T
   6    -50.7442167 -0.153024E-08  0.799E-04    9.19      24.5  T
speedup  1.09
cpu  time for SCC    0.01 s
wall time for SCC    0.01 s
speedup  0.98
cpu  time for grad    0.01 s
wall time for grad    0.01 s
 E :    -50.44830042  G :  0.008069    pred/act E change: -0.655D-04 -0.597D-04
Maxdispl :   0.1448   ||displ|| :   0.2577   Lambda : -0.211D-03
Largest |displ|/coords:  0.1448 (   1)  0.1129 (   6)  0.0971 (  14)
................................................................................
.............................. CYCLE   50 ......................................
................................................................................
   1    -50.7412504 -0.507413E+02  0.143E-01    9.17       0.0  T
   2    -50.7412532 -0.274694E-05  0.108E-01    9.17       1.0  T
   3    -50.7412566 -0.338798E-05  0.931E-03    9.17       2.1  T
   4    -50.7412568 -0.170615E-06  0.364E-03    9.17       5.4  T
   5    -50.7412568 -0.140450E-07  0.135E-03    9.17      14.6  T
   6    -50.7412568 -0.156651E-08  0.617E-04    9.17      31.8  T
speedup  0.74
cpu  time for SCC    0.00 s
wall time for SCC    0.01 s
speedup  0.92
cpu  time for grad    0.01 s
wall time for grad    0.01 s
 E :    -50.44836783  G :  0.009472    pred/act E change: -0.117D-03 -0.674D-04
Maxdispl :   0.0438   ||displ|| :   0.0939   Lambda : -0.153D-03
Largest |displ|/coords:  0.0438 (   6)  0.0414 (   7)  0.0389 (   9)
................................................................................
.............................. CYCLE   51 ......................................
................................................................................
   1    -50.7433901 -0.507434E+02  0.933E-02    9.17       0.0  T
   2    -50.7433919 -0.180979E-05  0.707E-02    9.17       1.0  T
   3    -50.7433935 -0.165344E-05  0.721E-03    9.17       2.7  T
   4    -50.7433937 -0.209657E-06  0.269E-03    9.17       7.3  T
   5    -50.7433938 -0.113444E-07  0.954E-04    9.17      20.6  T
speedup  1.09
cpu  time for SCC    0.00 s
wall time for SCC    0.00 s
speedup  0.98
cpu  time for grad    0.01 s
wall time for grad    0.01 s
 E :    -50.44840694  G :  0.005582    pred/act E change: -0.113D-03 -0.391D-04
Maxdispl :   0.0646   ||displ|| :   0.0887   Lambda : -0.933D-04
Largest |displ|/coords:  0.0646 (   2)  0.0229 (  10)  0.0225 (   9)
................................................................................
.............................. CYCLE   52 ......................................
................................................................................
   1    -50.7434328 -0.507434E+02  0.502E-02    9.18       0.0  T
   2    -50.7434337 -0.895409E-06  0.379E-02    9.18       1.0  T
   3    -50.7434344 -0.696507E-06  0.533E-03    9.18       3.7  T
   4    -50.7434345 -0.123742E-06  0.197E-03    9.18      10.0  T
   5    -50.7434345 -0.754224E-08  0.663E-04    9.18      29.6  T
speedup  0.85
cpu  time for SCC    0.00 s
wall time for SCC    0.00 s
speedup  0.98
cpu  time for grad    0.01 s
wall time for grad    0.01 s
 E :    -50.44844486  G :  0.004670    pred/act E change: -0.771D-04 -0.379D-04
Maxdispl :   0.0800   ||displ|| :   0.1217   Lambda : -0.644D-04
Largest |displ|/coords:  0.0800 (   2)  0.0458 (   6)  0.0319 (   3)

generating ANC from model Hessian ...
 Shifting diagonal of input Hessian by   5.035931347612356E-003
 Lowest  eigenvalues of input Hessian
    0.005000   -0.000000   -0.000000   -0.000000    0.000000    0.000000
    0.000000    0.005067    0.005544    0.005665    0.006238    0.006448
    0.007140    0.007308    0.007891    0.008186    0.008931    0.009863
 Highest eigenvalues
    1.402023    1.418913    1.476880    2.578803    3.463305    3.550983
 
cpu  time for ANC gen    0.02 s
wall time for ANC gen    0.02 s
................................................................................
.............................. CYCLE   53 ......................................
................................................................................
   1    -50.7429662 -0.507430E+02  0.750E-02    9.17       0.0  T
   2    -50.7429672 -0.103995E-05  0.569E-02    9.17       1.0  T
   3    -50.7429683 -0.107010E-05  0.565E-03    9.18       3.5  T
   4    -50.7429684 -0.101667E-06  0.156E-03    9.18      12.6  T
   5    -50.7429684 -0.257865E-08  0.682E-04    9.18      28.7  T
   6    -50.7429684 -0.439577E-09  0.326E-04    9.18      60.2  T
speedup  0.91
cpu  time for SCC    0.00 s
wall time for SCC    0.01 s
speedup  0.96
cpu  time for grad    0.01 s
wall time for grad    0.01 s
 E :    -50.44848513  G :  0.004017    pred/act E change:  0.000D+00 -0.403D-04
Maxdispl :   0.0482   ||displ|| :   0.0899   Lambda : -0.847D-04
Largest |displ|/coords:  0.0482 (   5)  0.0359 (   1)  0.0291 (  11)
................................................................................
.............................. CYCLE   54 ......................................
................................................................................
   1    -50.7431795 -0.507432E+02  0.657E-02    9.18       0.0  T
   2    -50.7431803 -0.798186E-06  0.500E-02    9.18       1.0  T
   3    -50.7431813 -0.100275E-05  0.387E-03    9.18       5.1  T
   4    -50.7431814 -0.505512E-07  0.157E-03    9.18      12.5  T
   5    -50.7431814 -0.266370E-08  0.651E-04    9.18      30.1  T
speedup  1.04
cpu  time for SCC    0.00 s
wall time for SCC    0.00 s
speedup  1.06
cpu  time for grad    0.01 s
wall time for grad    0.01 s
 E :    -50.44852274  G :  0.002378    pred/act E change:  0.000D+00 -0.376D-04
Maxdispl :   0.0500   ||displ|| :   0.0655   Lambda : -0.408D-04
Largest |displ|/coords:  0.0500 (   1)  0.0175 (  22)  0.0128 (  12)
................................................................................
.............................. CYCLE   55 ......................................
................................................................................
   1    -50.7435957 -0.507436E+02  0.349E-02    9.19       0.0  T
   2    -50.7435959 -0.172199E-06  0.263E-02    9.19       1.0  T
   3    -50.7435961 -0.161562E-06  0.248E-03    9.19       7.9  T
   4    -50.7435961 -0.186135E-07  0.899E-04    9.19      21.8  T
   5    -50.7435961 -0.101883E-08  0.312E-04    9.19      62.9  T
speedup  1.06
cpu  time for SCC    0.00 s
wall time for SCC    0.00 s
speedup  1.00
cpu  time for grad    0.01 s
wall time for grad    0.01 s
 E :    -50.44854905  G :  0.001634    pred/act E change: -0.427D-04 -0.263D-04
Maxdispl :   0.1151   ||displ|| :   0.1386   Lambda : -0.519D-04
Largest |displ|/coords:  0.1151 (   1)  0.0387 (   4)  0.0292 (  22)
................................................................................
.............................. CYCLE   56 ......................................
................................................................................
   1    -50.7440068 -0.507440E+02  0.605E-02    9.19       0.0  T
   2    -50.7440073 -0.511742E-06  0.454E-02    9.19       1.0  T
   3    -50.7440077 -0.396312E-06  0.438E-03    9.19       4.5  T
   4    -50.7440078 -0.688467E-07  0.153E-03    9.19      12.8  T
   5    -50.7440078 -0.379709E-08  0.527E-04    9.19      37.2  T
   6    -50.7440078 -0.229790E-09  0.271E-04    9.19      72.4  T
speedup  1.09
cpu  time for SCC    0.01 s
wall time for SCC    0.01 s
speedup  1.02
cpu  time for grad    0.01 s
wall time for grad    0.01 s
 E :    -50.44858052  G :  0.002782    pred/act E change: -0.205D-04 -0.315D-04
Maxdispl :   0.1842   ||displ|| :   0.2144   Lambda : -0.573D-04
Largest |displ|/coords:  0.1842 (   1)  0.0639 (   4)  0.0427 (   5)
................................................................................
.............................. CYCLE   57 ......................................
................................................................................
   1    -50.7439226 -0.507439E+02  0.797E-02    9.20       0.0  T
   2    -50.7439235 -0.925098E-06  0.596E-02    9.20       1.0  T
   3    -50.7439242 -0.652457E-06  0.584E-03    9.20       3.4  T
   4    -50.7439243 -0.142737E-06  0.211E-03    9.20       9.3  T
   5    -50.7439243 -0.790507E-08  0.725E-04    9.20      27.1  T
   6    -50.7439243 -0.560881E-09  0.404E-04    9.20      48.6  T
speedup  0.91
cpu  time for SCC    0.00 s
wall time for SCC    0.01 s
speedup  0.95
cpu  time for grad    0.01 s
wall time for grad    0.01 s
 E :    -50.44861931  G :  0.003300    pred/act E change: -0.264D-04 -0.388D-04
Maxdispl :   0.2484   ||displ|| :   0.2808   Lambda : -0.612D-04
Largest |displ|/coords:  0.2484 (   1)  0.0815 (   4)  0.0596 (   5)
................................................................................
.............................. CYCLE   58 ......................................
................................................................................
   1    -50.7432293 -0.507432E+02  0.996E-02    9.19       0.0  T
   2    -50.7432307 -0.148672E-05  0.749E-02    9.19       1.0  T
   3    -50.7432322 -0.140466E-05  0.730E-03    9.19       2.7  T
   4    -50.7432323 -0.174500E-06  0.303E-03    9.19       6.5  T
   5    -50.7432323 -0.109418E-07  0.896E-04    9.19      21.9  T
   6    -50.7432323 -0.824151E-09  0.526E-04    9.19      37.3  T
speedup  0.93
cpu  time for SCC    0.00 s
wall time for SCC    0.01 s
speedup  0.96
cpu  time for grad    0.01 s
wall time for grad    0.01 s
 E :    -50.44866458  G :  0.002838    pred/act E change: -0.300D-04 -0.453D-04
Maxdispl :   0.2619   ||displ|| :   0.2952   Lambda : -0.661D-04
Largest |displ|/coords:  0.2619 (   1)  0.0908 (   4)  0.0548 (   5)
................................................................................
.............................. CYCLE   59 ......................................
................................................................................
   1    -50.7429570 -0.507430E+02  0.875E-02    9.18       0.0  T
   2    -50.7429583 -0.129762E-05  0.659E-02    9.18       1.0  T
   3    -50.7429596 -0.124610E-05  0.694E-03    9.18       2.8  T
   4    -50.7429597 -0.149881E-06  0.313E-03    9.18       6.3  T
   5    -50.7429597 -0.968130E-08  0.781E-04    9.18      25.1  T
   6    -50.7429597 -0.554451E-09  0.508E-04    9.18      38.6  T
speedup  1.07
cpu  time for SCC    0.01 s
wall time for SCC    0.01 s
speedup  1.01
cpu  time for grad    0.01 s
wall time for grad    0.01 s
 E :    -50.44870867  G :  0.002702    pred/act E change: -0.330D-04 -0.441D-04
Maxdispl :   0.1865   ||displ|| :   0.2135   Lambda : -0.417D-04
Largest |displ|/coords:  0.1865 (   1)  0.0752 (   4)  0.0289 (   5)
................................................................................
.............................. CYCLE   60 ......................................
................................................................................
   1    -50.7428117 -0.507428E+02  0.663E-02    9.17       0.0  T
   2    -50.7428125 -0.875557E-06  0.500E-02    9.17       1.0  T
   3    -50.7428133 -0.755661E-06  0.564E-03    9.17       3.5  T
   4    -50.7428134 -0.114646E-06  0.245E-03    9.17       8.0  T
   5    -50.7428134 -0.609786E-08  0.615E-04    9.17      31.9  T
   6    -50.7428134 -0.435080E-09  0.386E-04    9.17      50.8  T
speedup  0.93
cpu  time for SCC    0.00 s
wall time for SCC    0.01 s
speedup  0.96
cpu  time for grad    0.01 s
wall time for grad    0.01 s
 E :    -50.44873779  G :  0.003138    pred/act E change: -0.359D-04 -0.291D-04
Maxdispl :   0.1634   ||displ|| :   0.1971   Lambda : -0.428D-04
Largest |displ|/coords:  0.1634 (   1)  0.0798 (   4)  0.0315 (  10)
................................................................................
.............................. CYCLE   61 ......................................
................................................................................
   1    -50.7433712 -0.507434E+02  0.582E-02    9.17       0.0  T
   2    -50.7433720 -0.825577E-06  0.439E-02    9.17       1.0  T
   3    -50.7433726 -0.576446E-06  0.536E-03    9.17       3.7  T
   4    -50.7433727 -0.122773E-06  0.221E-03    9.17       8.9  T
   5    -50.7433727 -0.722734E-08  0.544E-04    9.17      36.0  T
   6    -50.7433727 -0.353239E-09  0.334E-04    9.17      58.8  T
speedup  0.93
cpu  time for SCC    0.00 s
wall time for SCC    0.01 s
speedup  0.96
cpu  time for grad    0.01 s
wall time for grad    0.01 s
 E :    -50.44876544  G :  0.002994    pred/act E change: -0.218D-04 -0.276D-04
Maxdispl :   0.2188   ||displ|| :   0.2654   Lambda : -0.408D-04
Largest |displ|/coords:  0.2188 (   1)  0.1193 (   4)  0.0402 (  22)
................................................................................
.............................. CYCLE   62 ......................................
................................................................................
   1    -50.7426704 -0.507427E+02  0.997E-02    9.17       0.0  T
   2    -50.7426717 -0.129350E-05  0.749E-02    9.17       1.0  T
   3    -50.7426727 -0.993580E-06  0.684E-03    9.17       2.9  T
   4    -50.7426729 -0.188051E-06  0.288E-03    9.17       6.8  T
   5    -50.7426729 -0.940236E-08  0.759E-04    9.17      25.8  T
   6    -50.7426729 -0.549988E-09  0.465E-04    9.17      42.1  T
speedup  0.88
cpu  time for SCC    0.01 s
wall time for SCC    0.01 s
speedup  0.94
cpu  time for grad    0.01 s
wall time for grad    0.01 s
 E :    -50.44878558  G :  0.003735    pred/act E change: -0.222D-04 -0.201D-04
Maxdispl :   0.0834   ||displ|| :   0.1280   Lambda : -0.434D-04
Largest |displ|/coords:  0.0834 (   1)  0.0593 (   4)  0.0381 (  10)
................................................................................
.............................. CYCLE   63 ......................................
................................................................................
   1    -50.7432131 -0.507432E+02  0.728E-02    9.19       0.0  T
   2    -50.7432138 -0.777150E-06  0.550E-02    9.19       1.0  T
   3    -50.7432145 -0.673539E-06  0.555E-03    9.19       3.5  T
   4    -50.7432146 -0.858698E-07  0.216E-03    9.19       9.1  T
   5    -50.7432146 -0.476623E-08  0.503E-04    9.19      39.0  T
   6    -50.7432146 -0.155154E-09  0.301E-04    9.19      65.1  T
speedup  1.07
cpu  time for SCC    0.01 s
wall time for SCC    0.01 s
speedup  1.02
cpu  time for grad    0.01 s
wall time for grad    0.01 s
 E :    -50.44880461  G :  0.002948    pred/act E change: -0.218D-04 -0.190D-04
Maxdispl :   0.0155   ||displ|| :   0.0326   Lambda : -0.174D-04
Largest |displ|/coords:  0.0155 (   4)  0.0104 (   3)  0.0094 (  22)
................................................................................
.............................. CYCLE   64 ......................................
................................................................................
   1    -50.7435671 -0.507436E+02  0.258E-02    9.20       0.0  T
   2    -50.7435673 -0.129442E-06  0.192E-02    9.20       1.0  T
   3    -50.7435673 -0.547450E-07  0.263E-03    9.20       7.4  T
   4    -50.7435673 -0.219443E-07  0.672E-04    9.20      29.2  T
   5    -50.7435673 -0.770285E-09  0.196E-04    9.20     100.3  T
speedup  0.83
cpu  time for SCC    0.00 s
wall time for SCC    0.00 s
speedup  0.93
cpu  time for grad    0.01 s
wall time for grad    0.01 s
 E :    -50.44881622  G :  0.001750    pred/act E change: -0.220D-04 -0.116D-04
Maxdispl :   0.1219   ||displ|| :   0.1510   Lambda : -0.186D-04
Largest |displ|/coords:  0.1219 (   1)  0.0595 (   4)  0.0310 (  22)
................................................................................
.............................. CYCLE   65 ......................................
................................................................................
   1    -50.7427111 -0.507427E+02  0.680E-02    9.19       0.0  T
   2    -50.7427119 -0.756739E-06  0.508E-02    9.19       1.0  T
   3    -50.7427122 -0.396879E-06  0.607E-03    9.19       3.2  T
   4    -50.7427124 -0.131558E-06  0.185E-03    9.19      10.6  T
   5    -50.7427124 -0.536427E-08  0.555E-04    9.19      35.3  T
   6    -50.7427124 -0.289823E-09  0.319E-04    9.19      61.5  T
speedup  0.93
cpu  time for SCC    0.00 s
wall time for SCC    0.01 s
speedup  1.04
cpu  time for grad    0.01 s
[...]
   4    -50.7439835 -0.418714E-08  0.494E-04    9.23      39.7  T
   5    -50.7439835 -0.279861E-09  0.129E-04    9.23     151.5  T
speedup  0.85
cpu  time for SCC    0.00 s
wall time for SCC    0.00 s
speedup  1.02
cpu  time for grad    0.01 s
wall time for grad    0.01 s
 E :    -50.44933711  G :  0.000485    pred/act E change: -0.151D-05 -0.141D-05
Maxdispl :   0.0213   ||displ|| :   0.0317   Lambda : -0.121D-05
Largest |displ|/coords:  0.0213 (   2)  0.0112 (   3)  0.0087 (   1)
................................................................................
.............................. CYCLE  106 ......................................
................................................................................
   1    -50.7439543 -0.507440E+02  0.163E-02    9.23       0.0  T
   2    -50.7439544 -0.386813E-07  0.122E-02    9.23       1.6  T
   3    -50.7439544 -0.292312E-07  0.141E-03    9.23      13.9  T
   4    -50.7439544 -0.559100E-08  0.530E-04    9.23      37.0  T
   5    -50.7439544 -0.235360E-09  0.105E-04    9.23     186.6  T
speedup  1.09
cpu  time for SCC    0.00 s
wall time for SCC    0.00 s
speedup  1.03
cpu  time for grad    0.01 s
wall time for grad    0.01 s
 E :    -50.44933797  G :  0.000497    pred/act E change: -0.102D-05 -0.861D-06
Maxdispl :   0.0151   ||displ|| :   0.0225   Lambda : -0.914D-06
Largest |displ|/coords:  0.0151 (   2)  0.0092 (   3)  0.0050 (   4)
................................................................................
.............................. CYCLE  107 ......................................
................................................................................
   1    -50.7439440 -0.507439E+02  0.946E-03    9.23       0.0  T
   2    -50.7439440 -0.129822E-07  0.710E-03    9.23       2.8  T
   3    -50.7439440 -0.110225E-07  0.776E-04    9.23      25.3  T
   4    -50.7439441 -0.164903E-08  0.269E-04    9.23      72.8  T
speedup  1.08
cpu  time for SCC    0.00 s
wall time for SCC    0.00 s
speedup  1.02
cpu  time for grad    0.01 s
wall time for grad    0.01 s
 E :    -50.44933858  G :  0.000284    pred/act E change: -0.606D-06 -0.610D-06
Maxdispl :   0.0064   ||displ|| :   0.0151   Lambda : -0.513D-06
Largest |displ|/coords:  0.0064 (   2)  0.0056 (   3)  0.0050 (   4)
................................................................................
.............................. CYCLE  108 ......................................
................................................................................
   1    -50.7438835 -0.507439E+02  0.946E-03    9.23       0.0  T
   2    -50.7438835 -0.156901E-07  0.703E-03    9.23       2.8  T
   3    -50.7438835 -0.105181E-07  0.114E-03    9.23      17.2  T
   4    -50.7438835 -0.203890E-08  0.363E-04    9.23      54.0  T
   5    -50.7438835 -0.106120E-09  0.535E-05    9.23     366.2  T
speedup  0.89
cpu  time for SCC    0.00 s
wall time for SCC    0.00 s
speedup  0.95
cpu  time for grad    0.01 s
wall time for grad    0.01 s
 E :    -50.44933892  G :  0.000368    pred/act E change: -0.457D-06 -0.340D-06
Maxdispl :   0.0084   ||displ|| :   0.0120   Lambda : -0.336D-06
Largest |displ|/coords:  0.0084 (   1)  0.0038 (   6)  0.0033 (   3)
................................................................................
.............................. CYCLE  109 ......................................
................................................................................
   1    -50.7438740 -0.507439E+02  0.566E-03    9.23       0.0  T
   2    -50.7438740 -0.585653E-08  0.426E-03    9.23       4.6  T
   3    -50.7438741 -0.635308E-08  0.473E-04    9.23      41.5  T
   4    -50.7438741 -0.452729E-09  0.163E-04    9.23     120.5  T
speedup  1.03
cpu  time for SCC    0.00 s
wall time for SCC    0.00 s
speedup  1.00
cpu  time for grad    0.01 s
wall time for grad    0.01 s
 E :    -50.44933913  G :  0.000247    pred/act E change: -0.257D-06 -0.210D-06
Maxdispl :   0.0062   ||displ|| :   0.0086   Lambda : -0.185D-06
Largest |displ|/coords:  0.0062 (   1)  0.0029 (   2)  0.0022 (  13)
................................................................................
.............................. CYCLE  110 ......................................
................................................................................
   1    -50.7438728 -0.507439E+02  0.507E-03    9.23       0.0  T
   2    -50.7438728 -0.436657E-08  0.376E-03    9.23       5.2  T
   3    -50.7438728 -0.425248E-08  0.603E-04    9.23      32.5  T
   4    -50.7438728 -0.338474E-09  0.153E-04    9.23     128.4  T
speedup  0.79
cpu  time for SCC    0.00 s
wall time for SCC    0.00 s
speedup  1.00
cpu  time for grad    0.01 s
wall time for grad    0.01 s
 E :    -50.44933928  G :  0.000284    pred/act E change: -0.168D-06 -0.145D-06
Maxdispl :   0.0104   ||displ|| :   0.0137   Lambda : -0.258D-06
Largest |displ|/coords:  0.0104 (   1)  0.0053 (   2)  0.0029 (   5)
................................................................................
.............................. CYCLE  111 ......................................
................................................................................
   1    -50.7438878 -0.507439E+02  0.759E-03    9.23       0.0  T
   2    -50.7438878 -0.944586E-08  0.564E-03    9.23       3.5  T
   3    -50.7438878 -0.904118E-08  0.885E-04    9.23      22.2  T
   4    -50.7438878 -0.781107E-09  0.246E-04    9.23      79.6  T
speedup  1.05
cpu  time for SCC    0.00 s
wall time for SCC    0.00 s
speedup  1.00
cpu  time for grad    0.01 s
wall time for grad    0.01 s
 E :    -50.44933946  G :  0.000265    pred/act E change: -0.925D-07 -0.185D-06
Maxdispl :   0.0069   ||displ|| :   0.0092   Lambda : -0.163D-06
Largest |displ|/coords:  0.0069 (   1)  0.0021 (   3)  0.0021 (  32)
................................................................................
.............................. CYCLE  112 ......................................
................................................................................
   1    -50.7439169 -0.507439E+02  0.596E-03    9.23       0.0  T
   2    -50.7439170 -0.608213E-08  0.441E-03    9.23       4.4  T
   3    -50.7439170 -0.405192E-08  0.768E-04    9.23      25.6  T
   4    -50.7439170 -0.721080E-09  0.251E-04    9.23      78.0  T
speedup  1.05
cpu  time for SCC    0.00 s
wall time for SCC    0.00 s
speedup  1.01
cpu  time for grad    0.01 s
wall time for grad    0.01 s
 E :    -50.44933959  G :  0.000227    pred/act E change: -0.129D-06 -0.128D-06
Maxdispl :   0.0068   ||displ|| :   0.0110   Lambda : -0.191D-06
Largest |displ|/coords:  0.0068 (   1)  0.0035 (  32)  0.0030 (  38)

generating ANC from model Hessian ...
 Shifting diagonal of input Hessian by   5.035165268839003E-003
 Lowest  eigenvalues of input Hessian
    0.005000   -0.000000   -0.000000   -0.000000    0.000000    0.000000
    0.000000    0.005080    0.005562    0.005715    0.006333    0.006429
    0.006883    0.007497    0.008106    0.008478    0.009072    0.009970
 Highest eigenvalues
    1.412110    1.424413    1.465677    2.600235    3.402333    3.634180
 
cpu  time for ANC gen    0.02 s
wall time for ANC gen    0.02 s
................................................................................
.............................. CYCLE  113 ......................................
................................................................................
   1    -50.7439368 -0.507439E+02  0.823E-03    9.23       0.0  T
   2    -50.7439368 -0.120540E-07  0.610E-03    9.23       3.2  T
   3    -50.7439368 -0.633447E-08  0.108E-03    9.23      18.2  T
   4    -50.7439368 -0.173497E-08  0.356E-04    9.23      55.1  T
   5    -50.7439368 -0.826859E-10  0.427E-05    9.23     459.6  T
speedup  1.04
cpu  time for SCC    0.00 s
wall time for SCC    0.00 s
speedup  1.00
cpu  time for grad    0.01 s
wall time for grad    0.01 s
 E :    -50.44933972  G :  0.000191    pred/act E change:  0.000D+00 -0.137D-06
Maxdispl :   0.0009   ||displ|| :   0.0021   Lambda : -0.800D-07
Largest |displ|/coords:  0.0009 (   3)  0.0007 (  11)  0.0007 (  18)
................................................................................
.............................. CYCLE  114 ......................................
................................................................................
   1    -50.7439390 -0.507439E+02  0.212E-03    9.23       0.0  T
   2    -50.7439390 -0.793818E-09  0.161E-03    9.23      12.2  T
   3    -50.7439390 -0.774953E-09  0.181E-04    9.23     108.1  T
   4    -50.7439390 -0.799503E-10  0.518E-05    9.23     378.6  T
speedup  1.08
cpu  time for SCC    0.00 s
wall time for SCC    0.00 s
speedup  1.02
cpu  time for grad    0.01 s
wall time for grad    0.01 s
 E :    -50.44933979  G :  0.000105    pred/act E change:  0.000D+00 -0.643D-07
Maxdispl :   0.0032   ||displ|| :   0.0074   Lambda : -0.187D-06
Largest |displ|/coords:  0.0032 (   4)  0.0026 (   3)  0.0023 (   1)

   *** GEOMETRY OPTIMIZATION CONVERGED AFTER 114 ITERATIONS ***

------------------------------------------------------------------------
 total energy gain (kcal):     -0.0000
------------------------------------------------------------------------
================
 final structure:
================
$coord
        2.08740304958972        2.45347733562778       -4.86288023928712      S 
        3.40659312861857        3.17941753587295       -2.59538772965873      O 
       -0.53560560767079        3.35418382297319       -4.91305208901463      O 
        2.19619404944109       -0.24952625543050       -5.38415762659511      O 
        3.45605734056254        3.80981863567224       -7.16031641027867      O 
        2.49308902153963        3.24990298263009       -8.57441586848719      H 
        1.00516827426777       -1.91552164999660       -3.25698564305763      H 
        0.06241371105988       -2.88265681873027       -1.93061331723452      O 
       -0.27919021247900       -4.50805446012945       -2.65280604186085      H 
       -2.82857399644255        0.02120156216196        4.45007834588194      O 
       -2.53827507269955        1.42015358266601        5.56257698981368      H 
       -2.02402085100277       -5.19453667199986        5.43505530346201      O 
       -2.47749628832455       -5.83349869827305        7.06657492835394      H 
       -2.90516671398598       -3.60203094919631        5.22134010306858      H 
        1.69074285332246        3.02845903813780        2.07297594433811      O 
        2.38661029271265        1.45143397430558        2.67879767487415      H 
        2.59380317551389        3.37741199090526        0.48881802238964      H 
        1.59534234856379       -2.20613552325322        2.97158743756539      O 
       -1.14698301225499       -0.53576299888012        3.90589528783374      H 
        1.00524556511666       -3.68721016779141        3.86763728854697      H 
        1.35486823257431       -2.58236818551978        1.18598783977183      H 
       -2.18604206306485        1.57446856411831       -0.70129654387290      N 
       -1.83836585203626       -0.33336989558581       -0.95451660109758      H 
       -1.76190924294590        2.47209710694228       -2.46759192364075      H 
       -3.97648720170756        1.87279775088377       -0.08203846256295      H 
       -0.83541490935033        2.26584844874715        0.62873333076217      H 
$end
 
 Bond Distances (Angstroems)
 ---------------------------
S1-O2=1.4404         S1-O3=1.4678         S1-O4=1.4579         S1-O5=1.5867         O2-S1=1.4404         O3-S1=1.4678         
O4-S1=1.4579         O5-S1=1.5867         O5-H6=0.9526         H6-O5=0.9526         H7-O8=1.0017         O8-H7=1.0017         
O8-H9=0.9584         H9-O8=0.9584         O10-H11=0.9582       O10-H19=0.9806       H11-O10=0.9582       O12-H13=0.9578       
O12-H14=0.9697       H13-O12=0.9578       H14-O12=0.9697       O15-H16=0.9669       O15-H17=0.9825       H16-O15=0.9669       
H17-O15=0.9825       O18-H20=0.9678       O18-H21=0.9740       H19-O10=0.9806       H20-O18=0.9678       H21-O18=0.9740       
N22-H23=1.0349       N22-H24=1.0722       N22-H25=1.0149       N22-H26=1.0677       H23-N22=1.0349       H24-N22=1.0722       
H25-N22=1.0149       H26-N22=1.0677       
 N  H  Rav=1.0474 sigma=0.0237  Rmin=1.0149  Rmax=1.0722     4
 O  H  Rav=0.9700 sigma=0.0136  Rmin=0.9526  Rmax=1.0017    11
 S  O  Rav=1.4882 sigma=0.0577  Rmin=1.4404  Rmax=1.5867     4
 
 selected bond angles (degree)
 --------------------
O3-S1-O2=112.75                O4-S1-O2=113.59                O4-S1-O3=110.64                O5-S1-O2=107.24                
O5-S1-O3=105.72                O5-S1-O4=106.31                H6-O5-S1=102.53                H9-O8-H7=105.85                
H19-O10-H11=105.49             
 
 selected dihedral angles (degree)
 ---------------------------------
H6-O5-S1-O2=180.03            H6-O5-S1-O3=300.57            H6-O5-S1-O4= 58.21            
 
 CMA Distance (Angstroems)
 ---------------------------
R(CMA):  4.3933

========================================================================
 FINAL SINGLEPOINT CALCULATION ON OPTIMIZED GEOMETRY
========================================================================

 Ncao       : 65
 Nao        : 64
 Nshell     : 38
 Nel        : 80
 T(el)      :   300.0
 intcut     :    25.0
 scfconv/Eh :  0.100E-05
   qconv/e  :  0.100E-03
 intneglect :  0.100E-07
 broydamp   :      0.250
 iter      E             dE          RMSdq      gap      omega  full diag
   1    -50.7439390 -0.507439E+02  0.215E-05    9.23       0.0  T
   2    -50.7439390 -0.440536E-12  0.132E-05    9.23    1489.9  T
   3    -50.7439390 -0.426326E-13  0.212E-06    9.23    9247.5  T
speedup  1.03
cpu  time for SCC    0.00 s
wall time for SCC    0.00 s

   *** convergence criteria satisfied after 3 iterations ***

          eigenvalues
 #    :          28         29         30         31         32         33         34         35
 occ. :        2.000      2.000      2.000      2.000      2.000      2.000      2.000      2.000
 eps  :       -13.460    -13.087    -12.422    -12.283    -12.202    -12.124    -12.086    -12.037
 #    :          36         37         38         39         40         41         42         43
 occ. :        2.000      2.000      2.000      2.000      2.000      0.000      0.000      0.000
 eps  :       -11.938    -11.902    -11.667    -11.598    -11.379     -2.149     -0.858     -0.240
 #    :          44         45         46         47         48         49         50         51
 occ. :        0.000      0.000      0.000      0.000      0.000      0.000      0.000      0.000
 eps  :         0.821      1.324      1.395      2.100      2.906      3.710      4.120      4.857


   #   Z            q   n(s)   n(p)   n(d)      C6AA      α(0)
   1  16 S      1.622  1.588  1.819  0.971    90.560    16.017
   2   8 O     -0.703  1.756  4.947  0.000    28.779     7.193
   3   8 O     -0.735  1.770  4.965  0.000    29.659     7.302
   4   8 O     -0.736  1.772  4.964  0.000    29.704     7.307
   5   8 O     -0.573  1.747  4.825  0.000    24.508     6.683
   6   1 H      0.342  0.658  0.000  0.000     0.599     1.212
   7   1 H      0.340  0.660  0.000  0.000     0.613     1.229
   8   8 O     -0.635  1.743  4.892  0.000    26.048     6.888
   9   1 H      0.292  0.708  0.000  0.000     0.746     1.357
  10   8 O     -0.633  1.755  4.879  0.000    25.993     6.881
  11   1 H      0.281  0.719  0.000  0.000     0.781     1.388
  12   8 O     -0.599  1.741  4.858  0.000    25.161     6.770
  13   1 H      0.278  0.722  0.000  0.000     0.792     1.397
  14   1 H      0.318  0.682  0.000  0.000     0.670     1.285
  15   8 O     -0.608  1.748  4.860  0.000    25.390     6.801
  16   1 H      0.319  0.681  0.000  0.000     0.666     1.282
  17   1 H      0.336  0.664  0.000  0.000     0.622     1.239
  18   8 O     -0.630  1.752  4.878  0.000    25.912     6.870
  19   1 H      0.330  0.670  0.000  0.000     0.639     1.255
  20   1 H      0.317  0.683  0.000  0.000     0.673     1.288
  21   1 H      0.322  0.678  0.000  0.000     0.658     1.275
  22   7 N     -0.356  1.278  4.077  0.000    29.144     8.018
  23   1 H      0.278  0.722  0.000  0.000     0.783     1.387
  24   1 H      0.293  0.707  0.000  0.000     0.735     1.342
  25   1 H      0.240  0.760  0.000  0.000     0.922     1.504
  26   1 H      0.300  0.700  0.000  0.000     0.713     1.323

 Mol. C6AA /au·bohr⁶  :       5435.640218
 Mol. C8AA /au·bohr⁸  :     117754.866588
 Mol. α(0) /au        :        106.493756

 
 Wiberg/Mayer (AO) data. WBOs > 0.1 written file <wbo>
 largest (>0.05) Wiberg bond orders for each atom
           total WBO             WBO to atom ...
     1  S   4.906    O    2 1.389    O    4 1.302    O    3 1.268    O    5 0.907
     2  O   1.757    S    1 1.389    O    4 0.113    O    3 0.113    O    5 0.062    H   17 0.053
     3  O   1.747    S    1 1.268    H   24 0.130    O    2 0.113    O    4 0.109    O    5 0.070    N   22 0.055
     4  O   1.734    S    1 1.302    O    2 0.113    O    3 0.109    H    7 0.097    O    5 0.073
     5  O   1.989    S    1 0.907    H    6 0.866    O    4 0.073    O    3 0.070    O    2 0.062
     6  H   0.883    O    5 0.866
     7  H   0.885    O    8 0.780    O    4 0.097
     8  O   1.875    H    9 0.905    H    7 0.780    H   23 0.055
     9  H   0.915    O    8 0.905
    10  O   1.821    H   11 0.918    H   19 0.828
    11  H   0.921    O   10 0.918
    12  O   1.838    H   13 0.919    H   14 0.871
    13  H   0.923    O   12 0.919
    14  H   0.899    O   12 0.871
    15  O   1.935    H   16 0.877    H   17 0.829    H   26 0.123    N   22 0.060
    16  H   0.898    O   15 0.877
    17  H   0.887    O   15 0.829    O    2 0.053
    18  O   1.869    H   20 0.872    H   21 0.851    H   19 0.055
    19  H   0.891    O   10 0.828    O   18 0.055
    20  H   0.900    O   18 0.872
    21  H   0.896    O   18 0.851
    22  N   3.518    H   25 0.937    H   23 0.862    H   26 0.778    H   24 0.776    O   15 0.060    O    3 0.055
    23  H   0.923    N   22 0.862    O    8 0.055
    24  H   0.914    N   22 0.776    O    3 0.130
    25  H   0.942    N   22 0.937
    26  H   0.910    N   22 0.778    O   15 0.123
 MOs/occ written to file <molden.input>
 
molecular dipole:
                 x           y           z       tot (Debye)
 q only:       -1.937      -0.839       1.347
   full:       -1.748      -1.022       0.845       5.577
molecular quadrupole (traceless):
                xx          xy          yy          xz          yz          zz
 q only:       -2.420      -5.455      -3.107       3.331       3.550       5.527
  q+dip:       -6.182      -4.702      -6.237       0.019       1.262      12.419
   full:       -6.694      -4.596      -6.236      -0.447       0.991      12.929

SCC energy    :     -50.7439390
rep           :       0.2944358
ES            :       0.2692234
AES           :      -0.0670462
AXC           :      -0.0083787
disp          :      -0.0178379
XB            :       0.0000000
fix           :       0.0000000
total E       :     -50.4493398
atomizationE  :       4.9796440     3124.77
(atE without considering molecular charge,
 total energy contains solvation terms)
H-L gap (eV)  :          9.2303
optimized geometry written to: xtbopt.xyz


------------------------------------------------------------------------
 * finished run on 2019/09/16 at 13:03:04.198     
------------------------------------------------------------------------
 total:
 * wall-time:     0 d,  0 h,  0 min,  2.681 sec
 *  cpu-time:     0 d,  0 h,  0 min,  2.581 sec
 * ratio c/w:     0.963 speedup
 SCF:
 * wall-time:     0 d,  0 h,  0 min,  0.138 sec
 *  cpu-time:     0 d,  0 h,  0 min,  0.133 sec
 * ratio c/w:     0.962 speedup
 ANC optimizer:
 * wall-time:     0 d,  0 h,  0 min,  2.512 sec
 *  cpu-time:     0 d,  0 h,  0 min,  2.425 sec
 * ratio c/w:     0.965 speedup

