      -----------------------------------------------------------      
     |                   =====================                   |     
     |                           x T B                           |     
     |                   =====================                   |     
     |                         S. Grimme                         |     
     |          Mulliken Center for Theoretical Chemistry        |     
     |                    University of Bonn                     |     
     |                 Version 6.0.1 (SAW181210)                 |     
      -----------------------------------------------------------      

   This program is distributed in the hope that it will be useful,
   but WITHOUT ANY WARRANTY; without even the implied warranty of
   MERCHANTABILITY or FITNESS FOR A PARTICULAR PURPOSE.
   
   FOR NON-COMMERCIAL, ACADEMIA USE ONLY.
   
   Cite this work as:
   S. Grimme, C. Bannwarth, P. Shushkov, J. Comput. Theory Chem., 2017,
   13, 1989-2009.
   C. Bannwarth, S. Ehlert and S. Grimme., ChemRxiv, 2018, preprint.
   http://doi.org/10.26434/chemrxiv.7246238.v1
   
   for sTDA-xTB:
   S. Grimme and C. Bannwarth, J. Chem. Phys., 2016, 145, 054103.
   
   in the mass-spec context:
   V. Asgeirsson, C. Bauer and S. Grimme, Chem. Sci., 2017, 8, 4879.
   
   if GBSA is used:
   P. Shushkov, F. März and S. Grimme, unpublished.
   
   for ANC optimizer:
   S. Grimme, unpublished.
   Rational Function algorithm used in ANCopt:
   F. Eckert, P. Pulay, H.-J. Werner, J. Comput. Chem., 1997, 18, 1473.
   
   with help from (in alphabetical order)
   C. Bannwarth, F. Bohle, G. Brandenburg, E. Caldeweyher, M. Checinski,
   S. Dohm, S. Ehlert, S. Ehrlich, F. März, H. Neugebauer, J. Pisarek,
   P. Pracht, P. Shushkov, and S. Spicher.
   
 * started run on 2019/09/16 at 11:14:11.386     
========================================================================
 # omp threads = 1
========================================================================
number of atoms            : 26
number of electrons        : 80
charge                     : 0
spin                       : .0
first test random number   : .4798

########################################################################
# WARNING! Please study the warnings concerning your input carefully
#  - XTBPATH is not set, using XTBHOME instead
#  - the use of '-opt' is discouraged, please use '--opt' next time
#  - the use of '-chrg' is discouraged, please use '--chrg' next time
#  - the use of '-uhf' is discouraged, please use '--uhf' next time
########################################################################

           ------------------------------------------------- 
          |                 G F N 2 - x T B                 |
          | Geometry, Frequencies, Noncovalent interactions |
          |            JCTC 2018 parametrisation            |
           ------------------------------------------------- 
      method parameters     
 k(s)        :  1.8500
 k(p)        :  2.2300
 k(d)        :  2.2300
 k(f)        :  2.0000
 kEN (H0ij)  : -2.0000
 D4 a1       :  0.5200
 D4 a2       :  5.0000
 D4 s6       :  1.0000
 D4 s8       :  2.7000
 D4 s9       :  5.0000
 alphaj      :  2.0000


            Z     q(EN)     CN     RAES       Cart. coordinates
     1  S   6.0    0.61    4.50    4.55     2.36212     4.44647     0.63239
     2  O   6.0   -0.27    1.12    1.80     2.97520     5.82379     3.01046
     3  O   6.0   -0.30    1.19    1.80    -0.41724     4.02057     0.48433
     4  O   6.0   -0.27    2.12    1.84     3.67580     1.99975     0.61473
     5  O   6.0   -0.25    2.08    1.84     3.18503     5.95479    -1.54941
     6  H   1.0    0.14    1.22    1.47     4.40163     5.01405    -2.51170
     7  H   1.0    0.18    1.34    1.51     3.13879     1.01378     2.03971
     8  O   6.0   -0.39    1.58    1.80     1.85356    -0.92230     3.86033
     9  H   1.0    0.18    0.94    1.42     2.91774    -1.15218     5.37638
    10  O   6.0   -0.36    1.44    1.80     1.17737    -0.96655    -4.14068
    11  H   1.0    0.18    0.94    1.42     2.30080    -0.95273    -5.63114
    12  O   6.0   -0.39    1.63    1.81    -4.09790    -2.55250     0.18177
    13  H   1.0    0.17    0.95    1.42    -5.58969    -3.47705     0.81701
    14  O   6.0   -0.22    2.92    2.59    -3.24268    -0.21151    -3.63691
    15  H   1.0    0.17    1.23    1.47    -1.39426    -0.34735    -3.87088
    16  H   1.0    0.12    0.96    1.43    -4.18328    -0.77091    -5.15096
    17  H   1.0    0.16    1.19    1.46    -3.81847    -1.09097    -2.09207
    18  O   6.0   -0.23    2.94    2.63    -2.44097     0.41726     3.27602
    19  H   1.0    0.15    1.02    1.43    -2.30041     2.12489     2.53164
    20  H   1.0    0.16    1.18    1.46    -3.26673    -0.78833     2.11211
    21  H   1.0    0.16    1.18    1.46    -0.79274    -0.21756     3.88579
    22  N   5.0   -0.15    3.99    2.84     0.71127    -3.47308    -0.04779
    23  H   1.0    0.13    1.13    1.45     1.23731    -2.52266    -1.66160
    24  H   1.0    0.08    0.99    1.43     1.36884    -5.30214    -0.12895
    25  H   1.0    0.12    1.13    1.45     1.46784    -2.58035     1.50626
    26  H   1.0    0.12    1.10    1.44    -1.22894    -3.48718     0.09315

  Z AO/shell   Hii/eV     exponent
  1     Wed Apr 25 08:07:45 CEST 2018   EN: 2.200 GM2: 0.406  GM3: 0.0800  RAES: 1.40
     1s    -10.707211    1.230000
  7     Wed Apr 25 08:07:45 CEST 2018   EN: 3.040 GM2: 0.461  GM3:-0.0640  RAES: 1.90
     2s    -16.686243    2.339881
     2p    -12.523956    2.014332
  8     Wed Apr 25 08:07:45 CEST 2018   EN: 3.440 GM2: 0.452  GM3:-0.0517  RAES: 1.80
     2s    -20.229985    2.439742
     2p    -15.503117    2.137023
 16     Tue Apr 24 11:44:34 CEST 2018   EN: 2.580 GM2: 0.340  GM3:-0.0502  RAES: 3.10
     3s    -20.029654    1.981333
     3p    -11.377694    2.025643
     3d     -0.420282    1.702555
 no old-style atom pair restraining (fixing) potential

molecular fragmentation (1/2 indicates fragments):
11111112222222222222222222
# atoms in fragment 1/2:     7    19
 fragment masses (1/2) :       98.07      107.11
CMA distance (Bohr)    :   6.689
constraining FC (au)   :  0.0500
           ------------------------------------------------- 
          |        Self-Consistent Charge Iterations        |
           ------------------------------------------------- 

 Ncao       : 65
 Nao        : 64
 Nshell     : 38
 Nel        : 80
 T(el)      :   300.0
 intcut     :    25.0
 scfconv/Eh :  0.100E-05
   qconv/e  :  0.100E-03
 intneglect :  0.100E-07
 broydamp   :      0.250
 iter      E             dE          RMSdq      gap      omega  full diag
   1    -50.4616484 -0.504616E+02  0.715E+00   10.62       0.0  T
   2    -50.5238589 -0.622105E-01  0.517E+00    9.52       1.0  T
   3    -50.5697102 -0.458513E-01  0.147E+00    6.20       1.0  T
   4    -50.5763529 -0.664261E-02  0.626E-01    6.48       1.0  T
   5    -50.5769587 -0.605879E-03  0.377E-01    6.38       1.0  T
   6    -50.5776674 -0.708712E-03  0.163E-01    6.53       1.0  T
   7    -50.5778424 -0.174920E-03  0.576E-02    6.56       1.0  T
   8    -50.5778565 -0.140951E-04  0.362E-02    6.55       1.0  T
   9    -50.5778641 -0.761829E-05  0.166E-02    6.56       1.2  T
  10    -50.5778660 -0.190878E-05  0.312E-03    6.57       6.3  T
  11    -50.5778660 -0.401703E-07  0.158E-03    6.57      12.4  T
  12    -50.5778660 -0.954909E-08  0.534E-04    6.57      36.8  T
  13    -50.5778660 -0.906724E-09  0.184E-04    6.57     106.6  T
speedup  0.99
cpu  time for SCC    0.01 s
wall time for SCC    0.02 s

   *** convergence criteria satisfied after 13 iterations ***

          eigenvalues
 #    :          28         29         30         31         32         33         34         35
 occ. :        2.000      2.000      2.000      2.000      2.000      2.000      2.000      2.000
 eps  :       -12.422    -12.380    -11.971    -11.786    -11.678    -11.343    -11.032    -10.666
 #    :          36         37         38         39         40         41         42         43
 occ. :        2.000      2.000      2.000      2.000      2.000      0.000      0.000      0.000
 eps  :       -10.526    -10.104     -9.911     -9.078     -8.704     -2.133     -1.036     -0.841
 #    :          44         45         46         47         48         49         50         51
 occ. :        0.000      0.000      0.000      0.000      0.000      0.000      0.000      0.000
 eps  :         0.215      0.755      1.047      1.926      2.799      3.865      4.017      4.529


   #   Z            q   n(s)   n(p)   n(d)      C6AA      α(0)
   1  16 S      1.671  1.575  1.799  0.955    89.428    15.916
   2   8 O     -0.705  1.780  4.925  0.000    28.848     7.201
   3   8 O     -0.715  1.761  4.955  0.000    29.127     7.236
   4   8 O     -0.585  1.719  4.866  0.000    24.790     6.722
   5   8 O     -0.531  1.716  4.815  0.000    23.570     6.554
   6   1 H      0.379  0.621  0.000  0.000     0.516     1.125
   7   1 H      0.411  0.589  0.000  0.000     0.457     1.058
   8   8 O     -0.870  1.827  5.043  0.000    33.792     7.794
   9   1 H      0.205  0.795  0.000  0.000     1.095     1.644
  10   8 O     -0.904  1.820  5.084  0.000    34.888     7.921
  11   1 H      0.168  0.832  0.000  0.000     1.299     1.790
  12   8 O     -0.852  1.819  5.033  0.000    33.157     7.722
  13   1 H      0.205  0.795  0.000  0.000     1.092     1.642
  14   8 O     -0.446  1.672  4.774  0.000    21.701     6.292
  15   1 H      0.408  0.592  0.000  0.000     0.462     1.064
  16   1 H      0.338  0.662  0.000  0.000     0.618     1.236
  17   1 H      0.403  0.597  0.000  0.000     0.474     1.078
  18   8 O     -0.478  1.666  4.812  0.000    22.365     6.387
  19   1 H      0.383  0.617  0.000  0.000     0.517     1.129
  20   1 H      0.394  0.606  0.000  0.000     0.492     1.099
  21   1 H      0.397  0.603  0.000  0.000     0.485     1.092
  22   7 N     -0.349  1.280  4.069  0.000    28.968     7.994
  23   1 H      0.298  0.702  0.000  0.000     0.719     1.328
  24   1 H      0.199  0.801  0.000  0.000     1.112     1.652
  25   1 H      0.291  0.709  0.000  0.000     0.740     1.347
  26   1 H      0.286  0.714  0.000  0.000     0.757     1.363

 Mol. C6AA /au·bohr⁶  :       5549.079716
 Mol. C8AA /au·bohr⁸  :     120063.173180
 Mol. α(0) /au        :        107.384355

 
 Wiberg/Mayer (AO) data. WBOs > 0.1 written file <wbo>
 largest (>0.05) Wiberg bond orders for each atom
           total WBO             WBO to atom ...
     1  S   4.853    O    2 1.388    O    3 1.331    O    4 1.074    O    5 1.025
     2  O   1.706    S    1 1.388    O    3 0.137    O    4 0.095    O    5 0.076
     3  O   1.704    S    1 1.331    O    2 0.137    O    4 0.093    O    5 0.071
     4  O   2.020    S    1 1.074    H    7 0.660    O    2 0.095    O    3 0.093
     5  O   2.062    S    1 1.025    H    6 0.832    O    2 0.076    O    3 0.071
     6  H   0.856    O    5 0.832
     7  H   0.831    O    4 0.660    O    8 0.152
     8  O   1.568    H    9 0.941    H   21 0.177    H    7 0.152    H   25 0.123    O   18 0.057    N   22 0.055
     9  H   0.958    O    8 0.941
    10  O   1.430    H   11 0.950    H   15 0.217    H   23 0.130    O   14 0.064    N   22 0.057
    11  H   0.972    O   10 0.950
    12  O   1.602    H   13 0.941    H   20 0.190    H   17 0.182    H   26 0.105    O   18 0.063    O   14 0.057
    13  H   0.958    O   12 0.941
    14  O   2.271    H   16 0.876    H   17 0.649    H   15 0.609    O   10 0.064    O   12 0.057
    15  H   0.833    O   14 0.609    O   10 0.217
    16  H   0.886    O   14 0.876
    17  H   0.838    O   14 0.649    O   12 0.182
    18  O   2.262    H   19 0.797    H   21 0.660    H   20 0.652    O   12 0.063    O    8 0.057
    19  H   0.853    O   18 0.797
    20  H   0.845    O   18 0.652    O   12 0.190
    21  H   0.842    O   18 0.660    O    8 0.177
    22  N   3.515    H   24 0.955    H   26 0.809    H   25 0.786    H   23 0.775    O   10 0.057    O    8 0.055
    23  H   0.911    N   22 0.775    O   10 0.130
    24  H   0.960    N   22 0.955
    25  H   0.915    N   22 0.786    O    8 0.123
    26  H   0.918    N   22 0.809    O   12 0.105
 MOs/occ written to file <molden.input>
 
molecular dipole:
                 x           y           z       tot (Debye)
 q only:       -1.005      -1.694      -1.314
   full:       -0.460      -2.153      -1.832       7.280
molecular quadrupole (traceless):
                xx          xy          yy          xz          yz          zz
 q only:        9.532      -0.981      -7.531       0.062     -10.333      -2.001
  q+dip:       12.153       2.536     -11.037      -0.227     -12.820      -1.116
   full:       12.082       2.419     -11.249      -0.558     -13.309      -0.832

SCC energy    :     -50.5778660
rep           :       0.2811208
ES            :       0.3470496
AES           :      -0.0595759
AXC           :      -0.0077378
disp          :      -0.0190314
XB            :       0.0000000
fix           :       0.0000000
total E       :     -50.2963756
atomizationE  :       4.8266797     3028.79
(atE without considering molecular charge,
 total energy contains solvation terms)
H-L gap (eV)  :          6.5711
           ------------------------------------------------- 
          |                 ===============                 |
          |                   A N C O P T                   |
          |                 ===============                 |
          |          Approximate Normal Coordinate          |
          |           Rational Function Optimizer           |
           ------------------------------------------------- 
dumping coords to <xtbopt.coord> and <xtbopt.log>
 optlevel               2
 Maxcycle             520
 Maxmicro              25
 Econv         1.000000000000000E-007
 Gconv         2.000000000000000E-004
 Maxdispl       1.00000000000000     
 Hlow          5.000000000000000E-003
 S6             20.0000000000000     
 Nvar               72

generating ANC from model Hessian ...
 Shifting diagonal of input Hessian by   5.001020269715800E-003
 Lowest  eigenvalues of input Hessian
    0.005000   -0.000000    0.000000    0.000000    0.000000    0.000000
    0.000000    0.005284    0.005545    0.005891    0.006512    0.006949
    0.007759    0.008276    0.008620    0.009668    0.012686    0.013399
 Highest eigenvalues
    1.571291    1.596191    1.608384    3.209153    3.407848    3.458324
 
cpu  time for ANC gen    0.02 s
wall time for ANC gen    0.02 s
................................................................................
.............................. CYCLE    1 ......................................
................................................................................
   1    -50.5778660 -0.505779E+02  0.689E-05    6.57       0.0  T
   2    -50.5778660 -0.153904E-10  0.515E-05    6.57     380.8  T
   3    -50.5778660 -0.102958E-10  0.253E-05    6.57     775.5  T
speedup  1.00
cpu  time for SCC    0.00 s
wall time for SCC    0.00 s
speedup  1.04
cpu  time for grad    0.01 s
wall time for grad    0.01 s
 E :    -50.29637552  G :  0.283687    pred/act E change:  0.000D+00  0.400D-07
Maxdispl :   0.1200   ||displ|| :   0.2693   Lambda : -0.532D-01
Largest |displ|/coords:  0.1200 (  55)  0.0744 (  40)  0.0696 (  52)
................................................................................
.............................. CYCLE    2 ......................................
................................................................................
   1    -50.5980574 -0.505981E+02  0.343E-01    6.70       0.0  T
   2    -50.5987283 -0.670900E-03  0.252E-01    6.83       1.0  T
   3    -50.5990049 -0.276664E-03  0.131E-01    7.01       1.0  T
   4    -50.5990188 -0.138399E-04  0.336E-02    7.07       1.0  T
   5    -50.5990212 -0.238045E-05  0.916E-03    7.05       2.1  T
   6    -50.5990213 -0.966516E-07  0.401E-03    7.05       4.9  T
   7    -50.5990213 -0.309458E-07  0.142E-03    7.05      13.8  T
speedup  0.95
cpu  time for SCC    0.01 s
wall time for SCC    0.01 s
speedup  0.99
cpu  time for grad    0.01 s
wall time for grad    0.01 s
 E :    -50.33871950  G :  0.179551    pred/act E change:  0.000D+00 -0.423D-01
Maxdispl :   0.1150   ||displ|| :   0.2884   Lambda : -0.275D-01
Largest |displ|/coords:  0.1150 (  26)  0.1018 (  55)  0.0871 (  23)
................................................................................
.............................. CYCLE    3 ......................................
................................................................................
   1    -50.6110487 -0.506110E+02  0.349E-01    7.15       0.0  T
   2    -50.6117870 -0.738273E-03  0.249E-01    7.31       1.0  T
   3    -50.6120888 -0.301808E-03  0.124E-01    7.54       1.0  T
   4    -50.6120986 -0.979912E-05  0.320E-02    7.59       1.0  T
   5    -50.6121007 -0.210733E-05  0.781E-03    7.57       2.5  T
   6    -50.6121008 -0.837293E-07  0.390E-03    7.58       5.0  T
   7    -50.6121008 -0.323772E-07  0.135E-03    7.57      14.6  T
speedup  0.92
cpu  time for SCC    0.01 s
wall time for SCC    0.01 s
speedup  0.98
cpu  time for grad    0.01 s
wall time for grad    0.01 s
 E :    -50.36152841  G :  0.118553    pred/act E change: -0.285D-01 -0.228D-01
Maxdispl :   0.1090   ||displ|| :   0.3167   Lambda : -0.167D-01
Largest |displ|/coords:  0.1090 (  26)  0.0923 (   7)  0.0908 (  12)
................................................................................
.............................. CYCLE    4 ......................................
................................................................................
   1    -50.6173868 -0.506174E+02  0.381E-01    7.60       0.0  T
   2    -50.6181332 -0.746395E-03  0.266E-01    7.78       1.0  T
   3    -50.6184456 -0.312386E-03  0.118E-01    8.04       1.0  T
   4    -50.6184585 -0.129576E-04  0.301E-02    8.07       1.0  T
   5    -50.6184606 -0.210491E-05  0.799E-03    8.06       2.5  T
   6    -50.6184607 -0.884051E-07  0.426E-03    8.06       4.6  T
   7    -50.6184608 -0.366133E-07  0.143E-03    8.06      13.7  T
speedup  0.97
cpu  time for SCC    0.01 s
wall time for SCC    0.01 s
speedup  0.99
cpu  time for grad    0.01 s
wall time for grad    0.01 s
 E :    -50.37545439  G :  0.082210    pred/act E change: -0.149D-01 -0.139D-01
Maxdispl :   0.1030   ||displ|| :   0.2918   Lambda : -0.104D-01
Largest |displ|/coords:  0.1030 (  15)  0.0858 (  12)  0.0839 (   6)
................................................................................
.............................. CYCLE    5 ......................................
................................................................................
   1    -50.6231070 -0.506231E+02  0.306E-01    8.05       0.0  T
   2    -50.6236180 -0.510971E-03  0.212E-01    8.19       1.0  T
   3    -50.6238352 -0.217215E-03  0.939E-02    8.39       1.0  T
   4    -50.6238446 -0.937467E-05  0.229E-02    8.41       1.0  T
   5    -50.6238457 -0.114192E-05  0.711E-03    8.41       2.8  T
   6    -50.6238458 -0.582915E-07  0.365E-03    8.41       5.4  T
   7    -50.6238458 -0.207042E-07  0.119E-03    8.41      16.5  T
speedup  0.91
cpu  time for SCC    0.01 s
wall time for SCC    0.01 s
speedup  0.97
cpu  time for grad    0.01 s
wall time for grad    0.01 s
 E :    -50.38423229  G :  0.062588    pred/act E change: -0.918D-02 -0.878D-02
Maxdispl :   0.0939   ||displ|| :   0.2610   Lambda : -0.686D-02
Largest |displ|/coords:  0.0939 (  16)  0.0860 (  15)  0.0752 (  14)
................................................................................
.............................. CYCLE    6 ......................................
................................................................................
   1    -50.6282885 -0.506283E+02  0.263E-01    8.39       0.0  T
   2    -50.6286126 -0.324086E-03  0.182E-01    8.50       1.0  T
   3    -50.6287542 -0.141554E-03  0.762E-02    8.61       1.0  T
   4    -50.6287627 -0.851510E-05  0.172E-02    8.62       1.1  T
   5    -50.6287633 -0.654475E-06  0.608E-03    8.62       3.2  T
   6    -50.6287634 -0.412809E-07  0.315E-03    8.62       6.2  T
   7    -50.6287634 -0.129363E-07  0.976E-04    8.62      20.1  T
speedup  0.97
cpu  time for SCC    0.01 s
wall time for SCC    0.01 s
speedup  0.99
cpu  time for grad    0.01 s
wall time for grad    0.01 s
 E :    -50.39010789  G :  0.051681    pred/act E change: -0.563D-02 -0.588D-02
Maxdispl :   0.0950   ||displ|| :   0.2220   Lambda : -0.502D-02
Largest |displ|/coords:  0.0950 (  14)  0.0733 (  15)  0.0684 (  16)
................................................................................
.............................. CYCLE    7 ......................................
................................................................................
   1    -50.6352389 -0.506352E+02  0.203E-01    8.58       0.0  T
   2    -50.6353895 -0.150659E-03  0.146E-01    8.58       1.0  T
   3    -50.6354565 -0.669348E-04  0.591E-02    8.59       1.0  T
   4    -50.6354629 -0.638399E-05  0.148E-02    8.60       1.3  T
   5    -50.6354634 -0.530045E-06  0.515E-03    8.60       3.8  T
   6    -50.6354634 -0.285792E-07  0.252E-03    8.60       7.8  T
speedup  1.09
cpu  time for SCC    0.01 s
wall time for SCC    0.01 s
speedup  0.97
cpu  time for grad    0.01 s
wall time for grad    0.01 s
 E :    -50.39438976  G :  0.044672    pred/act E change: -0.366D-02 -0.428D-02
Maxdispl :   0.2072   ||displ|| :   0.5614   Lambda : -0.132D-01
Largest |displ|/coords:  0.2072 (  16)  0.1837 (  69)  0.1397 (  49)
................................................................................
.............................. CYCLE    8 ......................................
................................................................................
   1    -50.6406629 -0.506407E+02  0.666E-01    8.48       0.0  T
   2    -50.6419309 -0.126805E-02  0.471E-01    8.49       1.0  T
   3    -50.6425355 -0.604601E-03  0.175E-01    8.51       1.0  T
   4    -50.6426021 -0.666235E-04  0.437E-02    8.54       1.0  T
   5    -50.6426053 -0.314649E-05  0.170E-02    8.54       1.2  T
   6    -50.6426060 -0.720619E-06  0.939E-03    8.54       2.1  T
   7    -50.6426061 -0.105391E-06  0.234E-03    8.54       8.4  T
   8    -50.6426061 -0.101865E-07  0.643E-04    8.54      30.5  T
speedup  0.97
cpu  time for SCC    0.01 s
wall time for SCC    0.01 s
speedup  0.99
cpu  time for grad    0.01 s
wall time for grad    0.02 s
 E :    -50.39689277  G :  0.095043    pred/act E change: -0.264D-02 -0.250D-02
Maxdispl :   0.2113   ||displ|| :   0.5473   Lambda : -0.268D-01
Largest |displ|/coords:  0.2113 (   7)  0.1711 (   2)  0.1694 (   9)
................................................................................
.............................. CYCLE    9 ......................................
................................................................................
   1    -50.6616126 -0.506616E+02  0.783E-01    8.52       0.0  T
   2    -50.6625069 -0.894290E-03  0.574E-01    8.54       1.0  T
   3    -50.6631044 -0.597559E-03  0.159E-01    8.57       1.0  T
   4    -50.6631813 -0.768305E-04  0.389E-02    8.57       1.0  T
   5    -50.6631842 -0.290886E-05  0.183E-02    8.57       1.1  T
   6    -50.6631843 -0.158225E-06  0.841E-03    8.57       2.3  T
   7    -50.6631846 -0.273930E-06  0.202E-03    8.57       9.7  T
   8    -50.6631846 -0.102952E-07  0.610E-04    8.57      32.2  T
speedup  0.97
cpu  time for SCC    0.01 s
wall time for SCC    0.01 s
speedup  0.99
cpu  time for grad    0.01 s
wall time for grad    0.02 s
 E :    -50.39769785  G :  0.131900    pred/act E change: -0.871D-02 -0.805D-03
Maxdispl :   0.1603   ||displ|| :   0.3571   Lambda : -0.185D-01
Largest |displ|/coords:  0.1603 (  14)  0.1272 (  22)  0.0990 (  21)
................................................................................
.............................. CYCLE   10 ......................................
................................................................................
   1    -50.6551982 -0.506552E+02  0.420E-01    8.60       0.0  T
   2    -50.6555846 -0.386352E-03  0.300E-01    8.63       1.0  T
   3    -50.6558133 -0.228723E-03  0.984E-02    8.68       1.0  T
   4    -50.6558414 -0.281102E-04  0.212E-02    8.69       1.0  T
   5    -50.6558419 -0.482275E-06  0.939E-03    8.69       2.1  T
   6    -50.6558421 -0.243029E-06  0.414E-03    8.69       4.7  T
   7    -50.6558422 -0.281069E-07  0.906E-04    8.69      21.7  T
speedup  1.11
cpu  time for SCC    0.01 s
wall time for SCC    0.01 s
speedup  1.06
cpu  time for grad    0.01 s
wall time for grad    0.01 s
 E :    -50.40574673  G :  0.055794    pred/act E change: -0.174D-01 -0.805D-02
Maxdispl :   0.0638   ||displ|| :   0.1801   Lambda : -0.469D-02
Largest |displ|/coords:  0.0638 (  28)  0.0586 (  49)  0.0477 (  14)
................................................................................
.............................. CYCLE   11 ......................................
................................................................................
   1    -50.6705442 -0.506705E+02  0.166E-01    8.77       0.0  T
   2    -50.6705977 -0.535140E-04  0.123E-01    8.77       1.0  T
   3    -50.6706275 -0.297331E-04  0.404E-02    8.77       1.0  T
   4    -50.6706320 -0.454198E-05  0.161E-02    8.77       1.2  T
   5    -50.6706325 -0.486764E-06  0.395E-03    8.77       5.0  T
   6    -50.6706325 -0.236743E-07  0.209E-03    8.77       9.4  T
speedup  1.07
cpu  time for SCC    0.01 s
wall time for SCC    0.01 s
speedup  1.03
cpu  time for grad    0.01 s
wall time for grad    0.01 s
 E :    -50.40875365  G :  0.046400    pred/act E change: -0.104D-01 -0.301D-02
Maxdispl :   0.1140   ||displ|| :   0.3400   Lambda : -0.601D-02
Largest |displ|/coords:  0.1140 (  14)  0.1130 (  26)  0.1002 (  28)
................................................................................
.............................. CYCLE   12 ......................................
................................................................................
   1    -50.6806911 -0.506807E+02  0.249E-01    8.82       0.0  T
   2    -50.6808171 -0.125943E-03  0.186E-01    8.81       1.0  T
   3    -50.6808962 -0.791133E-04  0.609E-02    8.79       1.0  T
   4    -50.6809092 -0.130305E-04  0.218E-02    8.78       1.0  T
   5    -50.6809102 -0.964675E-06  0.693E-03    8.78       2.8  T
   6    -50.6809102 -0.751507E-07  0.343E-03    8.78       5.7  T
   7    -50.6809102 -0.122574E-07  0.103E-03    8.78      19.0  T
speedup  0.95
cpu  time for SCC    0.01 s
wall time for SCC    0.01 s
speedup  0.99
cpu  time for grad    0.01 s
wall time for grad    0.01 s
 E :    -50.41307460  G :  0.054346    pred/act E change: -0.242D-02 -0.432D-02
Maxdispl :   0.1088   ||displ|| :   0.2527   Lambda : -0.481D-02
Largest |displ|/coords:  0.1088 (  22)  0.0820 (  49)  0.0756 (  69)
................................................................................
.............................. CYCLE   13 ......................................
................................................................................
   1    -50.6944578 -0.506945E+02  0.209E-01    8.81       0.0  T
   2    -50.6945632 -0.105428E-03  0.156E-01    8.80       1.0  T
   3    -50.6946282 -0.650483E-04  0.546E-02    8.78       1.0  T
   4    -50.6946377 -0.943908E-05  0.207E-02    8.77       1.0  T
   5    -50.6946385 -0.839976E-06  0.619E-03    8.77       3.2  T
   6    -50.6946386 -0.604138E-07  0.297E-03    8.77       6.6  T
   7    -50.6946386 -0.766386E-08  0.953E-04    8.77      20.6  T
speedup  1.09
cpu  time for SCC    0.01 s
wall time for SCC    0.01 s
speedup  1.06
cpu  time for grad    0.01 s
wall time for grad    0.01 s
 E :    -50.41619395  G :  0.047597    pred/act E change: -0.335D-02 -0.312D-02
Maxdispl :   0.1781   ||displ|| :   0.4015   Lambda : -0.626D-02
Largest |displ|/coords:  0.1781 (  26)  0.1271 (  22)  0.1078 (   3)
................................................................................
.............................. CYCLE   14 ......................................
................................................................................
   1    -50.7043904 -0.507044E+02  0.283E-01    8.85       0.0  T
   2    -50.7045739 -0.183533E-03  0.209E-01    8.81       1.0  T
   3    -50.7046791 -0.105163E-03  0.716E-02    8.71       1.0  T
   4    -50.7046945 -0.153957E-04  0.217E-02    8.70       1.0  T
   5    -50.7046956 -0.114300E-05  0.759E-03    8.70       2.6  T
   6    -50.7046957 -0.645295E-07  0.387E-03    8.70       5.1  T
   7    -50.7046957 -0.175278E-07  0.113E-03    8.70      17.4  T
speedup  1.09
cpu  time for SCC    0.01 s
wall time for SCC    0.01 s
speedup  0.99
cpu  time for grad    0.01 s
wall time for grad    0.01 s
 E :    -50.42011245  G :  0.041717    pred/act E change: -0.256D-02 -0.392D-02
Maxdispl :   0.1919   ||displ|| :   0.4025   Lambda : -0.487D-02
Largest |displ|/coords:  0.1919 (   4)  0.1731 (  26)  0.0884 (  14)
................................................................................
.............................. CYCLE   15 ......................................
................................................................................
   1    -50.7008883 -0.507009E+02  0.291E-01    8.71       0.0  T
   2    -50.7010440 -0.155718E-03  0.214E-01    8.67       1.0  T
   3    -50.7011334 -0.893723E-04  0.656E-02    8.57       1.0  T
   4    -50.7011477 -0.143407E-04  0.168E-02    8.58       1.2  T
   5    -50.7011484 -0.610095E-06  0.618E-03    8.58       3.2  T
   6    -50.7011484 -0.423642E-07  0.341E-03    8.58       5.7  T
   7    -50.7011484 -0.179298E-07  0.806E-04    8.58      24.3  T
speedup  0.95
cpu  time for SCC    0.01 s
wall time for SCC    0.01 s
speedup  0.99
cpu  time for grad    0.01 s
wall time for grad    0.01 s
 E :    -50.42119879  G :  0.050390    pred/act E change: -0.364D-02 -0.109D-02
Maxdispl :   0.1479   ||displ|| :   0.4186   Lambda : -0.772D-02
Largest |displ|/coords:  0.1479 (  10)  0.1447 (   3)  0.1397 (   4)
................................................................................
.............................. CYCLE   16 ......................................
................................................................................
   1    -50.7078010 -0.507078E+02  0.370E-01    8.55       0.0  T
   2    -50.7079492 -0.148204E-03  0.275E-01    8.57       1.0  T
   3    -50.7080528 -0.103544E-03  0.663E-02    8.62       1.0  T
   4    -50.7080698 -0.170814E-04  0.146E-02    8.62       1.3  T
   5    -50.7080701 -0.298661E-06  0.731E-03    8.62       2.7  T
   6    -50.7080702 -0.546156E-07  0.224E-03    8.62       8.7  T
   7    -50.7080702 -0.130670E-07  0.780E-04    8.62      25.2  T
speedup  0.94
cpu  time for SCC    0.01 s
wall time for SCC    0.01 s
speedup  0.99
cpu  time for grad    0.01 s
wall time for grad    0.01 s
 E :    -50.42196183  G :  0.062188    pred/act E change: -0.283D-02 -0.763D-03
Maxdispl :   0.1773   ||displ|| :   0.3215   Lambda : -0.616D-02
Largest |displ|/coords:  0.1773 (   4)  0.1618 (   5)  0.1068 (   8)
................................................................................
.............................. CYCLE   17 ......................................
................................................................................
   1    -50.7033304 -0.507033E+02  0.282E-01    8.63       0.0  T
   2    -50.7034763 -0.145880E-03  0.206E-01    8.61       1.0  T
   3    -50.7035723 -0.959784E-04  0.645E-02    8.55       1.0  T
   4    -50.7035861 -0.138955E-04  0.144E-02    8.55       1.4  T
   5    -50.7035865 -0.320025E-06  0.692E-03    8.55       2.8  T
   6    -50.7035865 -0.618633E-07  0.285E-03    8.55       6.9  T
   7    -50.7035865 -0.124908E-07  0.722E-04    8.55      27.2  T
speedup  1.11
cpu  time for SCC    0.01 s
wall time for SCC    0.01 s
speedup  1.05
cpu  time for grad    0.01 s
wall time for grad    0.01 s
 E :    -50.42375637  G :  0.036983    pred/act E change: -0.454D-02 -0.179D-02
Maxdispl :   0.0918   ||displ|| :   0.2138   Lambda : -0.259D-02
Largest |displ|/coords:  0.0918 (  10)  0.0878 (   3)  0.0728 (   8)
................................................................................
.............................. CYCLE   18 ......................................
................................................................................
   1    -50.7124094 -0.507124E+02  0.186E-01    8.60       0.0  T
   2    -50.7124470 -0.376008E-04  0.137E-01    8.59       1.0  T
   3    -50.7124712 -0.242569E-04  0.333E-02    8.56       1.0  T
   4    -50.7124753 -0.410911E-05  0.682E-03    8.56       2.9  T
   5    -50.7124754 -0.543572E-07  0.366E-03    8.56       5.4  T
   6    -50.7124754 -0.110989E-07  0.992E-04    8.56      19.8  T
speedup  1.09
cpu  time for SCC    0.01 s
wall time for SCC    0.01 s
speedup  0.98
cpu  time for grad    0.01 s
wall time for grad    0.01 s
 E :    -50.42453628  G :  0.033381    pred/act E change: -0.340D-02 -0.780D-03
Maxdispl :   0.0903   ||displ|| :   0.2294   Lambda : -0.250D-02
Largest |displ|/coords:  0.0903 (   3)  0.0842 (  16)  0.0813 (  17)
................................................................................
.............................. CYCLE   19 ......................................
................................................................................
   1    -50.7075011 -0.507075E+02  0.168E-01    8.55       0.0  T
   2    -50.7075241 -0.229916E-04  0.126E-01    8.56       1.0  T
   3    -50.7075411 -0.169638E-04  0.263E-02    8.58       1.0  T
   4    -50.7075440 -0.287127E-05  0.681E-03    8.58       2.9  T
   5    -50.7075440 -0.661735E-07  0.295E-03    8.58       6.6  T
   6    -50.7075440 -0.114957E-07  0.133E-03    8.58      14.7  T
speedup  0.91
cpu  time for SCC    0.01 s
wall time for SCC    0.01 s
speedup  0.98
cpu  time for grad    0.01 s
wall time for grad    0.01 s
 E :    -50.42559712  G :  0.026538    pred/act E change: -0.136D-02 -0.106D-02
Maxdispl :   0.0925   ||displ|| :   0.2111   Lambda : -0.150D-02
Largest |displ|/coords:  0.0925 (   3)  0.0624 (  10)  0.0616 (   5)
................................................................................
.............................. CYCLE   20 ......................................
................................................................................
   1    -50.7132387 -0.507132E+02  0.154E-01    8.61       0.0  T
   2    -50.7132596 -0.208910E-04  0.116E-01    8.60       1.0  T
   3    -50.7132733 -0.136184E-04  0.266E-02    8.56       1.0  T
   4    -50.7132758 -0.255424E-05  0.825E-03    8.55       2.4  T
   5    -50.7132760 -0.159129E-06  0.282E-03    8.56       7.0  T
   6    -50.7132760 -0.887475E-08  0.151E-03    8.56      13.0  T
speedup  0.93
cpu  time for SCC    0.00 s
wall time for SCC    0.01 s
speedup  0.96
cpu  time for grad    0.01 s
wall time for grad    0.01 s
 E :    -50.42644631  G :  0.022341    pred/act E change: -0.132D-02 -0.849D-03
Maxdispl :   0.1202   ||displ|| :   0.3221   Lambda : -0.165D-02
Largest |displ|/coords:  0.1202 (  26)  0.1123 (   3)  0.1098 (   4)
................................................................................
.............................. CYCLE   21 ......................................
................................................................................
   1    -50.7122445 -0.507122E+02  0.240E-01    8.59       0.0  T
   2    -50.7122755 -0.309490E-04  0.180E-01    8.58       1.0  T
   3    -50.7122951 -0.196145E-04  0.312E-02    8.56       1.0  T
   4    -50.7122995 -0.445297E-05  0.786E-03    8.56       2.5  T
   5    -50.7122997 -0.151724E-06  0.347E-03    8.56       5.7  T
   6    -50.7122997 -0.109665E-07  0.183E-03    8.56      10.7  T
speedup  0.93
cpu  time for SCC    0.00 s
wall time for SCC    0.01 s
speedup  0.99
cpu  time for grad    0.01 s
wall time for grad    0.01 s
 E :    -50.42740685  G :  0.020570    pred/act E change: -0.782D-03 -0.961D-03
Maxdispl :   0.1311   ||displ|| :   0.2799   Lambda : -0.103D-02
Largest |displ|/coords:  0.1311 (   1)  0.0900 (   3)  0.0787 (  10)
................................................................................
.............................. CYCLE   22 ......................................
................................................................................
   1    -50.7117259 -0.507117E+02  0.214E-01    8.60       0.0  T
   2    -50.7117371 -0.111175E-04  0.161E-01    8.60       1.0  T
   3    -50.7117429 -0.584088E-05  0.204E-02    8.59       1.0  T
   4    -50.7117447 -0.181124E-05  0.645E-03    8.59       3.0  T
   5    -50.7117448 -0.106332E-06  0.194E-03    8.59      10.1  T
   6    -50.7117448 -0.165100E-08  0.111E-03    8.59      17.6  T
speedup  0.89
cpu  time for SCC    0.00 s
wall time for SCC    0.01 s
speedup  0.98
cpu  time for grad    0.01 s
wall time for grad    0.01 s
 E :    -50.42795715  G :  0.022126    pred/act E change: -0.913D-03 -0.550D-03
Maxdispl :   0.1076   ||displ|| :   0.2699   Lambda : -0.964D-03
Largest |displ|/coords:  0.1076 (  10)  0.0894 (   1)  0.0888 (   3)
................................................................................
.............................. CYCLE   23 ......................................
................................................................................
   1    -50.7135125 -0.507135E+02  0.220E-01    8.61       0.0  T
   2    -50.7135217 -0.922096E-05  0.166E-01    8.62       1.0  T
   3    -50.7135285 -0.678532E-05  0.167E-02    8.62       1.2  T
   4    -50.7135298 -0.137785E-05  0.619E-03    8.62       3.2  T
   5    -50.7135299 -0.535660E-07  0.205E-03    8.62       9.6  T
   6    -50.7135299 -0.212371E-08  0.108E-03    8.62      18.2  T
speedup  0.91
cpu  time for SCC    0.00 s
wall time for SCC    0.01 s
speedup  0.98
cpu  time for grad    0.01 s
wall time for grad    0.01 s
 E :    -50.42862996  G :  0.016638    pred/act E change: -0.553D-03 -0.673D-03
Maxdispl :   0.1157   ||displ|| :   0.2949   Lambda : -0.101D-02
Largest |displ|/coords:  0.1157 (   1)  0.1021 (  10)  0.0890 (   2)
................................................................................
.............................. CYCLE   24 ......................................
................................................................................
   1    -50.7163162 -0.507163E+02  0.253E-01    8.64       0.0  T
   2    -50.7163264 -0.102557E-04  0.190E-01    8.65       1.0  T
   3    -50.7163337 -0.724345E-05  0.186E-02    8.66       1.1  T
   4    -50.7163352 -0.151896E-05  0.708E-03    8.65       2.8  T
   5    -50.7163353 -0.660646E-07  0.226E-03    8.65       8.7  T
   6    -50.7163353 -0.295460E-08  0.115E-03    8.65      17.0  T
speedup  1.11
cpu  time for SCC    0.01 s
wall time for SCC    0.01 s
speedup  1.04
cpu  time for grad    0.01 s
wall time for grad    0.01 s
 E :    -50.42929224  G :  0.016005    pred/act E change: -0.517D-03 -0.662D-03
Maxdispl :   0.1233   ||displ|| :   0.3262   Lambda : -0.628D-03
Largest |displ|/coords:  0.1233 (   3)  0.1156 (  10)  0.1112 (   1)
................................................................................
.............................. CYCLE   25 ......................................
................................................................................
   1    -50.7149392 -0.507149E+02  0.257E-01    8.66       0.0  T
   2    -50.7149472 -0.796278E-05  0.194E-01    8.66       1.0  T
   3    -50.7149549 -0.766674E-05  0.142E-02    8.67       1.4  T
   4    -50.7149557 -0.878704E-06  0.562E-03    8.67       3.5  T
   5    -50.7149558 -0.380141E-07  0.222E-03    8.67       8.8  T
   6    -50.7149558 -0.436627E-08  0.112E-03    8.67      17.6  T
speedup  1.11
cpu  time for SCC    0.01 s
wall time for SCC    0.01 s
speedup  1.05
cpu  time for grad    0.01 s
wall time for grad    0.01 s
 E :    -50.42972237  G :  0.019571    pred/act E change: -0.550D-03 -0.430D-03
Maxdispl :   0.1047   ||displ|| :   0.2630   Lambda : -0.865D-03
Largest |displ|/coords:  0.1047 (   3)  0.0951 (  10)  0.0797 (   4)

generating ANC from model Hessian ...
 Shifting diagonal of input Hessian by   5.010518415721887E-003
 Lowest  eigenvalues of input Hessian
    0.005000   -0.000000   -0.000000    0.000000    0.000000    0.000000
    0.000000    0.005226    0.005388    0.005703    0.005757    0.006085
    0.006292    0.007015    0.008001    0.008766    0.008982    0.010127
 Highest eigenvalues
    1.443487    1.450448    1.455415    2.426129    3.357727    3.696576
 
cpu  time for ANC gen    0.02 s
wall time for ANC gen    0.02 s
................................................................................
.............................. CYCLE   26 ......................................
................................................................................
   1    -50.7218669 -0.507219E+02  0.187E-01    8.73       0.0  T
   2    -50.7218769 -0.994293E-05  0.141E-01    8.73       1.0  T
   3    -50.7218838 -0.689098E-05  0.181E-02    8.74       1.1  T
   4    -50.7218851 -0.133423E-05  0.606E-03    8.74       3.2  T
   5    -50.7218852 -0.812755E-07  0.208E-03    8.74       9.4  T
   6    -50.7218852 -0.241392E-08  0.121E-03    8.74      16.3  T
   7    -50.7218852 -0.230503E-08  0.229E-04    8.74      85.7  T
   8    -50.7218852 -0.150450E-09  0.804E-05    8.74     243.8  T
speedup  1.11
cpu  time for SCC    0.01 s
wall time for SCC    0.01 s
speedup  1.03
cpu  time for grad    0.02 s
wall time for grad    0.02 s
 E :    -50.43013989  G :  0.018317    pred/act E change:  0.000D+00 -0.418D-03
Maxdispl :   0.2511   ||displ|| :   0.3857   Lambda : -0.181D-02
Largest |displ|/coords:  0.2511 (   7)  0.1355 (   4)  0.1279 (   3)
................................................................................
.............................. CYCLE   27 ......................................
................................................................................
   1    -50.7145253 -0.507145E+02  0.610E-01    8.80       0.0  T
   2    -50.7145914 -0.661737E-04  0.464E-01    8.80       1.0  T
   3    -50.7146592 -0.677895E-04  0.412E-02    8.80       1.0  T
   4    -50.7146653 -0.602981E-05  0.122E-02    8.80       1.6  T
   5    -50.7146655 -0.213662E-06  0.469E-03    8.80       4.2  T
   6    -50.7146655 -0.128734E-07  0.237E-03    8.80       8.3  T
   7    -50.7146655 -0.181126E-07  0.437E-04    8.80      44.9  T
speedup  0.94
cpu  time for SCC    0.01 s
wall time for SCC    0.01 s
speedup  0.99
cpu  time for grad    0.01 s
wall time for grad    0.01 s
 E :    -50.43033973  G :  0.041343    pred/act E change:  0.000D+00 -0.200D-03
Maxdispl :   0.1415   ||displ|| :   0.2356   Lambda : -0.315D-02
Largest |displ|/coords:  0.1415 (   7)  0.0987 (  12)  0.0733 (   3)
................................................................................
.............................. CYCLE   28 ......................................
................................................................................
   1    -50.7214513 -0.507215E+02  0.396E-01    8.81       0.0  T
   2    -50.7215141 -0.628158E-04  0.300E-01    8.80       1.0  T
   3    -50.7215573 -0.432044E-04  0.463E-02    8.80       1.0  T
   4    -50.7215668 -0.944510E-05  0.977E-03    8.80       2.0  T
   5    -50.7215671 -0.293648E-06  0.418E-03    8.80       4.7  T
   6    -50.7215671 -0.609685E-08  0.226E-03    8.80       8.7  T
speedup  1.11
cpu  time for SCC    0.01 s
wall time for SCC    0.01 s
speedup  1.06
cpu  time for grad    0.01 s
wall time for grad    0.01 s
 E :    -50.43120707  G :  0.007373    pred/act E change: -0.104D-02 -0.867D-03
Maxdispl :   0.0928   ||displ|| :   0.1835   Lambda : -0.504D-03
Largest |displ|/coords:  0.0928 (   7)  0.0924 (   4)  0.0660 (  14)
................................................................................
.............................. CYCLE   29 ......................................
................................................................................
   1    -50.7208400 -0.507208E+02  0.164E-01    8.83       0.0  T
   2    -50.7208429 -0.295758E-05  0.124E-01    8.83       1.0  T
   3    -50.7208457 -0.280498E-05  0.944E-03    8.82       2.1  T
   4    -50.7208461 -0.331677E-06  0.323E-03    8.82       6.1  T
   5    -50.7208461 -0.107983E-07  0.135E-03    8.82      14.5  T
   6    -50.7208461 -0.177170E-08  0.635E-04    8.82      30.9  T
speedup  1.07
cpu  time for SCC    0.01 s
wall time for SCC    0.01 s
speedup  1.04
cpu  time for grad    0.01 s
wall time for grad    0.01 s
 E :    -50.43166052  G :  0.008570    pred/act E change: -0.166D-02 -0.453D-03
Maxdispl :   0.2815   ||displ|| :   0.6019   Lambda : -0.161D-02
Largest |displ|/coords:  0.2815 (   4)  0.2796 (   7)  0.2482 (  15)
................................................................................
.............................. CYCLE   30 ......................................
................................................................................
   1    -50.7113554 -0.507114E+02  0.577E-01    8.89       0.0  T
   2    -50.7114321 -0.767310E-04  0.435E-01    8.88       1.0  T
   3    -50.7114950 -0.629180E-04  0.487E-02    8.86       1.0  T
   4    -50.7115053 -0.103061E-04  0.123E-02    8.87       1.6  T
   5    -50.7115055 -0.144769E-06  0.632E-03    8.87       3.1  T
   6    -50.7115055 -0.608405E-07  0.261E-03    8.87       7.5  T
   7    -50.7115055 -0.188847E-07  0.562E-04    8.87      34.9  T
speedup  1.11
cpu  time for SCC    0.01 s
wall time for SCC    0.01 s
speedup  1.06
cpu  time for grad    0.01 s
wall time for grad    0.01 s
 E :    -50.43089919  G :  0.058373    pred/act E change: -0.260D-03  0.761D-03
Maxdispl :   0.1984   ||displ|| :   0.3752   Lambda : -0.654D-02
Largest |displ|/coords:  0.1984 (   4)  0.1513 (   3)  0.1489 (   7)
................................................................................
.............................. CYCLE   31 ......................................
................................................................................
   1    -50.7226720 -0.507227E+02  0.533E-01    8.87       0.0  T
   2    -50.7227961 -0.124038E-03  0.403E-01    8.87       1.0  T
   3    -50.7228905 -0.944699E-04  0.624E-02    8.88       1.0  T
   4    -50.7229074 -0.169153E-04  0.123E-02    8.88       1.6  T
   5    -50.7229076 -0.173484E-06  0.741E-03    8.88       2.6  T
   6    -50.7229077 -0.512122E-07  0.226E-03    8.88       8.7  T
   7    -50.7229077 -0.131726E-07  0.644E-04    8.88      30.5  T
speedup  1.11
cpu  time for SCC    0.01 s
wall time for SCC    0.01 s
speedup  0.99
cpu  time for grad    0.01 s
wall time for grad    0.01 s
 E :    -50.43170561  G :  0.024550    pred/act E change: -0.110D-02 -0.806D-03
Maxdispl :   0.0837   ||displ|| :   0.1736   Lambda : -0.123D-02
Largest |displ|/coords:  0.0837 (  15)  0.0788 (  10)  0.0531 (   9)
................................................................................
.............................. CYCLE   32 ......................................
................................................................................
   1    -50.7230056 -0.507230E+02  0.194E-01    8.90       0.0  T
   2    -50.7230146 -0.899922E-05  0.148E-01    8.90       1.0  T
   3    -50.7230241 -0.946772E-05  0.144E-02    8.89       1.4  T
   4    -50.7230249 -0.854723E-06  0.460E-03    8.89       4.3  T
   5    -50.7230250 -0.253014E-07  0.182E-03    8.89      10.8  T
speedup  1.11
cpu  time for SCC    0.00 s
wall time for SCC    0.00 s
speedup  0.97
cpu  time for grad    0.01 s
wall time for grad    0.01 s
 E :    -50.43259878  G :  0.007220    pred/act E change: -0.373D-02 -0.893D-03
Maxdispl :   0.1753   ||displ|| :   0.3373   Lambda : -0.932D-03
Largest |displ|/coords:  0.1753 (  15)  0.1432 (   4)  0.1098 (  14)
................................................................................
.............................. CYCLE   33 ......................................
................................................................................
   1    -50.7187151 -0.507187E+02  0.290E-01    8.90       0.0  T
   2    -50.7187368 -0.217108E-04  0.219E-01    8.89       1.0  T
   3    -50.7187556 -0.187265E-04  0.261E-02    8.88       1.0  T
   4    -50.7187583 -0.268842E-05  0.632E-03    8.88       3.1  T
   5    -50.7187583 -0.444894E-07  0.331E-03    8.88       5.9  T
   6    -50.7187583 -0.174738E-07  0.130E-03    8.88      15.1  T
   7    -50.7187583 -0.472024E-08  0.400E-04    8.88      49.1  T
speedup  0.94
cpu  time for SCC    0.01 s
wall time for SCC    0.01 s
speedup  0.98
cpu  time for grad    0.01 s
wall time for grad    0.01 s
 E :    -50.43293200  G :  0.028515    pred/act E change: -0.634D-03 -0.333D-03
Maxdispl :   0.0379   ||displ|| :   0.0821   Lambda : -0.460D-03
Largest |displ|/coords:  0.0379 (  14)  0.0320 (   6)  0.0292 (  15)
................................................................................
.............................. CYCLE   34 ......................................
................................................................................
   1    -50.7211026 -0.507211E+02  0.718E-02    8.89       0.0  T
   2    -50.7211053 -0.270117E-05  0.538E-02    8.89       1.0  T
   3    -50.7211072 -0.186042E-05  0.100E-02    8.89       2.0  T
   4    -50.7211075 -0.337388E-06  0.257E-03    8.89       7.6  T
   5    -50.7211075 -0.161304E-07  0.972E-04    8.89      20.2  T
speedup  1.09
cpu  time for SCC    0.00 s
wall time for SCC    0.00 s
speedup  0.96
cpu  time for grad    0.01 s
wall time for grad    0.01 s
 E :    -50.43327970  G :  0.017224    pred/act E change: -0.519D-03 -0.348D-03
Maxdispl :   0.1952   ||displ|| :   0.3905   Lambda : -0.827D-03
Largest |displ|/coords:  0.1952 (  15)  0.1830 (  14)  0.1354 (   4)
................................................................................
.............................. CYCLE   35 ......................................
................................................................................
   1    -50.7242108 -0.507242E+02  0.194E-01    8.91       0.0  T
   2    -50.7242181 -0.729558E-05  0.144E-01    8.91       1.0  T
   3    -50.7242246 -0.644401E-05  0.197E-02    8.90       1.0  T
   4    -50.7242254 -0.875279E-06  0.671E-03    8.90       2.9  T
   5    -50.7242255 -0.678463E-07  0.225E-03    8.90       8.7  T
   6    -50.7242255 -0.624689E-08  0.129E-03    8.90      15.2  T
speedup  1.11
cpu  time for SCC    0.01 s
wall time for SCC    0.01 s
speedup  0.97
cpu  time for grad    0.01 s
wall time for grad    0.01 s
 E :    -50.43394342  G :  0.009813    pred/act E change: -0.232D-03 -0.664D-03
Maxdispl :   0.2892   ||displ|| :   0.5825   Lambda : -0.994D-03
Largest |displ|/coords:  0.2892 (  15)  0.2505 (  14)  0.2375 (   4)
................................................................................
.............................. CYCLE   36 ......................................
................................................................................
   1    -50.7267477 -0.507267E+02  0.292E-01    8.91       0.0  T
   2    -50.7267608 -0.130122E-04  0.219E-01    8.91       1.0  T
   3    -50.7267739 -0.131479E-04  0.256E-02    8.89       1.0  T
   4    -50.7267753 -0.138420E-05  0.968E-03    8.90       2.0  T
   5    -50.7267754 -0.113862E-06  0.318E-03    8.90       6.2  T
   6    -50.7267754 -0.130349E-07  0.176E-03    8.90      11.2  T
   7    -50.7267754 -0.560031E-08  0.443E-04    8.90      44.3  T
speedup  1.06
cpu  time for SCC    0.01 s
wall time for SCC    0.01 s
speedup  1.03
cpu  time for grad    0.01 s
wall time for grad    0.01 s
 E :    -50.43474826  G :  0.011701    pred/act E change: -0.477D-03 -0.805D-03
Maxdispl :   0.2619   ||displ|| :   0.5504   Lambda : -0.108D-02
Largest |displ|/coords:  0.2619 (   4)  0.2549 (  15)  0.1957 (  14)
................................................................................
.............................. CYCLE   37 ......................................
................................................................................
   1    -50.7315013 -0.507315E+02  0.298E-01    9.05       0.0  T
   2    -50.7315170 -0.157094E-04  0.225E-01    9.04       1.0  T
   3    -50.7315342 -0.172205E-04  0.246E-02    9.02       1.0  T
   4    -50.7315356 -0.135313E-05  0.782E-03    9.02       2.5  T
   5    -50.7315357 -0.775611E-07  0.355E-03    9.02       5.5  T
   6    -50.7315357 -0.203768E-07  0.159E-03    9.02      12.3  T
   7    -50.7315357 -0.632345E-08  0.456E-04    9.02      43.0  T
speedup  0.94
cpu  time for SCC    0.01 s
wall time for SCC    0.01 s
speedup  0.97
cpu  time for grad    0.01 s
wall time for grad    0.01 s
 E :    -50.43543103  G :  0.014965    pred/act E change: -0.665D-03 -0.683D-03
Maxdispl :   0.0964   ||displ|| :   0.1934   Lambda : -0.370D-03
Largest |displ|/coords:  0.0964 (   4)  0.0911 (  15)  0.0601 (  22)
................................................................................
.............................. CYCLE   38 ......................................
................................................................................
   1    -50.7330560 -0.507331E+02  0.132E-01    9.09       0.0  T
   2    -50.7330599 -0.388276E-05  0.995E-02    9.09       1.0  T
   3    -50.7330632 -0.329725E-05  0.137E-02    9.08       1.4  T
   4    -50.7330637 -0.502117E-06  0.402E-03    9.08       4.9  T
   5    -50.7330637 -0.199110E-07  0.141E-03    9.08      13.9  T
   6    -50.7330637 -0.213687E-08  0.742E-04    9.08      26.4  T
speedup  0.93
cpu  time for SCC    0.00 s
wall time for SCC    0.01 s
speedup  0.96
cpu  time for grad    0.01 s
wall time for grad    0.01 s
 E :    -50.43569229  G :  0.014690    pred/act E change: -0.704D-03 -0.261D-03
Maxdispl :   0.1047   ||displ|| :   0.2231   Lambda : -0.525D-03
Largest |displ|/coords:  0.1047 (   4)  0.0720 (  15)  0.0637 (   9)
................................................................................
.............................. CYCLE   39 ......................................
................................................................................
   1    -50.7384153 -0.507384E+02  0.169E-01    9.19       0.0  T
   2    -50.7384234 -0.807451E-05  0.127E-01    9.18       1.0  T
   3    -50.7384282 -0.485771E-05  0.208E-02    9.16       1.0  T
   4    -50.7384295 -0.122878E-05  0.686E-03    9.16       2.9  T
   5    -50.7384295 -0.456617E-07  0.183E-03    9.17      10.7  T
   6    -50.7384295 -0.429344E-08  0.105E-03    9.17      18.6  T
speedup  0.91
cpu  time for SCC    0.00 s
wall time for SCC    0.01 s
speedup  0.96
cpu  time for grad    0.01 s
wall time for grad    0.01 s
 E :    -50.43596551  G :  0.015006    pred/act E change: -0.192D-03 -0.273D-03
Maxdispl :   0.1887   ||displ|| :   0.4069   Lambda : -0.698D-03
Largest |displ|/coords:  0.1887 (   4)  0.1842 (  15)  0.1073 (  14)
................................................................................
.............................. CYCLE   40 ......................................
................................................................................
   1    -50.7311640 -0.507312E+02  0.299E-01    9.09       0.0  T
   2    -50.7311885 -0.244281E-04  0.223E-01    9.08       1.0  T
   3    -50.7312011 -0.125911E-04  0.344E-02    9.07       1.0  T
   4    -50.7312051 -0.404342E-05  0.125E-02    9.08       1.6  T
   5    -50.7312053 -0.222781E-06  0.316E-03    9.08       6.2  T
   6    -50.7312053 -0.893731E-08  0.196E-03    9.08      10.0  T
   7    -50.7312053 -0.631276E-08  0.543E-04    9.08      36.1  T
speedup  1.11
cpu  time for SCC    0.01 s
wall time for SCC    0.01 s
speedup  1.04
cpu  time for grad    0.01 s
wall time for grad    0.01 s
 E :    -50.43623350  G :  0.019887    pred/act E change: -0.276D-03 -0.268D-03
Maxdispl :   0.0776   ||displ|| :   0.1687   Lambda : -0.602D-03
Largest |displ|/coords:  0.0776 (   3)  0.0713 (   6)  0.0497 (  12)
................................................................................
.............................. CYCLE   41 ......................................
................................................................................
   1    -50.7357532 -0.507358E+02  0.927E-02    9.11       0.0  T
   2    -50.7357581 -0.493964E-05  0.692E-02    9.11       1.0  T
   3    -50.7357616 -0.349955E-05  0.140E-02    9.11       1.4  T
   4    -50.7357622 -0.570536E-06  0.466E-03    9.11       4.2  T
   5    -50.7357623 -0.421383E-07  0.144E-03    9.11      13.6  T
   6    -50.7357623 -0.241596E-08  0.786E-04    9.11      25.0  T
speedup  1.11
cpu  time for SCC    0.01 s
wall time for SCC    0.01 s
speedup  1.04
cpu  time for grad    0.01 s
wall time for grad    0.01 s
 E :    -50.43653864  G :  0.014969    pred/act E change: -0.407D-03 -0.305D-03
Maxdispl :   0.1013   ||displ|| :   0.2709   Lambda : -0.754D-03
Largest |displ|/coords:  0.1013 (   4)  0.0909 (  14)  0.0844 (  18)
................................................................................
.............................. CYCLE   42 ......................................
................................................................................
   1    -50.7369860 -0.507370E+02  0.216E-01    9.07       0.0  T
   2    -50.7369981 -0.121241E-04  0.162E-01    9.07       1.0  T
   3    -50.7370059 -0.778304E-05  0.218E-02    9.07       1.0  T
   4    -50.7370078 -0.184923E-05  0.760E-03    9.07       2.6  T
   5    -50.7370079 -0.918636E-07  0.257E-03    9.07       7.6  T
   6    -50.7370079 -0.637298E-08  0.141E-03    9.07      13.9  T
speedup  0.93
cpu  time for SCC    0.00 s
wall time for SCC    0.01 s
speedup  0.95
cpu  time for grad    0.01 s
wall time for grad    0.01 s
 E :    -50.43680461  G :  0.019020    pred/act E change: -0.310D-03 -0.266D-03
Maxdispl :   0.1462   ||displ|| :   0.3321   Lambda : -0.884D-03
Largest |displ|/coords:  0.1462 (  18)  0.1155 (   8)  0.1122 (   4)
................................................................................
.............................. CYCLE   43 ......................................
................................................................................
   1    -50.7353980 -0.507354E+02  0.259E-01    9.15       0.0  T
   2    -50.7354107 -0.126378E-04  0.194E-01    9.15       1.0  T
   3    -50.7354189 -0.819939E-05  0.246E-02    9.15       1.0  T
   4    -50.7354208 -0.192639E-05  0.652E-03    9.15       3.0  T
   5    -50.7354209 -0.844717E-07  0.271E-03    9.15       7.2  T
   6    -50.7354209 -0.644219E-08  0.139E-03    9.15      14.1  T
speedup  1.09
cpu  time for SCC    0.01 s
wall time for SCC    0.01 s
speedup  1.03
cpu  time for grad    0.01 s
wall time for grad    0.01 s
 E :    -50.43719091  G :  0.021319    pred/act E change: -0.404D-03 -0.386D-03
Maxdispl :   0.0890   ||displ|| :   0.2652   Lambda : -0.942D-03
Largest |displ|/coords:  0.0890 (   9)  0.0862 (  18)  0.0829 (  15)
................................................................................
.............................. CYCLE   44 ......................................
................................................................................
   1    -50.7323462 -0.507323E+02  0.208E-01    9.07       0.0  T
   2    -50.7323550 -0.882412E-05  0.155E-01    9.07       1.0  T
   3    -50.7323611 -0.611295E-05  0.229E-02    9.08       1.0  T
   4    -50.7323622 -0.112266E-05  0.580E-03    9.08       3.4  T
   5    -50.7323623 -0.476066E-07  0.188E-03    9.08      10.4  T
speedup  0.87
cpu  time for SCC    0.00 s
wall time for SCC    0.00 s
speedup  0.94
cpu  time for grad    0.01 s
wall time for grad    0.01 s
 E :    -50.43759311  G :  0.022231    pred/act E change: -0.491D-03 -0.402D-03
Maxdispl :   0.0902   ||displ|| :   0.1918   Lambda : -0.813D-03
Largest |displ|/coords:  0.0902 (   1)  0.0707 (   5)  0.0636 (   6)
................................................................................
.............................. CYCLE   45 ......................................
................................................................................
   1    -50.7383953 -0.507384E+02  0.937E-02    9.10       0.0  T
   2    -50.7384019 -0.660871E-05  0.690E-02    9.10       1.0  T
   3    -50.7384059 -0.401177E-05  0.163E-02    9.11       1.2  T
   4    -50.7384066 -0.723107E-06  0.430E-03    9.11       4.6  T
   5    -50.7384067 -0.370363E-07  0.150E-03    9.11      13.1  T
speedup  1.06
cpu  time for SCC    0.00 s
wall time for SCC    0.00 s
speedup  1.02
cpu  time for grad    0.01 s
wall time for grad    0.01 s
 E :    -50.43799776  G :  0.016064    pred/act E change: -0.504D-03 -0.405D-03
Maxdispl :   0.1815   ||displ|| :   0.5255   Lambda : -0.168D-02
Largest |displ|/coords:  0.1815 (  20)  0.1744 (   4)  0.1563 (   6)
................................................................................
.............................. CYCLE   46 ......................................
................................................................................
   1    -50.7333766 -0.507334E+02  0.371E-01    9.18       0.0  T
   2    -50.7334190 -0.423115E-04  0.278E-01    9.18       1.0  T
   3    -50.7334556 -0.366547E-04  0.423E-02    9.17       1.0  T
   4    -50.7334606 -0.497385E-05  0.145E-02    9.17       1.4  T
   5    -50.7334609 -0.346929E-06  0.511E-03    9.17       3.8  T
   6    -50.7334610 -0.277456E-07  0.274E-03    9.17       7.2  T
   7    -50.7334610 -0.188995E-07  0.750E-04    9.17      26.2  T
speedup  1.11
cpu  time for SCC    0.01 s
wall time for SCC    0.01 s
speedup  1.04
cpu  time for grad    0.01 s
wall time for grad    0.01 s
 E :    -50.43820991  G :  0.040254    pred/act E change: -0.421D-03 -0.212D-03
Maxdispl :   0.1077   ||displ|| :   0.2584   Lambda : -0.206D-02
Largest |displ|/coords:  0.1077 (  18)  0.0794 (   5)  0.0739 (  19)
................................................................................
.............................. CYCLE   47 ......................................
................................................................................
   1    -50.7327119 -0.507327E+02  0.188E-01    9.13       0.0  T
   2    -50.7327283 -0.164031E-04  0.140E-01    9.13       1.0  T
   3    -50.7327375 -0.925547E-05  0.256E-02    9.14       1.0  T
   4    -50.7327397 -0.221319E-05  0.761E-03    9.14       2.6  T
   5    -50.7327399 -0.129971E-06  0.265E-03    9.14       7.4  T
   6    -50.7327399 -0.595518E-08  0.144E-03    9.14      13.6  T
speedup  0.93
cpu  time for SCC    0.00 s
wall time for SCC    0.01 s
speedup  0.97
cpu  time for grad    0.01 s
wall time for grad    0.01 s
 E :    -50.43949941  G :  0.029267    pred/act E change: -0.107D-02 -0.129D-02
Maxdispl :   0.2137   ||displ|| :   0.4000   Lambda : -0.234D-02
Largest |displ|/coords:  0.2137 (   1)  0.1351 (   3)  0.1026 (  30)
................................................................................
.............................. CYCLE   48 ......................................
................................................................................
   1    -50.7437514 -0.507438E+02  0.254E-01    9.19       0.0  T
   2    -50.7437819 -0.305186E-04  0.191E-01    9.20       1.0  T
   3    -50.7438054 -0.234985E-04  0.326E-02    9.21       1.0  T
   4    -50.7438087 -0.325842E-05  0.101E-02    9.21       2.0  T
   5    -50.7438089 -0.192712E-06  0.324E-03    9.21       6.1  T
   6    -50.7438089 -0.102967E-07  0.187E-03    9.21      10.5  T
speedup  0.93
cpu  time for SCC    0.00 s
wall time for SCC    0.01 s
speedup  0.96
cpu  time for grad    0.01 s
wall time for grad    0.01 s
 E :    -50.43972868  G :  0.039308    pred/act E change: -0.110D-02 -0.229D-03
Maxdispl :   0.1822   ||displ|| :   0.4672   Lambda : -0.302D-02
Largest |displ|/coords:  0.1822 (   1)  0.1699 (  20)  0.1425 (  18)
................................................................................
.............................. CYCLE   49 ......................................
................................................................................
   1    -50.7338729 -0.507339E+02  0.304E-01    9.11       0.0  T
   2    -50.7339049 -0.320582E-04  0.228E-01    9.11       1.0  T
   3    -50.7339313 -0.264080E-04  0.350E-02    9.11       1.0  T
   4    -50.7339354 -0.406498E-05  0.117E-02    9.12       1.7  T
   5    -50.7339356 -0.234866E-06  0.411E-03    9.11       4.8  T
   6    -50.7339357 -0.185415E-07  0.235E-03    9.11       8.3  T
speedup  1.07
cpu  time for SCC    0.01 s
wall time for SCC    0.01 s
speedup  1.03
cpu  time for grad    0.01 s
wall time for grad    0.01 s
 E :    -50.44181820  G :  0.032691    pred/act E change: -0.136D-02 -0.209D-02
Maxdispl :   0.2159   ||displ|| :   0.4489   Lambda : -0.271D-02
Largest |displ|/coords:  0.2159 (   1)  0.1711 (  20)  0.1502 (   6)
................................................................................
.............................. CYCLE   50 ......................................
................................................................................
   1    -50.7310131 -0.507310E+02  0.289E-01    9.08       0.0  T
   2    -50.7310698 -0.567849E-04  0.215E-01    9.08       1.0  T
   3    -50.7311037 -0.338584E-04  0.523E-02    9.09       1.0  T
   4    -50.7311107 -0.703680E-05  0.156E-02    9.09       1.3  T
   5    -50.7311113 -0.566295E-06  0.524E-03    9.09       3.7  T
   6    -50.7311113 -0.317439E-07  0.280E-03    9.09       7.0  T
speedup  1.09
cpu  time for SCC    0.01 s
wall time for SCC    0.01 s
speedup  1.03
cpu  time for grad    0.01 s
wall time for grad    0.01 s
 E :    -50.44286139  G :  0.040829    pred/act E change: -0.184D-02 -0.104D-02
Maxdispl :   0.3242   ||displ|| :   0.4918   Lambda : -0.291D-02
Largest |displ|/coords:  0.3242 (   1)  0.1281 (   5)  0.1066 (  18)
................................................................................
.............................. CYCLE   51 ......................................
................................................................................
   1    -50.7313966 -0.507314E+02  0.256E-01    9.03       0.0  T
   2    -50.7314337 -0.371154E-04  0.191E-01    9.04       1.0  T
   3    -50.7314573 -0.235858E-04  0.362E-02    9.04       1.0  T
   4    -50.7314621 -0.484605E-05  0.107E-02    9.04       1.8  T
   5    -50.7314623 -0.219091E-06  0.393E-03    9.04       5.0  T
   6    -50.7314623 -0.146349E-07  0.208E-03    9.04       9.4  T
speedup  0.93
cpu  time for SCC    0.00 s
wall time for SCC    0.01 s
speedup  0.96
cpu  time for grad    0.01 s
wall time for grad    0.01 s
 E :    -50.44422007  G :  0.047138    pred/act E change: -0.163D-02 -0.136D-02
Maxdispl :   0.1954   ||displ|| :   0.3417   Lambda : -0.287D-02
Largest |displ|/coords:  0.1954 (   1)  0.1145 (  18)  0.0899 (  11)
................................................................................
.............................. CYCLE   52 ......................................
................................................................................
   1    -50.7376756 -0.507377E+02  0.193E-01    9.09       0.0  T
   2    -50.7377073 -0.316941E-04  0.142E-01    9.09       1.0  T
   3    -50.7377264 -0.191531E-04  0.332E-02    9.09       1.0  T
   4    -50.7377297 -0.326816E-05  0.870E-03    9.09       2.3  T
   5    -50.7377299 -0.187606E-06  0.307E-03    9.09       6.4  T
   6    -50.7377299 -0.540916E-08  0.163E-03    9.09      12.0  T
speedup  0.91
cpu  time for SCC    0.00 s
wall time for SCC    0.01 s
speedup  1.04
cpu  time for grad    0.01 s
wall time for grad    0.01 s
 E :    -50.44560181  G :  0.035449    pred/act E change: -0.180D-02 -0.138D-02
Maxdispl :   0.2528   ||displ|| :   0.4487   Lambda : -0.376D-02
Largest |displ|/coords:  0.2528 (   1)  0.1503 (   9)  0.1123 (  20)

generating ANC from model Hessian ...
 Shifting diagonal of input Hessian by   4.895246906161266E-003
 Lowest  eigenvalues of input Hessian
   -0.000000   -0.000000   -0.000000   -0.000000   -0.000000    0.000000
    0.005000    0.005079    0.005506    0.005806    0.005974    0.006443
    0.006695    0.006911    0.007116    0.007292    0.007674    0.008120
 Highest eigenvalues
    1.418376    1.434673    1.442099    2.478893    3.491157    3.718703
 
cpu  time for ANC gen    0.02 s
wall time for ANC gen    0.02 s
................................................................................
.............................. CYCLE   53 ......................................
................................................................................
   1    -50.7448523 -0.507449E+02  0.270E-01    9.14       0.0  T
   2    -50.7449105 -0.582183E-04  0.197E-01    9.14       1.0  T
   3    -50.7449420 -0.314854E-04  0.539E-02    9.15       1.0  T
   4    -50.7449481 -0.608547E-05  0.155E-02    9.15       1.3  T
   5    -50.7449486 -0.495365E-06  0.474E-03    9.15       4.1  T
   6    -50.7449486 -0.225764E-07  0.266E-03    9.15       7.4  T
   7    -50.7449486 -0.135994E-07  0.939E-04    9.15      20.9  T
   8    -50.7449486 -0.190599E-08  0.274E-04    9.15      71.6  T
speedup  0.97
cpu  time for SCC    0.01 s
wall time for SCC    0.01 s
speedup  1.01
cpu  time for grad    0.02 s
wall time for grad    0.02 s
 E :    -50.44661140  G :  0.047906    pred/act E change:  0.000D+00 -0.101D-02
Maxdispl :   0.2413   ||displ|| :   0.3859   Lambda : -0.441D-02
Largest |displ|/coords:  0.2413 (   4)  0.1489 (  11)  0.0857 (  21)
................................................................................
.............................. CYCLE   54 ......................................
................................................................................
   1    -50.7436450 -0.507436E+02  0.296E-01    9.15       0.0  T
   2    -50.7436699 -0.248570E-04  0.223E-01    9.15       1.0  T
   3    -50.7436944 -0.245587E-04  0.316E-02    9.16       1.0  T
   4    -50.7436972 -0.274498E-05  0.110E-02    9.16       1.8  T
   5    -50.7436974 -0.179676E-06  0.390E-03    9.16       5.0  T
   6    -50.7436974 -0.150676E-07  0.203E-03    9.16       9.6  T
speedup  0.89
cpu  time for SCC    0.00 s
wall time for SCC    0.01 s
speedup  0.95
cpu  time for grad    0.01 s
wall time for grad    0.01 s
 E :    -50.44964836  G :  0.023817    pred/act E change:  0.000D+00 -0.304D-02
Maxdispl :   0.2230   ||displ|| :   0.4907   Lambda : -0.359D-02
Largest |displ|/coords:  0.2230 (  12)  0.1583 (   1)  0.1478 (   4)
................................................................................
.............................. CYCLE   55 ......................................
................................................................................
   1    -50.7427073 -0.507427E+02  0.358E-01    9.13       0.0  T
   2    -50.7427529 -0.456382E-04  0.268E-01    9.12       1.0  T
   3    -50.7427879 -0.349442E-04  0.454E-02    9.12       1.0  T
   4    -50.7427935 -0.559723E-05  0.123E-02    9.12       1.6  T
   5    -50.7427937 -0.229155E-06  0.416E-03    9.12       4.7  T
   6    -50.7427937 -0.825937E-08  0.218E-03    9.12       9.0  T
speedup  0.93
cpu  time for SCC    0.00 s
wall time for SCC    0.01 s
speedup  0.97
cpu  time for grad    0.01 s
wall time for grad    0.01 s
 E :    -50.45058149  G :  0.043626    pred/act E change: -0.254D-02 -0.933D-03
Maxdispl :   0.2430   ||displ|| :   0.3642   Lambda : -0.292D-02
Largest |displ|/coords:  0.2430 (   4)  0.1498 (  11)  0.1218 (  10)
................................................................................
.............................. CYCLE   56 ......................................
................................................................................
   1    -50.7419457 -0.507419E+02  0.267E-01    9.08       0.0  T
   2    -50.7419587 -0.129690E-04  0.200E-01    9.08       1.0  T
   3    -50.7419700 -0.112838E-04  0.232E-02    9.08       1.0  T
   4    -50.7419715 -0.155377E-05  0.788E-03    9.08       2.5  T
   5    -50.7419716 -0.100204E-06  0.301E-03    9.08       6.5  T
   6    -50.7419716 -0.775736E-08  0.149E-03    9.08      13.1  T
speedup  1.09
cpu  time for SCC    0.01 s
wall time for SCC    0.01 s
speedup  1.03
cpu  time for grad    0.01 s
wall time for grad    0.01 s
 E :    -50.45268799  G :  0.026156    pred/act E change: -0.223D-02 -0.211D-02
Maxdispl :   0.3101   ||displ|| :   0.5594   Lambda : -0.242D-02
Largest |displ|/coords:  0.3101 (   4)  0.2591 (   1)  0.2365 (  12)
................................................................................
.............................. CYCLE   57 ......................................
................................................................................
   1    -50.7417941 -0.507418E+02  0.306E-01    8.98       0.0  T
   2    -50.7418184 -0.243570E-04  0.228E-01    8.98       1.0  T
   3    -50.7418349 -0.164427E-04  0.354E-02    8.97       1.0  T
   4    -50.7418381 -0.321917E-05  0.934E-03    8.98       2.1  T
   5    -50.7418382 -0.164410E-06  0.290E-03    8.98       6.8  T
   6    -50.7418382 -0.970662E-08  0.156E-03    8.98      12.5  T
speedup  0.91
cpu  time for SCC    0.01 s
wall time for SCC    0.01 s
speedup  0.96
cpu  time for grad    0.01 s
wall time for grad    0.01 s
 E :    -50.45454464  G :  0.024220    pred/act E change: -0.165D-02 -0.186D-02
Maxdispl :   0.3218   ||displ|| :   0.6421   Lambda : -0.292D-02
Largest |displ|/coords:  0.3218 (   1)  0.3081 (   4)  0.2697 (  12)
................................................................................
.............................. CYCLE   58 ......................................
................................................................................
   1    -50.7460326 -0.507460E+02  0.267E-01    8.95       0.0  T
   2    -50.7460591 -0.265150E-04  0.199E-01    8.95       1.0  T
   3    -50.7460744 -0.153374E-04  0.340E-02    8.95       1.0  T
   4    -50.7460784 -0.391756E-05  0.852E-03    8.95       2.3  T
   5    -50.7460786 -0.215308E-06  0.325E-03    8.95       6.0  T
   6    -50.7460786 -0.119341E-07  0.181E-03    8.95      10.9  T
speedup  0.93
cpu  time for SCC    0.00 s
wall time for SCC    0.01 s
speedup  0.97
cpu  time for grad    0.01 s
wall time for grad    0.01 s
 E :    -50.45703214  G :  0.025563    pred/act E change: -0.159D-02 -0.249D-02
Maxdispl :   0.3727   ||displ|| :   0.7228   Lambda : -0.416D-02
Largest |displ|/coords:  0.3727 (   4)  0.3311 (   1)  0.1659 (  12)
................................................................................
.............................. CYCLE   59 ......................................
................................................................................
   1    -50.7519093 -0.507519E+02  0.351E-01    9.22       0.0  T
   2    -50.7519479 -0.386613E-04  0.265E-01    9.21       1.0  T
   3    -50.7519753 -0.273958E-04  0.375E-02    9.21       1.0  T
   4    -50.7519811 -0.580189E-05  0.133E-02    9.21       1.5  T
   5    -50.7519814 -0.250271E-06  0.433E-03    9.21       4.5  T
   6    -50.7519814 -0.170574E-07  0.244E-03    9.21       8.0  T
speedup  0.93
cpu  time for SCC    0.00 s
wall time for SCC    0.01 s
speedup  1.04
cpu  time for grad    0.01 s
wall time for grad    0.01 s
 E :    -50.45926067  G :  0.028640    pred/act E change: -0.206D-02 -0.223D-02
Maxdispl :   0.2753   ||displ|| :   0.4388   Lambda : -0.220D-02
Largest |displ|/coords:  0.2753 (   4)  0.2297 (   1)  0.1545 (  12)
................................................................................
.............................. CYCLE   60 ......................................
................................................................................
   1    -50.7526754 -0.507527E+02  0.222E-01    9.25       0.0  T
   2    -50.7526957 -0.203370E-04  0.166E-01    9.25       1.0  T
   3    -50.7527125 -0.167669E-04  0.279E-02    9.24       1.0  T
   4    -50.7527148 -0.235783E-05  0.116E-02    9.25       1.7  T
   5    -50.7527150 -0.206307E-06  0.289E-03    9.25       6.8  T
   6    -50.7527150 -0.115169E-07  0.171E-03    9.25      11.5  T
speedup  1.11
cpu  time for SCC    0.01 s
wall time for SCC    0.01 s
speedup  1.04
cpu  time for grad    0.01 s
wall time for grad    0.01 s
 E :    -50.46024349  G :  0.022158    pred/act E change: -0.317D-02 -0.983D-03
Maxdispl :   0.2217   ||displ|| :   0.4102   Lambda : -0.153D-02
Largest |displ|/coords:  0.2217 (  12)  0.1997 (   1)  0.1822 (   4)
................................................................................
.............................. CYCLE   61 ......................................
................................................................................
   1    -50.7516877 -0.507517E+02  0.257E-01    9.05       0.0  T
   2    -50.7517099 -0.221643E-04  0.193E-01    9.05       1.0  T
   3    -50.7517289 -0.189446E-04  0.303E-02    9.04       1.0  T
   4    -50.7517312 -0.230000E-05  0.786E-03    9.05       2.5  T
   5    -50.7517313 -0.100402E-06  0.291E-03    9.05       6.7  T
   6    -50.7517313 -0.901287E-08  0.153E-03    9.05      12.8  T
speedup  0.91
cpu  time for SCC    0.00 s
wall time for SCC    0.01 s
speedup  0.96
cpu  time for grad    0.01 s
wall time for grad    0.01 s
 E :    -50.46053473  G :  0.034794    pred/act E change: -0.131D-02 -0.291D-03
Maxdispl :   0.1385   ||displ|| :   0.2302   Lambda : -0.149D-02
Largest |displ|/coords:  0.1385 (   4)  0.0661 (  13)  0.0639 (  15)
................................................................................
.............................. CYCLE   62 ......................................
................................................................................
   1    -50.7513645 -0.507514E+02  0.121E-01    9.20       0.0  T
   2    -50.7513768 -0.123360E-04  0.882E-02    9.20       1.0  T
   3    -50.7513839 -0.706045E-05  0.219E-02    9.20       1.0  T
   4    -50.7513849 -0.105671E-05  0.513E-03    9.20       3.8  T
   5    -50.7513850 -0.724849E-07  0.203E-03    9.20       9.6  T
speedup  0.89
cpu  time for SCC    0.00 s
wall time for SCC    0.00 s
speedup  0.96
cpu  time for grad    0.01 s
wall time for grad    0.01 s
 E :    -50.46127262  G :  0.014064    pred/act E change: -0.891D-03 -0.738D-03
Maxdispl :   0.1270   ||displ|| :   0.3253   Lambda : -0.125D-02
Largest |displ|/coords:  0.1270 (  10)  0.1244 (  11)  0.1222 (   3)
................................................................................
.............................. CYCLE   63 ......................................
................................................................................
   1    -50.7620502 -0.507621E+02  0.188E-01    9.47       0.0  T
   2    -50.7620679 -0.176420E-04  0.138E-01    9.47       1.0  T
   3    -50.7620783 -0.104451E-04  0.283E-02    9.47       1.0  T
   4    -50.7620804 -0.205678E-05  0.669E-03    9.47       2.9  T
   5    -50.7620805 -0.102035E-06  0.253E-03    9.47       7.8  T
   6    -50.7620805 -0.944446E-08  0.129E-03    9.47      15.2  T
speedup  0.93
cpu  time for SCC    0.00 s
wall time for SCC    0.01 s
speedup  0.97
cpu  time for grad    0.01 s
wall time for grad    0.01 s
 E :    -50.46102518  G :  0.024545    pred/act E change: -0.786D-03  0.247D-03
Maxdispl :   0.2350   ||displ|| :   0.4076   Lambda : -0.236D-02
Largest |displ|/coords:  0.2350 (  12)  0.1901 (   4)  0.1466 (   3)
................................................................................
.............................. CYCLE   64 ......................................
................................................................................
   1    -50.7433027 -0.507433E+02  0.317E-01    9.08       0.0  T
   2    -50.7433566 -0.539316E-04  0.235E-01    9.08       1.0  T
[...]
Largest |displ|/coords:  0.0287 (   1)  0.0227 (  21)  0.0206 (  19)
................................................................................
.............................. CYCLE  120 ......................................
................................................................................
   1    -50.7577444 -0.507577E+02  0.349E-02    9.30       0.0  T
   2    -50.7577446 -0.206611E-06  0.264E-02    9.30       1.0  T
   3    -50.7577449 -0.262389E-06  0.290E-03    9.30       6.8  T
   4    -50.7577449 -0.141385E-07  0.104E-03    9.30      18.8  T
   5    -50.7577449 -0.132909E-08  0.343E-04    9.30      57.1  T
   6    -50.7577449 -0.122355E-09  0.175E-04    9.30     111.9  T
speedup  0.89
cpu  time for SCC    0.00 s
wall time for SCC    0.01 s
speedup  0.98
cpu  time for grad    0.01 s
wall time for grad    0.01 s
 E :    -50.47039013  G :  0.000925    pred/act E change: -0.264D-05 -0.353D-05
Maxdispl :   0.0218   ||displ|| :   0.0367   Lambda : -0.346D-05
Largest |displ|/coords:  0.0218 (   1)  0.0109 (   9)  0.0106 (  21)
................................................................................
.............................. CYCLE  121 ......................................
................................................................................
   1    -50.7578875 -0.507579E+02  0.185E-02    9.30       0.0  T
   2    -50.7578875 -0.701565E-07  0.139E-02    9.30       1.4  T
   3    -50.7578876 -0.772457E-07  0.196E-03    9.30      10.0  T
   4    -50.7578876 -0.585981E-08  0.586E-04    9.30      33.4  T
   5    -50.7578876 -0.480547E-09  0.190E-04    9.30     103.4  T
speedup  1.09
cpu  time for SCC    0.00 s
wall time for SCC    0.00 s
speedup  1.04
cpu  time for grad    0.01 s
wall time for grad    0.01 s
 E :    -50.47039236  G :  0.000749    pred/act E change: -0.265D-05 -0.224D-05
Maxdispl :   0.0104   ||displ|| :   0.0254   Lambda : -0.202D-05
Largest |displ|/coords:  0.0104 (   1)  0.0094 (  21)  0.0082 (   9)
................................................................................
.............................. CYCLE  122 ......................................
................................................................................
   1    -50.7579326 -0.507579E+02  0.153E-02    9.30       0.0  T
   2    -50.7579327 -0.395184E-07  0.115E-02    9.30       1.7  T
   3    -50.7579327 -0.453689E-07  0.135E-03    9.30      14.5  T
   4    -50.7579327 -0.320282E-08  0.309E-04    9.30      63.5  T
   5    -50.7579327 -0.161087E-09  0.138E-04    9.30     142.5  T
speedup  0.87
cpu  time for SCC    0.00 s
wall time for SCC    0.00 s
speedup  0.97
cpu  time for grad    0.01 s
wall time for grad    0.01 s
 E :    -50.47039362  G :  0.000460    pred/act E change: -0.173D-05 -0.125D-05
Maxdispl :   0.0101   ||displ|| :   0.0147   Lambda : -0.110D-05
Largest |displ|/coords:  0.0101 (   3)  0.0036 (   4)  0.0033 (   5)
................................................................................
.............................. CYCLE  123 ......................................
................................................................................
   1    -50.7581051 -0.507581E+02  0.850E-03    9.31       0.0  T
   2    -50.7581052 -0.187904E-07  0.642E-03    9.31       3.1  T
   3    -50.7581052 -0.211490E-07  0.772E-04    9.31      25.4  T
   4    -50.7581052 -0.186110E-08  0.339E-04    9.31      57.9  T
speedup  1.05
cpu  time for SCC    0.00 s
wall time for SCC    0.00 s
speedup  1.04
cpu  time for grad    0.01 s
wall time for grad    0.01 s
 E :    -50.47039427  G :  0.000368    pred/act E change: -0.101D-05 -0.647D-06
Maxdispl :   0.0062   ||displ|| :   0.0135   Lambda : -0.730D-06
Largest |displ|/coords:  0.0062 (  21)  0.0046 (  15)  0.0045 (  17)
................................................................................
.............................. CYCLE  124 ......................................
................................................................................
   1    -50.7580484 -0.507580E+02  0.935E-03    9.31       0.0  T
   2    -50.7580484 -0.170329E-07  0.706E-03    9.31       2.8  T
   3    -50.7580484 -0.173483E-07  0.784E-04    9.31      25.0  T
   4    -50.7580484 -0.196469E-08  0.323E-04    9.31      60.6  T
speedup  1.05
cpu  time for SCC    0.00 s
wall time for SCC    0.00 s
speedup  0.96
cpu  time for grad    0.01 s
wall time for grad    0.01 s
 E :    -50.47039468  G :  0.000350    pred/act E change: -0.550D-06 -0.418D-06
Maxdispl :   0.0030   ||displ|| :   0.0076   Lambda : -0.424D-06
Largest |displ|/coords:  0.0030 (   3)  0.0025 (   1)  0.0024 (  12)
................................................................................
.............................. CYCLE  125 ......................................
................................................................................
   1    -50.7580427 -0.507580E+02  0.474E-03    9.31       0.0  T
   2    -50.7580427 -0.579967E-08  0.359E-03    9.31       5.5  T
   3    -50.7580427 -0.558914E-08  0.440E-04    9.31      44.6  T
   4    -50.7580427 -0.714614E-09  0.214E-04    9.31      91.8  T
speedup  1.05
cpu  time for SCC    0.00 s
wall time for SCC    0.00 s
speedup  1.04
cpu  time for grad    0.01 s
wall time for grad    0.01 s
 E :    -50.47039498  G :  0.000262    pred/act E change: -0.365D-06 -0.299D-06
Maxdispl :   0.0028   ||displ|| :   0.0074   Lambda : -0.316D-06
Largest |displ|/coords:  0.0028 (  12)  0.0024 (   5)  0.0021 (  21)
................................................................................
.............................. CYCLE  126 ......................................
................................................................................
   1    -50.7580104 -0.507580E+02  0.548E-03    9.31       0.0  T
   2    -50.7580104 -0.746802E-08  0.415E-03    9.31       4.7  T
   3    -50.7580104 -0.770331E-08  0.490E-04    9.31      40.0  T
   4    -50.7580104 -0.856623E-09  0.242E-04    9.31      81.0  T
speedup  1.05
cpu  time for SCC    0.00 s
wall time for SCC    0.00 s
speedup  1.04
cpu  time for grad    0.01 s
wall time for grad    0.01 s
 E :    -50.47039520  G :  0.000216    pred/act E change: -0.212D-06 -0.213D-06
Maxdispl :   0.0018   ||displ|| :   0.0054   Lambda : -0.164D-06
Largest |displ|/coords:  0.0018 (   5)  0.0017 (   2)  0.0016 (  12)
................................................................................
.............................. CYCLE  127 ......................................
................................................................................
   1    -50.7579977 -0.507580E+02  0.419E-03    9.31       0.0  T
   2    -50.7579977 -0.363929E-08  0.318E-03    9.30       6.2  T
   3    -50.7579977 -0.432006E-08  0.351E-04    9.30      55.9  T
   4    -50.7579977 -0.323290E-09  0.158E-04    9.30     123.9  T
speedup  0.81
cpu  time for SCC    0.00 s
wall time for SCC    0.00 s
speedup  0.97
cpu  time for grad    0.01 s
wall time for grad    0.01 s
 E :    -50.47039532  G :  0.000179    pred/act E change: -0.158D-06 -0.121D-06
Maxdispl :   0.0024   ||displ|| :   0.0072   Lambda : -0.179D-06
Largest |displ|/coords:  0.0024 (   5)  0.0024 (  12)  0.0021 (  17)
................................................................................
.............................. CYCLE  128 ......................................
................................................................................
   1    -50.7579890 -0.507580E+02  0.577E-03    9.30       0.0  T
   2    -50.7579890 -0.591535E-08  0.437E-03    9.30       4.5  T
   3    -50.7579890 -0.736637E-08  0.441E-04    9.30      44.4  T
   4    -50.7579890 -0.460858E-09  0.200E-04    9.30      97.9  T
speedup  1.05
cpu  time for SCC    0.00 s
wall time for SCC    0.00 s
speedup  1.05
cpu  time for grad    0.01 s
wall time for grad    0.01 s
 E :    -50.47039543  G :  0.000147    pred/act E change: -0.820D-07 -0.116D-06
Maxdispl :   0.0016   ||displ|| :   0.0042   Lambda : -0.948D-07
Largest |displ|/coords:  0.0016 (   8)  0.0012 (   4)  0.0011 (   7)
................................................................................
.............................. CYCLE  129 ......................................
................................................................................
   1    -50.7579957 -0.507580E+02  0.329E-03    9.30       0.0  T
   2    -50.7579957 -0.156563E-08  0.248E-03    9.30       7.9  T
   3    -50.7579957 -0.217613E-08  0.250E-04    9.31      78.6  T
   4    -50.7579957 -0.729798E-10  0.852E-05    9.31     230.1  T
speedup  1.03
cpu  time for SCC    0.00 s
wall time for SCC    0.00 s
speedup  0.95
cpu  time for grad    0.01 s
wall time for grad    0.01 s
 E :    -50.47039550  G :  0.000115    pred/act E change: -0.895D-07 -0.696D-07
Maxdispl :   0.0019   ||displ|| :   0.0051   Lambda : -0.926D-07
Largest |displ|/coords:  0.0019 (   8)  0.0017 (  10)  0.0015 (   7)

   *** GEOMETRY OPTIMIZATION CONVERGED AFTER 129 ITERATIONS ***

------------------------------------------------------------------------
 total energy gain (kcal):     -0.0216
------------------------------------------------------------------------
================
 final structure:
================
$coord
        1.46691636457113        3.54550195654019        0.11874180375878      S 
        1.31950297619898        2.68226641013946        2.74557849061417      O 
       -0.97394942049506        3.68063796889484       -1.08324495381766      O 
        3.32703522823205        2.08418944325101       -1.28033195965794      O 
        2.50661679110045        6.34773246536206        0.22425549390534      O 
        4.19931301238843        6.11687363298077        0.78198878786235      H 
        4.99369943184768       -0.69660748697451        1.00791650346125      H 
        4.13661024847125       -1.33190102597016        2.48881430494130      O 
        3.08007837139793        0.11829793199453        2.98467434247448      H 
        1.54416003722676       -1.71016578555359       -4.08087165175992      O 
        2.36307990582981       -0.22309342636495       -3.33609167185512      H 
       -3.96393782779710       -2.51404126919687        1.09093028852275      O 
       -5.37724886732143       -3.32462984067812        1.87960898946242      H 
       -3.17044941114528       -0.08577606003799       -3.70518008090944      O 
       -0.20377904191640       -1.16196452836306       -4.42950426711321      H 
       -3.83144355242165       -1.04115107911290       -2.29558279539009      H 
       -2.55531418020150        1.49454168754228       -2.98362394584580      H 
       -3.58917657962889        2.01932028733677        2.94250463989073      O 
       -3.76838428178607        3.06406666979806        1.45528227943200      H 
       -3.84099709413185       -0.79674825331637        1.88485847458626      H 
       -1.79338927235555        2.22097467900591        3.34157292456073      H 
        0.81080300043537       -4.15742909886879        0.07619044449973      N 
        1.13863854373598       -3.33667739622010       -1.79068047552675      H 
        1.08502452815772       -6.05297961880457        0.07063422999287      H 
        2.12231789346452       -3.23028560584980        1.28184085676990      H 
       -1.02572678420338       -3.71095263643666        0.60971896579946      H 
$end
 
 Bond Distances (Angstroems)
 ---------------------------
S1-O2=1.4653         S1-O3=1.4415         S1-O4=1.4543         S1-O5=1.5826         O2-S1=1.4653         O3-S1=1.4415         
O4-S1=1.4543         O5-S1=1.5826         O5-H6=0.9510         H6-O5=0.9510         H7-O8=0.9658         O8-H7=0.9658         
O8-H9=0.9851         H9-O8=0.9851         O10-H11=0.9810       O10-H15=0.9868       H11-O10=0.9810       O12-H13=0.9579       
O12-H20=1.0033       H13-O12=0.9579       O14-H16=0.9666       O14-H17=0.9752       H15-O10=0.9868       H16-O14=0.9666       
H17-O14=0.9752       O18-H19=0.9664       O18-H21=0.9793       H19-O18=0.9664       H20-O12=1.0033       H21-O18=0.9793       
N22-H23=1.0930       N22-H24=1.0135       N22-H25=1.0627       N22-H26=1.0392       H23-N22=1.0930       H24-N22=1.0135       
H25-N22=1.0627       H26-N22=1.0392       
 N  H  Rav=1.0521 sigma=0.0293  Rmin=1.0135  Rmax=1.0930     4
 O  H  Rav=0.9744 sigma=0.0141  Rmin=0.9510  Rmax=1.0033    11
 S  O  Rav=1.4859 sigma=0.0565  Rmin=1.4415  Rmax=1.5826     4
 
 selected bond angles (degree)
 --------------------
O3-S1-O2=112.73                O4-S1-O2=110.68                O4-S1-O3=114.09                O5-S1-O2=106.09                
O5-S1-O3=106.29                O5-S1-O4=106.31                H6-O5-S1=102.59                H9-O8-H7=102.21                
H15-O10-H11=104.68             
 
 selected dihedral angles (degree)
 ---------------------------------
H6-O5-S1-O2= 68.43            H6-O5-S1-O3=188.64            H6-O5-S1-O4=310.56            
 
 CMA Distance (Angstroems)
 ---------------------------
R(CMA):  2.8638

========================================================================
 FINAL SINGLEPOINT CALCULATION ON OPTIMIZED GEOMETRY
========================================================================

 Ncao       : 65
 Nao        : 64
 Nshell     : 38
 Nel        : 80
 T(el)      :   300.0
 intcut     :    25.0
 scfconv/Eh :  0.100E-05
   qconv/e  :  0.100E-03
 intneglect :  0.100E-07
 broydamp   :      0.250
 iter      E             dE          RMSdq      gap      omega  full diag
   1    -50.7579957 -0.507580E+02  0.276E-05    9.31       0.0  T
   2    -50.7579957 -0.582645E-12  0.175E-05    9.31    1122.1  T
   3    -50.7579957 -0.326850E-12  0.521E-06    9.31    3767.5  T
speedup  1.07
cpu  time for SCC    0.00 s
wall time for SCC    0.00 s

   *** convergence criteria satisfied after 3 iterations ***

          eigenvalues
 #    :          28         29         30         31         32         33         34         35
 occ. :        2.000      2.000      2.000      2.000      2.000      2.000      2.000      2.000
 eps  :       -13.499    -13.314    -12.631    -12.446    -12.376    -12.299    -12.241    -12.099
 #    :          36         37         38         39         40         41         42         43
 occ. :        2.000      2.000      2.000      2.000      2.000      0.000      0.000      0.000
 eps  :       -12.057    -12.021    -12.009    -11.834    -11.663     -2.358     -1.173     -0.478
 #    :          44         45         46         47         48         49         50         51
 occ. :        0.000      0.000      0.000      0.000      0.000      0.000      0.000      0.000
 eps  :         1.013      1.124      1.274      2.262      2.896      3.741      3.937      4.678


   #   Z            q   n(s)   n(p)   n(d)      C6AA      α(0)
   1  16 S      1.687  1.580  1.783  0.950    89.067    15.884
   2   8 O     -0.765  1.780  4.985  0.000    30.530     7.408
   3   8 O     -0.723  1.759  4.964  0.000    29.345     7.263
   4   8 O     -0.759  1.770  4.989  0.000    30.368     7.388
   5   8 O     -0.590  1.754  4.836  0.000    24.922     6.739
   6   1 H      0.341  0.659  0.000  0.000     0.601     1.213
   7   1 H      0.308  0.692  0.000  0.000     0.697     1.312
   8   8 O     -0.606  1.746  4.860  0.000    25.332     6.793
   9   1 H      0.327  0.673  0.000  0.000     0.647     1.263
  10   8 O     -0.616  1.757  4.859  0.000    25.567     6.825
  11   1 H      0.325  0.675  0.000  0.000     0.650     1.266
  12   8 O     -0.636  1.747  4.889  0.000    26.057     6.889
  13   1 H      0.285  0.715  0.000  0.000     0.767     1.375
  14   8 O     -0.623  1.755  4.868  0.000    25.743     6.848
  15   1 H      0.334  0.666  0.000  0.000     0.628     1.245
  16   1 H      0.307  0.693  0.000  0.000     0.701     1.315
  17   1 H      0.320  0.680  0.000  0.000     0.665     1.281
  18   8 O     -0.610  1.746  4.864  0.000    25.432     6.806
  19   1 H      0.310  0.690  0.000  0.000     0.692     1.307
  20   1 H      0.341  0.659  0.000  0.000     0.610     1.227
  21   1 H      0.321  0.679  0.000  0.000     0.661     1.278
  22   7 N     -0.358  1.282  4.076  0.000    29.214     8.028
  23   1 H      0.300  0.700  0.000  0.000     0.711     1.320
  24   1 H      0.221  0.779  0.000  0.000     1.006     1.571
  25   1 H      0.285  0.715  0.000  0.000     0.760     1.366
  26   1 H      0.275  0.725  0.000  0.000     0.794     1.396

 Mol. C6AA /au·bohr⁶  :       5451.632181
 Mol. C8AA /au·bohr⁸  :     117967.848236
 Mol. α(0) /au        :        106.608242

 
 Wiberg/Mayer (AO) data. WBOs > 0.1 written file <wbo>
 largest (>0.05) Wiberg bond orders for each atom
           total WBO             WBO to atom ...
     1  S   4.854    O    3 1.364    O    4 1.309    O    2 1.257    O    5 0.889
     2  O   1.719    S    1 1.257    O    3 0.108    O    4 0.107    O    5 0.072    H    9 0.067    H   21 0.056
     3  O   1.739    S    1 1.364    O    4 0.112    O    2 0.108    O    5 0.062
     4  O   1.699    S    1 1.309    O    3 0.112    O    2 0.107    O    5 0.075    H   11 0.053
     5  O   1.971    S    1 0.889    H    6 0.867    O    4 0.075    O    2 0.072    O    3 0.062
     6  H   0.883    O    5 0.867
     7  H   0.905    O    8 0.889
     8  O   1.930    H    7 0.889    H    9 0.822    H   25 0.118    N   22 0.059
     9  H   0.893    O    8 0.822    O    2 0.067
    10  O   1.970    H   11 0.838    H   15 0.818    H   23 0.172    N   22 0.078
    11  H   0.894    O   10 0.838    O    4 0.053
    12  O   1.872    H   13 0.910    H   20 0.775    H   26 0.070
    13  H   0.919    O   12 0.910
    14  O   1.873    H   16 0.880    H   17 0.852    H   15 0.068
    15  H   0.889    O   10 0.818    O   14 0.068
    16  H   0.906    O   14 0.880
    17  H   0.898    O   14 0.852
    18  O   1.913    H   19 0.884    H   21 0.837    H   20 0.106
    19  H   0.904    O   18 0.884
    20  H   0.884    O   12 0.775    O   18 0.106
    21  H   0.897    O   18 0.837    O    2 0.056
    22  N   3.510    H   24 0.948    H   26 0.851    H   25 0.797    H   23 0.733    O   10 0.078    O    8 0.059
    23  H   0.910    N   22 0.733    O   10 0.172
    24  H   0.951    N   22 0.948
    25  H   0.919    N   22 0.797    O    8 0.118
    26  H   0.925    N   22 0.851    O   12 0.070
 MOs/occ written to file <molden.input>
 
molecular dipole:
                 x           y           z       tot (Debye)
 q only:        0.104      -2.518       0.564
   full:        0.242      -1.610       0.882       4.707
molecular quadrupole (traceless):
                xx          xy          yy          xz          yz          zz
 q only:        2.810       5.410       9.202      -1.900      -1.414     -12.012
  q+dip:        4.341      10.058      12.411      -2.807      -2.171     -16.752
   full:        4.449      10.486      12.729      -2.862      -2.225     -17.178

SCC energy    :     -50.7579957
rep           :       0.2872101
ES            :       0.2634868
AES           :      -0.0770836
AXC           :      -0.0088262
disp          :      -0.0198045
XB            :       0.0000000
fix           :       0.0000000
total E       :     -50.4703955
atomizationE  :       5.0006997     3137.99
(atE without considering molecular charge,
 total energy contains solvation terms)
H-L gap (eV)  :          9.3050
optimized geometry written to: xtbopt.xyz


------------------------------------------------------------------------
 * finished run on 2019/09/16 at 11:14:14.315     
------------------------------------------------------------------------
 total:
 * wall-time:     0 d,  0 h,  0 min,  2.927 sec
 *  cpu-time:     0 d,  0 h,  0 min,  2.906 sec
 * ratio c/w:     0.993 speedup
 SCF:
 * wall-time:     0 d,  0 h,  0 min,  0.145 sec
 *  cpu-time:     0 d,  0 h,  0 min,  0.142 sec
 * ratio c/w:     0.976 speedup
 ANC optimizer:
 * wall-time:     0 d,  0 h,  0 min,  2.757 sec
 *  cpu-time:     0 d,  0 h,  0 min,  2.744 sec
 * ratio c/w:     0.995 speedup

