      -----------------------------------------------------------      
     |                   =====================                   |     
     |                           x T B                           |     
     |                   =====================                   |     
     |                         S. Grimme                         |     
     |          Mulliken Center for Theoretical Chemistry        |     
     |                    University of Bonn                     |     
     |                 Version 6.0.1 (SAW181210)                 |     
      -----------------------------------------------------------      

   This program is distributed in the hope that it will be useful,
   but WITHOUT ANY WARRANTY; without even the implied warranty of
   MERCHANTABILITY or FITNESS FOR A PARTICULAR PURPOSE.
   
   FOR NON-COMMERCIAL, ACADEMIA USE ONLY.
   
   Cite this work as:
   S. Grimme, C. Bannwarth, P. Shushkov, J. Comput. Theory Chem., 2017,
   13, 1989-2009.
   C. Bannwarth, S. Ehlert and S. Grimme., ChemRxiv, 2018, preprint.
   http://doi.org/10.26434/chemrxiv.7246238.v1
   
   for sTDA-xTB:
   S. Grimme and C. Bannwarth, J. Chem. Phys., 2016, 145, 054103.
   
   in the mass-spec context:
   V. Asgeirsson, C. Bauer and S. Grimme, Chem. Sci., 2017, 8, 4879.
   
   if GBSA is used:
   P. Shushkov, F. März and S. Grimme, unpublished.
   
   for ANC optimizer:
   S. Grimme, unpublished.
   Rational Function algorithm used in ANCopt:
   F. Eckert, P. Pulay, H.-J. Werner, J. Comput. Chem., 1997, 18, 1473.
   
   with help from (in alphabetical order)
   C. Bannwarth, F. Bohle, G. Brandenburg, E. Caldeweyher, M. Checinski,
   S. Dohm, S. Ehlert, S. Ehrlich, F. März, H. Neugebauer, J. Pisarek,
   P. Pracht, P. Shushkov, and S. Spicher.
   
 * started run on 2019/09/16 at 12:45:56.633     
========================================================================
 # omp threads = 1
========================================================================
number of atoms            : 26
number of electrons        : 80
charge                     : 0
spin                       : .0
first test random number   : .5956

########################################################################
# WARNING! Please study the warnings concerning your input carefully
#  - XTBPATH is not set, using XTBHOME instead
#  - the use of '-opt' is discouraged, please use '--opt' next time
#  - the use of '-chrg' is discouraged, please use '--chrg' next time
#  - the use of '-uhf' is discouraged, please use '--uhf' next time
########################################################################

           ------------------------------------------------- 
          |                 G F N 2 - x T B                 |
          | Geometry, Frequencies, Noncovalent interactions |
          |            JCTC 2018 parametrisation            |
           ------------------------------------------------- 
      method parameters     
 k(s)        :  1.8500
 k(p)        :  2.2300
 k(d)        :  2.2300
 k(f)        :  2.0000
 kEN (H0ij)  : -2.0000
 D4 a1       :  0.5200
 D4 a2       :  5.0000
 D4 s6       :  1.0000
 D4 s8       :  2.7000
 D4 s9       :  5.0000
 alphaj      :  2.0000


            Z     q(EN)     CN     RAES       Cart. coordinates
     1  S   6.0    0.60    4.53    4.60    -0.25530     4.92681     3.73023
     2  O   6.0   -0.30    1.17    1.80    -2.23344     5.70994     1.88584
     3  O   6.0   -0.28    1.12    1.80     2.01783     4.01795     2.33919
     4  O   6.0   -0.27    2.12    1.84    -1.23976     2.88221     5.33116
     5  O   6.0   -0.25    2.08    1.84     0.43822     7.09540     5.32043
     6  H   1.0    0.14    1.22    1.47     0.09745     6.70502     7.05899
     7  H   1.0    0.18    1.38    1.53    -1.69305     1.46514     4.29312
     8  O   6.0   -0.36    1.54    1.80     1.57328    -6.44366    -1.00961
     9  H   1.0    0.18    0.94    1.42     1.51548    -8.08853    -0.12937
    10  O   6.0   -0.39    1.65    1.81     1.63778    -0.16043    -3.61759
    11  H   1.0    0.18    0.95    1.42     2.83865     1.21106    -4.01846
    12  O   6.0   -0.39    1.65    1.81    -2.24745    -0.58150     2.38649
    13  H   1.0    0.18    0.95    1.42    -3.53530    -1.78553     2.99931
    14  O   6.0   -0.23    2.92    2.60     2.13729    -4.45268    -4.99889
    15  H   1.0    0.16    1.20    1.47     2.06637    -2.62055    -4.64100
    16  H   1.0    0.16    1.23    1.47     2.08238    -5.47428    -3.43577
    17  H   1.0    0.12    0.96    1.42     0.82656    -4.97729    -6.22293
    18  O   6.0   -0.22    2.96    2.68     1.62594    -2.16989     0.54642
    19  H   1.0    0.16    1.19    1.46     0.10867    -1.63420     1.49551
    20  H   1.0    0.16    1.19    1.46     1.61831    -4.00388     0.19082
    21  H   1.0    0.16    1.15    1.45     1.87357    -1.15832    -1.00500
    22  N   5.0   -0.14    3.99    2.83    -2.25070     1.90744    -1.69978
    23  H   1.0    0.09    0.99    1.43    -3.80837     1.77473    -2.85757
    24  H   1.0    0.12    1.14    1.45    -0.67222     1.30640    -2.66498
    25  H   1.0    0.11    1.03    1.43    -2.00833     3.75719    -1.14831
    26  H   1.0    0.13    1.15    1.45    -2.51386     0.79143    -0.12825

  Z AO/shell   Hii/eV     exponent
  1     Wed Apr 25 08:07:45 CEST 2018   EN: 2.200 GM2: 0.406  GM3: 0.0800  RAES: 1.40
     1s    -10.707211    1.230000
  7     Wed Apr 25 08:07:45 CEST 2018   EN: 3.040 GM2: 0.461  GM3:-0.0640  RAES: 1.90
     2s    -16.686243    2.339881
     2p    -12.523956    2.014332
  8     Wed Apr 25 08:07:45 CEST 2018   EN: 3.440 GM2: 0.452  GM3:-0.0517  RAES: 1.80
     2s    -20.229985    2.439742
     2p    -15.503117    2.137023
 16     Tue Apr 24 11:44:34 CEST 2018   EN: 2.580 GM2: 0.340  GM3:-0.0502  RAES: 3.10
     3s    -20.029654    1.981333
     3p    -11.377694    2.025643
     3d     -0.420282    1.702555
 no old-style atom pair restraining (fixing) potential

molecular fragmentation (1/2 indicates fragments):
11111112222222222222222222
# atoms in fragment 1/2:     7    19
 fragment masses (1/2) :       98.07      107.11
CMA distance (Bohr)    :   8.675
constraining FC (au)   :  0.0500
           ------------------------------------------------- 
          |        Self-Consistent Charge Iterations        |
           ------------------------------------------------- 

 Ncao       : 65
 Nao        : 64
 Nshell     : 38
 Nel        : 80
 T(el)      :   300.0
 intcut     :    25.0
 scfconv/Eh :  0.100E-05
   qconv/e  :  0.100E-03
 intneglect :  0.100E-07
 broydamp   :      0.250
 iter      E             dE          RMSdq      gap      omega  full diag
   1    -50.4664948 -0.504665E+02  0.715E+00   10.60       0.0  T
   2    -50.5289769 -0.624822E-01  0.518E+00    9.56       1.0  T
   3    -50.5734738 -0.444969E-01  0.150E+00    5.93       1.0  T
   4    -50.5801105 -0.663670E-02  0.632E-01    6.19       1.0  T
   5    -50.5806359 -0.525344E-03  0.392E-01    6.06       1.0  T
   6    -50.5814041 -0.768193E-03  0.164E-01    6.22       1.0  T
   7    -50.5815799 -0.175840E-03  0.604E-02    6.27       1.0  T
   8    -50.5815970 -0.171048E-04  0.365E-02    6.26       1.0  T
   9    -50.5816046 -0.754166E-05  0.158E-02    6.27       1.2  T
  10    -50.5816063 -0.175079E-05  0.307E-03    6.28       6.4  T
  11    -50.5816063 -0.437632E-07  0.135E-03    6.28      14.6  T
  12    -50.5816064 -0.583177E-08  0.526E-04    6.28      37.3  T
  13    -50.5816064 -0.806011E-09  0.178E-04    6.28     110.1  T
speedup  0.99
cpu  time for SCC    0.01 s
wall time for SCC    0.02 s

   *** convergence criteria satisfied after 13 iterations ***

          eigenvalues
 #    :          28         29         30         31         32         33         34         35
 occ. :        2.000      2.000      2.000      2.000      2.000      2.000      2.000      2.000
 eps  :       -12.551    -12.479    -12.138    -11.956    -11.552    -11.466    -11.240    -10.508
 #    :          36         37         38         39         40         41         42         43
 occ. :        2.000      2.000      2.000      2.000      2.000      0.000      0.000      0.000
 eps  :       -10.341    -10.184    -10.003     -8.906     -8.510     -2.231     -1.227     -0.589
 #    :          44         45         46         47         48         49         50         51
 occ. :        0.000      0.000      0.000      0.000      0.000      0.000      0.000      0.000
 eps  :         0.042      0.404      0.957      2.378      3.197      3.823      4.161      4.877


   #   Z            q   n(s)   n(p)   n(d)      C6AA      α(0)
   1  16 S      1.651  1.576  1.811  0.962    89.896    15.958
   2   8 O     -0.718  1.769  4.949  0.000    29.199     7.245
   3   8 O     -0.692  1.772  4.920  0.000    28.493     7.157
   4   8 O     -0.596  1.721  4.875  0.000    25.054     6.757
   5   8 O     -0.530  1.715  4.814  0.000    23.534     6.549
   6   1 H      0.375  0.625  0.000  0.000     0.526     1.135
   7   1 H      0.413  0.587  0.000  0.000     0.454     1.053
   8   8 O     -0.894  1.812  5.081  0.000    34.475     7.875
   9   1 H      0.179  0.821  0.000  0.000     1.233     1.744
  10   8 O     -0.841  1.824  5.017  0.000    32.805     7.681
  11   1 H      0.210  0.790  0.000  0.000     1.068     1.623
  12   8 O     -0.859  1.836  5.023  0.000    33.394     7.749
  13   1 H      0.214  0.786  0.000  0.000     1.048     1.608
  14   8 O     -0.448  1.670  4.778  0.000    21.743     6.298
  15   1 H      0.402  0.598  0.000  0.000     0.475     1.079
  16   1 H      0.413  0.587  0.000  0.000     0.455     1.055
  17   1 H      0.337  0.663  0.000  0.000     0.620     1.237
  18   8 O     -0.515  1.684  4.832  0.000    23.167     6.501
  19   1 H      0.378  0.622  0.000  0.000     0.521     1.131
  20   1 H      0.387  0.613  0.000  0.000     0.503     1.111
  21   1 H      0.382  0.618  0.000  0.000     0.517     1.128
  22   7 N     -0.332  1.272  4.060  0.000    28.521     7.932
  23   1 H      0.216  0.784  0.000  0.000     1.026     1.587
  24   1 H      0.303  0.697  0.000  0.000     0.703     1.313
  25   1 H      0.259  0.741  0.000  0.000     0.849     1.443
  26   1 H      0.304  0.696  0.000  0.000     0.700     1.310

 Mol. C6AA /au·bohr⁶  :       5536.341577
 Mol. C8AA /au·bohr⁸  :     119870.713040
 Mol. α(0) /au        :        107.259368

 
 Wiberg/Mayer (AO) data. WBOs > 0.1 written file <wbo>
 largest (>0.05) Wiberg bond orders for each atom
           total WBO             WBO to atom ...
     1  S   4.872    O    3 1.394    O    2 1.345    O    4 1.077    O    5 1.023
     2  O   1.703    S    1 1.345    O    3 0.139    O    4 0.092    O    5 0.072
     3  O   1.714    S    1 1.394    O    2 0.139    O    4 0.096    O    5 0.076
     4  O   2.009    S    1 1.077    H    7 0.641    O    3 0.096    O    2 0.092
     5  O   2.062    S    1 1.023    H    6 0.835    O    3 0.076    O    2 0.072
     6  H   0.860    O    5 0.835
     7  H   0.829    O    4 0.641    O   12 0.169
     8  O   1.460    H    9 0.942    H   16 0.203    H   20 0.183    O   18 0.059    O   14 0.058
     9  H   0.968    O    8 0.942
    10  O   1.632    H   11 0.949    H   15 0.193    H   21 0.154    H   24 0.142    N   22 0.064    O   14 0.060    O   18 0.056
    11  H   0.956    O   10 0.949
    12  O   1.609    H   13 0.943    H    7 0.169    H   19 0.167    H   26 0.143    N   22 0.063    O   18 0.057
    13  H   0.954    O   12 0.943
    14  O   2.269    H   17 0.877    H   15 0.637    H   16 0.617    O   10 0.060    O    8 0.058
    15  H   0.838    O   14 0.637    O   10 0.193
    16  H   0.830    O   14 0.617    O    8 0.203
    17  H   0.886    O   14 0.877
    18  O   2.230    H   21 0.695    H   19 0.685    H   20 0.661    O    8 0.059    O   12 0.057    O   10 0.056
    19  H   0.857    O   18 0.685    O   12 0.167
    20  H   0.850    O   18 0.661    O    8 0.183
    21  H   0.854    O   18 0.695    O   10 0.154
    22  N   3.523    H   23 0.948    H   25 0.896    H   26 0.759    H   24 0.759    O   10 0.064    O   12 0.063
    23  H   0.953    N   22 0.948
    24  H   0.908    N   22 0.759    O   10 0.142
    25  H   0.933    N   22 0.896
    26  H   0.908    N   22 0.759    O   12 0.143
 MOs/occ written to file <molden.input>
 
molecular dipole:
                 x           y           z       tot (Debye)
 q only:       -1.122       0.582      -1.088
   full:       -1.542       0.500      -0.492       4.305
molecular quadrupole (traceless):
                xx          xy          yy          xz          yz          zz
 q only:       -7.869       1.123     -17.547       3.021      16.386      25.416
  q+dip:      -12.086       2.879     -16.210       2.302      18.548      28.297
   full:      -12.906       3.449     -15.531       2.113      18.518      28.437

SCC energy    :     -50.5816064
rep           :       0.2813456
ES            :       0.3408912
AES           :      -0.0573994
AXC           :      -0.0071604
disp          :      -0.0175842
XB            :       0.0000000
fix           :       0.0000000
total E       :     -50.3001276
atomizationE  :       4.8304318     3031.14
(atE without considering molecular charge,
 total energy contains solvation terms)
H-L gap (eV)  :          6.2790
           ------------------------------------------------- 
          |                 ===============                 |
          |                   A N C O P T                   |
          |                 ===============                 |
          |          Approximate Normal Coordinate          |
          |           Rational Function Optimizer           |
           ------------------------------------------------- 
dumping coords to <xtbopt.coord> and <xtbopt.log>
 optlevel               2
 Maxcycle             520
 Maxmicro              25
 Econv         1.000000000000000E-007
 Gconv         2.000000000000000E-004
 Maxdispl       1.00000000000000     
 Hlow          5.000000000000000E-003
 S6             20.0000000000000     
 Nvar               72

generating ANC from model Hessian ...
 Shifting diagonal of input Hessian by   5.164778010711799E-003
 Lowest  eigenvalues of input Hessian
    0.005000   -0.000000   -0.000000   -0.000000    0.000000    0.000000
    0.000000    0.005197    0.005453    0.005956    0.006394    0.007155
    0.007941    0.008476    0.008826    0.009285    0.010297    0.010938
 Highest eigenvalues
    1.601556    1.603614    1.609183    3.206846    3.407671    3.459387
 
cpu  time for ANC gen    0.01 s
wall time for ANC gen    0.01 s
................................................................................
.............................. CYCLE    1 ......................................
................................................................................
   1    -50.5816064 -0.505816E+02  0.646E-05    6.28       0.0  T
   2    -50.5816064 -0.160725E-10  0.461E-05    6.28     425.4  T
   3    -50.5816064 -0.760281E-11  0.220E-05    6.28     890.5  T
speedup  1.07
cpu  time for SCC    0.00 s
wall time for SCC    0.00 s
speedup  0.94
cpu  time for grad    0.01 s
wall time for grad    0.01 s
 E :    -50.30012756  G :  0.291508    pred/act E change:  0.000D+00  0.331D-07
Maxdispl :   0.1143   ||displ|| :   0.2661   Lambda : -0.549D-01
Largest |displ|/coords:  0.1143 (  55)  0.0720 (  20)  0.0714 (  56)
................................................................................
.............................. CYCLE    2 ......................................
................................................................................
   1    -50.6011285 -0.506011E+02  0.349E-01    6.54       0.0  T
   2    -50.6017284 -0.599890E-03  0.259E-01    6.68       1.0  T
   3    -50.6019755 -0.247104E-03  0.134E-01    6.87       1.0  T
   4    -50.6019895 -0.140115E-04  0.331E-02    6.94       1.0  T
   5    -50.6019913 -0.182858E-05  0.796E-03    6.93       2.5  T
   6    -50.6019914 -0.104792E-06  0.400E-03    6.93       4.9  T
   7    -50.6019914 -0.293460E-07  0.117E-03    6.93      16.8  T
speedup  0.95
cpu  time for SCC    0.01 s
wall time for SCC    0.01 s
speedup  0.96
cpu  time for grad    0.01 s
wall time for grad    0.01 s
 E :    -50.34311664  G :  0.181097    pred/act E change:  0.000D+00 -0.430D-01
Maxdispl :   0.1390   ||displ|| :   0.3088   Lambda : -0.267D-01
Largest |displ|/coords:  0.1390 (  10)  0.0968 (  20)  0.0931 (  55)
................................................................................
.............................. CYCLE    3 ......................................
................................................................................
   1    -50.6118115 -0.506118E+02  0.415E-01    7.09       0.0  T
   2    -50.6125354 -0.723890E-03  0.301E-01    7.29       1.0  T
   3    -50.6128273 -0.291977E-03  0.138E-01    7.58       1.0  T
   4    -50.6128430 -0.156323E-04  0.362E-02    7.63       1.0  T
   5    -50.6128464 -0.339500E-05  0.780E-03    7.61       2.5  T
   6    -50.6128465 -0.111154E-06  0.435E-03    7.61       4.5  T
   7    -50.6128465 -0.386404E-07  0.139E-03    7.61      14.1  T
speedup  0.95
cpu  time for SCC    0.01 s
wall time for SCC    0.01 s
speedup  0.96
cpu  time for grad    0.01 s
wall time for grad    0.01 s
 E :    -50.36553551  G :  0.117402    pred/act E change: -0.294D-01 -0.224D-01
Maxdispl :   0.1910   ||displ|| :   0.3735   Lambda : -0.173D-01
Largest |displ|/coords:  0.1910 (  10)  0.1202 (   8)  0.1021 (  20)
................................................................................
.............................. CYCLE    4 ......................................
................................................................................
   1    -50.6146083 -0.506146E+02  0.500E-01    7.64       0.0  T
   2    -50.6156173 -0.100898E-02  0.351E-01    7.88       1.0  T
   3    -50.6160166 -0.399240E-03  0.147E-01    8.22       1.0  T
   4    -50.6160434 -0.268895E-04  0.386E-02    8.24       1.0  T
   5    -50.6160476 -0.417797E-05  0.983E-03    8.21       2.0  T
   6    -50.6160479 -0.281731E-06  0.571E-03    8.21       3.4  T
   7    -50.6160480 -0.636340E-07  0.175E-03    8.21      11.2  T
speedup  0.97
cpu  time for SCC    0.01 s
wall time for SCC    0.01 s
speedup  0.96
cpu  time for grad    0.01 s
wall time for grad    0.01 s
 E :    -50.37917838  G :  0.088518    pred/act E change: -0.146D-01 -0.136D-01
Maxdispl :   0.1898   ||displ|| :   0.3962   Lambda : -0.154D-01
Largest |displ|/coords:  0.1898 (   2)  0.1651 (  12)  0.1121 (  28)
................................................................................
.............................. CYCLE    5 ......................................
................................................................................
   1    -50.6305967 -0.506306E+02  0.474E-01    8.34       0.0  T
   2    -50.6310648 -0.468024E-03  0.355E-01    8.40       1.0  T
   3    -50.6312618 -0.197068E-03  0.115E-01    8.52       1.0  T
   4    -50.6313031 -0.413097E-04  0.342E-02    8.53       1.0  T
   5    -50.6313059 -0.279077E-05  0.101E-02    8.53       1.9  T
   6    -50.6313060 -0.118591E-06  0.469E-03    8.53       4.2  T
   7    -50.6313061 -0.540504E-07  0.136E-03    8.53      14.4  T
speedup  1.11
cpu  time for SCC    0.01 s
wall time for SCC    0.01 s
speedup  1.01
cpu  time for grad    0.01 s
wall time for grad    0.01 s
 E :    -50.38339348  G :  0.085050    pred/act E change: -0.985D-02 -0.422D-02
Maxdispl :   0.2370   ||displ|| :   0.4403   Lambda : -0.164D-01
Largest |displ|/coords:  0.2370 (  10)  0.1952 (  12)  0.1411 (   8)
................................................................................
.............................. CYCLE    6 ......................................
................................................................................
   1    -50.6177442 -0.506177E+02  0.685E-01    8.28       0.0  T
   2    -50.6186418 -0.897673E-03  0.486E-01    8.48       1.0  T
   3    -50.6190063 -0.364438E-03  0.149E-01    8.59       1.0  T
   4    -50.6190699 -0.635698E-04  0.283E-02    8.58       1.0  T
   5    -50.6190711 -0.122309E-05  0.126E-02    8.58       1.6  T
   6    -50.6190721 -0.106257E-05  0.619E-03    8.58       3.2  T
   7    -50.6190722 -0.659809E-07  0.130E-03    8.58      15.1  T
   8    -50.6190722 -0.841311E-08  0.477E-04    8.58      41.1  T
speedup  1.00
cpu  time for SCC    0.01 s
wall time for SCC    0.01 s
speedup  0.98
cpu  time for grad    0.01 s
wall time for grad    0.01 s
 E :    -50.38907196  G :  0.078444    pred/act E change: -0.890D-02 -0.568D-02
Maxdispl :   0.1710   ||displ|| :   0.3676   Lambda : -0.128D-01
Largest |displ|/coords:  0.1710 (   2)  0.1286 (   8)  0.1177 (  12)
................................................................................
.............................. CYCLE    7 ......................................
................................................................................
   1    -50.6345432 -0.506345E+02  0.473E-01    8.52       0.0  T
   2    -50.6347659 -0.222695E-03  0.351E-01    8.50       1.0  T
   3    -50.6348986 -0.132638E-03  0.803E-02    8.45       1.0  T
   4    -50.6349233 -0.247475E-04  0.242E-02    8.47       1.0  T
   5    -50.6349244 -0.111831E-05  0.855E-03    8.47       2.3  T
   6    -50.6349245 -0.696389E-07  0.412E-03    8.47       4.8  T
   7    -50.6349246 -0.462017E-07  0.109E-03    8.47      18.1  T
speedup  0.97
cpu  time for SCC    0.01 s
wall time for SCC    0.01 s
speedup  1.04
cpu  time for grad    0.01 s
wall time for grad    0.01 s
 E :    -50.39167476  G :  0.056180    pred/act E change: -0.977D-02 -0.260D-02
Maxdispl :   0.1136   ||displ|| :   0.2815   Lambda : -0.742D-02
Largest |displ|/coords:  0.1136 (   8)  0.1004 (  10)  0.0820 (   6)
................................................................................
.............................. CYCLE    8 ......................................
................................................................................
   1    -50.6286110 -0.506286E+02  0.371E-01    8.42       0.0  T
   2    -50.6288358 -0.224722E-03  0.266E-01    8.43       1.0  T
   3    -50.6289395 -0.103759E-03  0.758E-02    8.44       1.0  T
   4    -50.6289576 -0.180392E-04  0.150E-02    8.45       1.3  T
   5    -50.6289580 -0.456525E-06  0.597E-03    8.45       3.3  T
   6    -50.6289581 -0.128620E-06  0.353E-03    8.44       5.6  T
speedup  0.96
cpu  time for SCC    0.00 s
wall time for SCC    0.01 s
speedup  0.96
cpu  time for grad    0.01 s
wall time for grad    0.01 s
 E :    -50.39546241  G :  0.050354    pred/act E change: -0.728D-02 -0.379D-02
Maxdispl :   0.1259   ||displ|| :   0.2029   Lambda : -0.271D-02
Largest |displ|/coords:  0.1259 (   2)  0.0904 (   4)  0.0527 (  11)
................................................................................
.............................. CYCLE    9 ......................................
................................................................................
   1    -50.6352464 -0.506352E+02  0.124E-01    8.41       0.0  T
   2    -50.6352815 -0.350652E-04  0.917E-02    8.41       1.0  T
   3    -50.6352991 -0.175601E-04  0.312E-02    8.40       1.0  T
   4    -50.6353018 -0.271770E-05  0.107E-02    8.41       1.8  T
   5    -50.6353020 -0.213822E-06  0.316E-03    8.41       6.2  T
   6    -50.6353020 -0.130052E-07  0.146E-03    8.41      13.4  T
speedup  0.94
cpu  time for SCC    0.01 s
wall time for SCC    0.01 s
speedup  0.95
cpu  time for grad    0.01 s
wall time for grad    0.01 s
 E :    -50.39746286  G :  0.037930    pred/act E change: -0.400D-02 -0.200D-02
Maxdispl :   0.1746   ||displ|| :   0.3965   Lambda : -0.502D-02
Largest |displ|/coords:  0.1746 (   2)  0.1690 (   4)  0.1172 (  10)
................................................................................
.............................. CYCLE   10 ......................................
................................................................................
   1    -50.6444441 -0.506444E+02  0.274E-01    8.34       0.0  T
   2    -50.6446933 -0.249229E-03  0.199E-01    8.34       1.0  T
   3    -50.6448190 -0.125742E-03  0.790E-02    8.35       1.0  T
   4    -50.6448329 -0.138553E-04  0.278E-02    8.37       1.0  T
   5    -50.6448344 -0.154660E-05  0.784E-03    8.37       2.5  T
   6    -50.6448345 -0.763072E-07  0.396E-03    8.37       5.0  T
   7    -50.6448345 -0.209367E-07  0.113E-03    8.37      17.4  T
speedup  0.97
cpu  time for SCC    0.01 s
wall time for SCC    0.01 s
speedup  0.96
cpu  time for grad    0.01 s
wall time for grad    0.01 s
 E :    -50.40162215  G :  0.044741    pred/act E change: -0.141D-02 -0.416D-02
Maxdispl :   0.2417   ||displ|| :   0.5710   Lambda : -0.897D-02
Largest |displ|/coords:  0.2417 (   2)  0.2383 (  10)  0.1469 (  17)
................................................................................
.............................. CYCLE   11 ......................................
................................................................................
   1    -50.6637478 -0.506637E+02  0.477E-01    8.39       0.0  T
   2    -50.6641707 -0.422947E-03  0.349E-01    8.43       1.0  T
   3    -50.6644333 -0.262560E-03  0.114E-01    8.51       1.0  T
   4    -50.6644656 -0.323298E-04  0.419E-02    8.54       1.0  T
   5    -50.6644687 -0.309147E-05  0.115E-02    8.54       1.7  T
   6    -50.6644689 -0.198302E-06  0.673E-03    8.54       2.9  T
   7    -50.6644689 -0.676475E-07  0.170E-03    8.54      11.5  T
   8    -50.6644690 -0.577205E-08  0.409E-04    8.54      48.0  T
speedup  0.99
cpu  time for SCC    0.01 s
wall time for SCC    0.01 s
speedup  0.97
cpu  time for grad    0.01 s
wall time for grad    0.01 s
 E :    -50.40824673  G :  0.055312    pred/act E change: -0.290D-02 -0.662D-02
Maxdispl :   0.1495   ||displ|| :   0.3674   Lambda : -0.523D-02
Largest |displ|/coords:  0.1495 (   4)  0.1467 (   5)  0.1427 (   9)
................................................................................
.............................. CYCLE   12 ......................................
................................................................................
   1    -50.6673878 -0.506674E+02  0.240E-01    8.54       0.0  T
   2    -50.6674244 -0.366555E-04  0.177E-01    8.56       1.0  T
   3    -50.6674537 -0.292830E-04  0.385E-02    8.62       1.0  T
   4    -50.6674576 -0.387713E-05  0.131E-02    8.62       1.5  T
   5    -50.6674578 -0.266424E-06  0.412E-03    8.62       4.8  T
   6    -50.6674579 -0.304045E-07  0.227E-03    8.62       8.7  T
speedup  0.93
cpu  time for SCC    0.00 s
wall time for SCC    0.01 s
speedup  0.94
cpu  time for grad    0.01 s
wall time for grad    0.01 s
 E :    -50.41264190  G :  0.048877    pred/act E change: -0.595D-02 -0.440D-02
Maxdispl :   0.1797   ||displ|| :   0.5514   Lambda : -0.113D-01
Largest |displ|/coords:  0.1797 (  10)  0.1582 (  15)  0.1418 (  26)
................................................................................
.............................. CYCLE   13 ......................................
................................................................................
   1    -50.6802480 -0.506802E+02  0.436E-01    8.79       0.0  T
   2    -50.6804207 -0.172698E-03  0.323E-01    8.87       1.0  T
   3    -50.6805505 -0.129878E-03  0.769E-02    8.96       1.0  T
   4    -50.6805678 -0.172386E-04  0.269E-02    8.97       1.0  T
   5    -50.6805689 -0.114806E-05  0.847E-03    8.97       2.3  T
   6    -50.6805691 -0.124388E-06  0.461E-03    8.97       4.3  T
   7    -50.6805691 -0.287717E-07  0.143E-03    8.97      13.7  T
speedup  0.97
cpu  time for SCC    0.01 s
wall time for SCC    0.01 s
speedup  0.96
cpu  time for grad    0.01 s
wall time for grad    0.01 s
 E :    -50.42002272  G :  0.045678    pred/act E change: -0.297D-02 -0.738D-02
Maxdispl :   0.2046   ||displ|| :   0.4975   Lambda : -0.686D-02
Largest |displ|/coords:  0.2046 (   5)  0.1491 (  26)  0.1487 (   4)
................................................................................
.............................. CYCLE   14 ......................................
................................................................................
   1    -50.6884661 -0.506885E+02  0.347E-01    8.97       0.0  T
   2    -50.6886581 -0.191973E-03  0.258E-01    8.96       1.0  T
   3    -50.6887731 -0.114993E-03  0.694E-02    8.95       1.0  T
   4    -50.6887957 -0.226409E-04  0.177E-02    8.95       1.1  T
   5    -50.6887964 -0.632693E-06  0.754E-03    8.95       2.6  T
   6    -50.6887964 -0.749894E-07  0.359E-03    8.95       5.5  T
   7    -50.6887965 -0.217485E-07  0.984E-04    8.95      19.9  T
speedup  0.95
cpu  time for SCC    0.01 s
wall time for SCC    0.01 s
speedup  0.95
cpu  time for grad    0.01 s
wall time for grad    0.01 s
 E :    -50.42462855  G :  0.048991    pred/act E change: -0.738D-02 -0.461D-02
Maxdispl :   0.1750   ||displ|| :   0.4252   Lambda : -0.557D-02
Largest |displ|/coords:  0.1750 (   5)  0.1436 (   4)  0.1348 (  24)
................................................................................
.............................. CYCLE   15 ......................................
................................................................................
   1    -50.7009140 -0.507009E+02  0.273E-01    8.95       0.0  T
   2    -50.7011297 -0.215686E-03  0.200E-01    8.95       1.0  T
   3    -50.7012362 -0.106515E-03  0.699E-02    8.96       1.0  T
   4    -50.7012534 -0.171515E-04  0.162E-02    8.95       1.2  T
   5    -50.7012541 -0.672332E-06  0.647E-03    8.95       3.0  T
   6    -50.7012541 -0.508711E-07  0.333E-03    8.96       5.9  T
   7    -50.7012541 -0.161908E-07  0.844E-04    8.95      23.2  T
speedup  0.98
cpu  time for SCC    0.01 s
wall time for SCC    0.01 s
speedup  0.96
cpu  time for grad    0.01 s
wall time for grad    0.01 s
 E :    -50.42868050  G :  0.047421    pred/act E change: -0.428D-02 -0.405D-02
Maxdispl :   0.2119   ||displ|| :   0.5316   Lambda : -0.770D-02
Largest |displ|/coords:  0.2119 (  25)  0.1621 (  24)  0.1558 (   4)
................................................................................
.............................. CYCLE   16 ......................................
................................................................................
   1    -50.7076091 -0.507076E+02  0.400E-01    9.04       0.0  T
   2    -50.7081164 -0.507382E-03  0.286E-01    9.03       1.0  T
   3    -50.7083706 -0.254133E-03  0.108E-01    9.03       1.0  T
   4    -50.7083983 -0.277515E-04  0.264E-02    9.03       1.0  T
   5    -50.7083998 -0.148609E-05  0.983E-03    9.03       2.0  T
   6    -50.7083999 -0.123195E-06  0.504E-03    9.03       3.9  T
   7    -50.7084000 -0.375558E-07  0.146E-03    9.03      13.5  T
speedup  1.13
cpu  time for SCC    0.01 s
wall time for SCC    0.01 s
speedup  1.03
cpu  time for grad    0.01 s
wall time for grad    0.01 s
 E :    -50.43249712  G :  0.057964    pred/act E change: -0.329D-02 -0.382D-02
Maxdispl :   0.2081   ||displ|| :   0.3919   Lambda : -0.670D-02
Largest |displ|/coords:  0.2081 (   4)  0.1266 (  10)  0.1085 (   9)
................................................................................
.............................. CYCLE   17 ......................................
................................................................................
   1    -50.7226829 -0.507227E+02  0.294E-01    8.98       0.0  T
   2    -50.7227808 -0.978559E-04  0.219E-01    8.98       1.0  T
   3    -50.7228654 -0.846428E-04  0.635E-02    8.98       1.0  T
   4    -50.7228756 -0.102480E-04  0.260E-02    8.98       1.0  T
   5    -50.7228767 -0.104396E-05  0.703E-03    8.98       2.8  T
   6    -50.7228768 -0.637184E-07  0.349E-03    8.98       5.6  T
   7    -50.7228768 -0.175750E-07  0.104E-03    8.98      18.8  T
speedup  0.97
cpu  time for SCC    0.01 s
wall time for SCC    0.01 s
speedup  1.04
cpu  time for grad    0.01 s
wall time for grad    0.01 s
 E :    -50.43330211  G :  0.072095    pred/act E change: -0.494D-02 -0.805D-03
Maxdispl :   0.1597   ||displ|| :   0.4012   Lambda : -0.135D-01
Largest |displ|/coords:  0.1597 (  17)  0.1462 (  19)  0.1157 (  10)
................................................................................
.............................. CYCLE   18 ......................................
................................................................................
   1    -50.7058897 -0.507059E+02  0.324E-01    8.98       0.0  T
   2    -50.7060388 -0.149127E-03  0.246E-01    8.98       1.0  T
   3    -50.7062070 -0.168230E-03  0.722E-02    8.98       1.0  T
   4    -50.7062196 -0.125112E-04  0.281E-02    8.99       1.0  T
   5    -50.7062205 -0.986530E-06  0.681E-03    8.98       2.9  T
   6    -50.7062206 -0.574376E-07  0.377E-03    8.98       5.2  T
   7    -50.7062206 -0.170765E-07  0.111E-03    8.98      17.6  T
speedup  0.98
cpu  time for SCC    0.01 s
wall time for SCC    0.01 s
speedup  1.03
cpu  time for grad    0.01 s
wall time for grad    0.01 s
 E :    -50.43285887  G :  0.079201    pred/act E change: -0.386D-02  0.443D-03
Maxdispl :   0.1738   ||displ|| :   0.3874   Lambda : -0.134D-01
Largest |displ|/coords:  0.1738 (  17)  0.1270 (  21)  0.1176 (  19)
................................................................................
.............................. CYCLE   19 ......................................
................................................................................
   1    -50.7258833 -0.507259E+02  0.354E-01    9.10       0.0  T
   2    -50.7260750 -0.191628E-03  0.267E-01    9.10       1.0  T
   3    -50.7262428 -0.167821E-03  0.778E-02    9.10       1.0  T
   4    -50.7262631 -0.203393E-04  0.254E-02    9.10       1.0  T
   5    -50.7262638 -0.712306E-06  0.810E-03    9.10       2.4  T
   6    -50.7262639 -0.665306E-07  0.389E-03    9.10       5.0  T
   7    -50.7262639 -0.252787E-07  0.114E-03    9.10      17.3  T
speedup  0.98
cpu  time for SCC    0.01 s
wall time for SCC    0.01 s
speedup  0.96
cpu  time for grad    0.01 s
wall time for grad    0.01 s
 E :    -50.43662035  G :  0.056125    pred/act E change: -0.782D-02 -0.376D-02
Maxdispl :   0.1380   ||displ|| :   0.3055   Lambda : -0.697D-02
Largest |displ|/coords:  0.1380 (  17)  0.1019 (  19)  0.0980 (   6)
................................................................................
.............................. CYCLE   20 ......................................
................................................................................
   1    -50.7159222 -0.507159E+02  0.258E-01    9.02       0.0  T
   2    -50.7160246 -0.102327E-03  0.195E-01    9.02       1.0  T
   3    -50.7161036 -0.790507E-04  0.565E-02    9.02       1.0  T
   4    -50.7161147 -0.111174E-04  0.193E-02    9.02       1.0  T
   5    -50.7161155 -0.754508E-06  0.681E-03    9.02       2.9  T
   6    -50.7161155 -0.523412E-07  0.291E-03    9.02       6.7  T
   7    -50.7161155 -0.136156E-07  0.839E-04    9.02      23.4  T
speedup  0.97
cpu  time for SCC    0.01 s
wall time for SCC    0.01 s
speedup  0.96
cpu  time for grad    0.01 s
wall time for grad    0.01 s
 E :    -50.43811474  G :  0.042635    pred/act E change: -0.773D-02 -0.149D-02
Maxdispl :   0.1286   ||displ|| :   0.2433   Lambda : -0.272D-02
Largest |displ|/coords:  0.1286 (   4)  0.0917 (   2)  0.0762 (   1)
................................................................................
.............................. CYCLE   21 ......................................
................................................................................
   1    -50.7265253 -0.507265E+02  0.151E-01    9.03       0.0  T
   2    -50.7265734 -0.480610E-04  0.113E-01    9.04       1.0  T
   3    -50.7266054 -0.320608E-04  0.366E-02    9.04       1.0  T
   4    -50.7266102 -0.479748E-05  0.821E-03    9.04       2.4  T
   5    -50.7266103 -0.718418E-07  0.344E-03    9.04       5.7  T
   6    -50.7266103 -0.828881E-08  0.117E-03    9.04      16.7  T
speedup  0.93
cpu  time for SCC    0.00 s
wall time for SCC    0.01 s
speedup  1.02
cpu  time for grad    0.01 s
wall time for grad    0.01 s
 E :    -50.43978292  G :  0.030558    pred/act E change: -0.381D-02 -0.167D-02
Maxdispl :   0.1291   ||displ|| :   0.2901   Lambda : -0.284D-02
Largest |displ|/coords:  0.1291 (   4)  0.1259 (   1)  0.1210 (   2)
................................................................................
.............................. CYCLE   22 ......................................
................................................................................
   1    -50.7259314 -0.507259E+02  0.211E-01    9.13       0.0  T
   2    -50.7259644 -0.330424E-04  0.157E-01    9.13       1.0  T
   3    -50.7259937 -0.292486E-04  0.343E-02    9.13       1.0  T
   4    -50.7259969 -0.321460E-05  0.937E-03    9.13       2.1  T
   5    -50.7259970 -0.149957E-06  0.397E-03    9.13       4.9  T
   6    -50.7259971 -0.305951E-07  0.199E-03    9.13       9.9  T
speedup  0.93
cpu  time for SCC    0.00 s
wall time for SCC    0.01 s
speedup  1.02
cpu  time for grad    0.01 s
wall time for grad    0.01 s
 E :    -50.44048523  G :  0.042075    pred/act E change: -0.144D-02 -0.702D-03
Maxdispl :   0.1539   ||displ|| :   0.2552   Lambda : -0.224D-02
Largest |displ|/coords:  0.1539 (   1)  0.1282 (   4)  0.0563 (  25)
................................................................................
.............................. CYCLE   23 ......................................
................................................................................
   1    -50.7297831 -0.507298E+02  0.163E-01    9.11       0.0  T
   2    -50.7298137 -0.306323E-04  0.121E-01    9.11       1.0  T
   3    -50.7298336 -0.199093E-04  0.317E-02    9.11       1.0  T
   4    -50.7298372 -0.362725E-05  0.957E-03    9.11       2.0  T
   5    -50.7298374 -0.226383E-06  0.361E-03    9.11       5.4  T
   6    -50.7298375 -0.126083E-07  0.174E-03    9.11      11.2  T
speedup  0.94
cpu  time for SCC    0.01 s
wall time for SCC    0.01 s
speedup  0.94
cpu  time for grad    0.01 s
wall time for grad    0.01 s
 E :    -50.44195863  G :  0.024184    pred/act E change: -0.154D-02 -0.147D-02
Maxdispl :   0.1495   ||displ|| :   0.3108   Lambda : -0.227D-02
Largest |displ|/coords:  0.1495 (   1)  0.0988 (   4)  0.0922 (  17)
................................................................................
.............................. CYCLE   24 ......................................
................................................................................
   1    -50.7373863 -0.507374E+02  0.211E-01    9.15       0.0  T
   2    -50.7374165 -0.302524E-04  0.156E-01    9.14       1.0  T
   3    -50.7374377 -0.211621E-04  0.347E-02    9.14       1.0  T
   4    -50.7374410 -0.331132E-05  0.113E-02    9.14       1.7  T
   5    -50.7374413 -0.253548E-06  0.378E-03    9.14       5.2  T
   6    -50.7374413 -0.126570E-07  0.204E-03    9.14       9.6  T
speedup  0.93
cpu  time for SCC    0.00 s
wall time for SCC    0.01 s
speedup  0.94
cpu  time for grad    0.01 s
wall time for grad    0.01 s
 E :    -50.44265364  G :  0.030875    pred/act E change: -0.119D-02 -0.695D-03
Maxdispl :   0.2011   ||displ|| :   0.2899   Lambda : -0.155D-02
Largest |displ|/coords:  0.2011 (   1)  0.1322 (   4)  0.0793 (   3)
................................................................................
.............................. CYCLE   25 ......................................
................................................................................
   1    -50.7299222 -0.507299E+02  0.159E-01    9.14       0.0  T
   2    -50.7299352 -0.130265E-04  0.118E-01    9.14       1.0  T
   3    -50.7299457 -0.104740E-04  0.229E-02    9.14       1.0  T
   4    -50.7299471 -0.148101E-05  0.646E-03    9.14       3.0  T
   5    -50.7299472 -0.640858E-07  0.254E-03    9.14       7.7  T
   6    -50.7299472 -0.831557E-08  0.132E-03    9.14      14.8  T
speedup  0.91
cpu  time for SCC    0.00 s
wall time for SCC    0.01 s
speedup  0.99
cpu  time for grad    0.01 s
wall time for grad    0.01 s
 E :    -50.44345356  G :  0.021741    pred/act E change: -0.124D-02 -0.800D-03
Maxdispl :   0.0889   ||displ|| :   0.1549   Lambda : -0.844D-03
Largest |displ|/coords:  0.0889 (   1)  0.0562 (   4)  0.0531 (  11)

generating ANC from model Hessian ...
 Shifting diagonal of input Hessian by   5.200582952473298E-003
 Lowest  eigenvalues of input Hessian
    0.005000    0.005134   -0.000000   -0.000000   -0.000000   -0.000000
    0.000000    0.000000    0.005263    0.005710    0.005814    0.006260
    0.006401    0.007229    0.007809    0.008352    0.008578    0.010134
 Highest eigenvalues
    1.401824    1.412785    1.467342    2.553640    3.385355    3.596280
 
cpu  time for ANC gen    0.02 s
wall time for ANC gen    0.02 s
................................................................................
.............................. CYCLE   26 ......................................
................................................................................
   1    -50.7334005 -0.507334E+02  0.760E-02    9.17       0.0  T
   2    -50.7334068 -0.631762E-05  0.569E-02    9.17       1.0  T
   3    -50.7334127 -0.585391E-05  0.144E-02    9.17       1.4  T
   4    -50.7334133 -0.594875E-06  0.390E-03    9.17       5.0  T
   5    -50.7334133 -0.217979E-07  0.164E-03    9.17      11.9  T
   6    -50.7334133 -0.443795E-08  0.603E-04    9.17      32.5  T
   7    -50.7334133 -0.721208E-09  0.230E-04    9.17      85.4  T
speedup  0.97
cpu  time for SCC    0.01 s
wall time for SCC    0.01 s
speedup  0.89
cpu  time for grad    0.01 s
wall time for grad    0.02 s
 E :    -50.44378121  G :  0.017071    pred/act E change:  0.000D+00 -0.328D-03
Maxdispl :   0.1374   ||displ|| :   0.2942   Lambda : -0.115D-02
Largest |displ|/coords:  0.1374 (   2)  0.1147 (   4)  0.1106 (   3)
................................................................................
.............................. CYCLE   27 ......................................
................................................................................
   1    -50.7344098 -0.507344E+02  0.137E-01    9.17       0.0  T
   2    -50.7344171 -0.730625E-05  0.103E-01    9.17       1.0  T
   3    -50.7344233 -0.620655E-05  0.144E-02    9.18       1.4  T
   4    -50.7344243 -0.976029E-06  0.414E-03    9.17       4.7  T
   5    -50.7344243 -0.244326E-07  0.211E-03    9.18       9.3  T
   6    -50.7344243 -0.505118E-08  0.774E-04    9.18      25.3  T
speedup  1.13
cpu  time for SCC    0.01 s
wall time for SCC    0.01 s
speedup  1.02
cpu  time for grad    0.01 s
wall time for grad    0.01 s
 E :    -50.44458900  G :  0.006888    pred/act E change:  0.000D+00 -0.808D-03
Maxdispl :   0.2902   ||displ|| :   0.4458   Lambda : -0.954D-03
Largest |displ|/coords:  0.2902 (   2)  0.2280 (   3)  0.1357 (  11)
................................................................................
.............................. CYCLE   28 ......................................
................................................................................
   1    -50.7343513 -0.507344E+02  0.211E-01    9.16       0.0  T
   2    -50.7343631 -0.117970E-04  0.159E-01    9.16       1.0  T
   3    -50.7343726 -0.947686E-05  0.184E-02    9.17       1.1  T
   4    -50.7343742 -0.165067E-05  0.555E-03    9.17       3.5  T
   5    -50.7343743 -0.511306E-07  0.248E-03    9.17       7.9  T
   6    -50.7343743 -0.598127E-08  0.116E-03    9.17      16.9  T
speedup  1.13
cpu  time for SCC    0.01 s
wall time for SCC    0.01 s
speedup  1.02
cpu  time for grad    0.01 s
wall time for grad    0.01 s
 E :    -50.44526309  G :  0.011617    pred/act E change: -0.625D-03 -0.674D-03
Maxdispl :   0.3758   ||displ|| :   0.5541   Lambda : -0.887D-03
Largest |displ|/coords:  0.3758 (   2)  0.3016 (   3)  0.1197 (  20)
................................................................................
.............................. CYCLE   29 ......................................
................................................................................
   1    -50.7324666 -0.507325E+02  0.229E-01    9.12       0.0  T
   2    -50.7324772 -0.106674E-04  0.173E-01    9.12       1.0  T
   3    -50.7324866 -0.940567E-05  0.192E-02    9.12       1.0  T
   4    -50.7324881 -0.141912E-05  0.598E-03    9.12       3.3  T
   5    -50.7324881 -0.510545E-07  0.262E-03    9.12       7.5  T
   6    -50.7324881 -0.965296E-08  0.117E-03    9.12      16.8  T
speedup  1.11
cpu  time for SCC    0.01 s
wall time for SCC    0.01 s
speedup  1.02
cpu  time for grad    0.01 s
wall time for grad    0.01 s
 E :    -50.44596763  G :  0.018547    pred/act E change: -0.572D-03 -0.705D-03
Maxdispl :   0.4495   ||displ|| :   0.6611   Lambda : -0.120D-02
Largest |displ|/coords:  0.4495 (   2)  0.3528 (   3)  0.1215 (  11)
................................................................................
.............................. CYCLE   30 ......................................
................................................................................
   1    -50.7307123 -0.507307E+02  0.261E-01    9.04       0.0  T
   2    -50.7307269 -0.145248E-04  0.196E-01    9.04       1.0  T
   3    -50.7307389 -0.120632E-04  0.256E-02    9.05       1.0  T
   4    -50.7307408 -0.189849E-05  0.728E-03    9.04       2.7  T
   5    -50.7307409 -0.780315E-07  0.271E-03    9.04       7.2  T
   6    -50.7307409 -0.119839E-07  0.144E-03    9.04      13.7  T
speedup  1.11
cpu  time for SCC    0.01 s
wall time for SCC    0.01 s
speedup  1.02
cpu  time for grad    0.01 s
wall time for grad    0.01 s
 E :    -50.44695021  G :  0.017655    pred/act E change: -0.580D-03 -0.983D-03
Maxdispl :   0.4246   ||displ|| :   0.6372   Lambda : -0.135D-02
Largest |displ|/coords:  0.4246 (   2)  0.3238 (   3)  0.1261 (   6)
................................................................................
.............................. CYCLE   31 ......................................
................................................................................
   1    -50.7324387 -0.507324E+02  0.229E-01    8.99       0.0  T
   2    -50.7324493 -0.106744E-04  0.171E-01    8.99       1.0  T
   3    -50.7324599 -0.105598E-04  0.225E-02    9.00       1.0  T
   4    -50.7324609 -0.105160E-05  0.739E-03    9.00       2.7  T
   5    -50.7324610 -0.802606E-07  0.255E-03    9.00       7.7  T
   6    -50.7324610 -0.822622E-08  0.151E-03    9.00      12.9  T
speedup  1.13
cpu  time for SCC    0.01 s
wall time for SCC    0.01 s
speedup  1.01
cpu  time for grad    0.01 s
wall time for grad    0.01 s
 E :    -50.44801010  G :  0.013584    pred/act E change: -0.862D-03 -0.106D-02
Maxdispl :   0.4607   ||displ|| :   0.6685   Lambda : -0.118D-02
Largest |displ|/coords:  0.4607 (   2)  0.3288 (   3)  0.1495 (   6)
................................................................................
.............................. CYCLE   32 ......................................
................................................................................
   1    -50.7302129 -0.507302E+02  0.260E-01    9.01       0.0  T
   2    -50.7302286 -0.157894E-04  0.196E-01    9.01       1.0  T
   3    -50.7302453 -0.166071E-04  0.246E-02    9.02       1.0  T
   4    -50.7302468 -0.156794E-05  0.927E-03    9.02       2.1  T
   5    -50.7302469 -0.119243E-06  0.334E-03    9.02       5.9  T
   6    -50.7302470 -0.140103E-07  0.194E-03    9.02      10.1  T
   7    -50.7302470 -0.613128E-08  0.358E-04    9.02      54.7  T
speedup  0.97
cpu  time for SCC    0.01 s
wall time for SCC    0.01 s
speedup  0.96
cpu  time for grad    0.01 s
wall time for grad    0.01 s
 E :    -50.44885236  G :  0.018791    pred/act E change: -0.946D-03 -0.842D-03
Maxdispl :   0.2848   ||displ|| :   0.4874   Lambda : -0.138D-02
Largest |displ|/coords:  0.2848 (   2)  0.1714 (   3)  0.1556 (   6)
................................................................................
.............................. CYCLE   33 ......................................
................................................................................
   1    -50.7428313 -0.507428E+02  0.220E-01    9.29       0.0  T
   2    -50.7428491 -0.178480E-04  0.164E-01    9.29       1.0  T
   3    -50.7428591 -0.997288E-05  0.281E-02    9.28       1.0  T
   4    -50.7428615 -0.238037E-05  0.104E-02    9.28       1.9  T
   5    -50.7428616 -0.151684E-06  0.256E-03    9.28       7.7  T
   6    -50.7428616 -0.623221E-08  0.158E-03    9.28      12.4  T
speedup  0.94
cpu  time for SCC    0.00 s
wall time for SCC    0.01 s
speedup  0.94
cpu  time for grad    0.01 s
wall time for grad    0.01 s
 E :    -50.44883015  G :  0.030543    pred/act E change: -0.853D-03  0.222D-04
Maxdispl :   0.2460   ||displ|| :   0.3618   Lambda : -0.168D-02
Largest |displ|/coords:  0.2460 (   2)  0.1702 (   3)  0.0742 (  11)
................................................................................
.............................. CYCLE   34 ......................................
................................................................................
   1    -50.7353015 -0.507353E+02  0.176E-01    9.09       0.0  T
   2    -50.7353141 -0.125898E-04  0.132E-01    9.10       1.0  T
   3    -50.7353264 -0.123353E-04  0.220E-02    9.11       1.0  T
   4    -50.7353276 -0.116896E-05  0.662E-03    9.11       3.0  T
   5    -50.7353276 -0.784017E-07  0.268E-03    9.11       7.3  T
   6    -50.7353277 -0.111359E-07  0.150E-03    9.11      13.1  T
speedup  1.13
cpu  time for SCC    0.01 s
wall time for SCC    0.01 s
speedup  1.03
cpu  time for grad    0.01 s
wall time for grad    0.01 s
 E :    -50.44970543  G :  0.009990    pred/act E change: -0.855D-03 -0.875D-03
Maxdispl :   0.1927   ||displ|| :   0.2773   Lambda : -0.458D-03
Largest |displ|/coords:  0.1927 (   2)  0.1172 (   3)  0.0588 (  17)
................................................................................
.............................. CYCLE   35 ......................................
................................................................................
   1    -50.7331411 -0.507331E+02  0.130E-01    9.06       0.0  T
   2    -50.7331464 -0.531756E-05  0.975E-02    9.06       1.0  T
   3    -50.7331511 -0.471290E-05  0.139E-02    9.07       1.4  T
   4    -50.7331518 -0.661542E-06  0.493E-03    9.06       4.0  T
   5    -50.7331518 -0.343007E-07  0.167E-03    9.06      11.7  T
   6    -50.7331518 -0.402846E-08  0.891E-04    9.06      22.0  T
speedup  1.13
cpu  time for SCC    0.01 s
wall time for SCC    0.01 s
speedup  1.03
cpu  time for grad    0.01 s
wall time for grad    0.01 s
 E :    -50.44984594  G :  0.016340    pred/act E change: -0.950D-03 -0.141D-03
Maxdispl :   0.1438   ||displ|| :   0.2293   Lambda : -0.543D-03
Largest |displ|/coords:  0.1438 (   2)  0.0961 (   3)  0.0529 (   1)
................................................................................
.............................. CYCLE   36 ......................................
................................................................................
   1    -50.7369229 -0.507369E+02  0.111E-01    9.14       0.0  T
   2    -50.7369292 -0.632348E-05  0.825E-02    9.14       1.0  T
   3    -50.7369334 -0.413107E-05  0.161E-02    9.14       1.2  T
   4    -50.7369342 -0.807412E-06  0.491E-03    9.14       4.0  T
   5    -50.7369342 -0.542490E-07  0.167E-03    9.14      11.8  T
   6    -50.7369342 -0.242626E-08  0.927E-04    9.14      21.1  T
speedup  1.11
cpu  time for SCC    0.01 s
wall time for SCC    0.01 s
speedup  1.02
cpu  time for grad    0.01 s
wall time for grad    0.01 s
 E :    -50.45012223  G :  0.012187    pred/act E change: -0.246D-03 -0.276D-03
Maxdispl :   0.2125   ||displ|| :   0.3326   Lambda : -0.515D-03
Largest |displ|/coords:  0.2125 (   2)  0.1619 (   3)  0.1246 (   1)
................................................................................
.............................. CYCLE   37 ......................................
................................................................................
   1    -50.7397994 -0.507398E+02  0.146E-01    9.21       0.0  T
   2    -50.7398070 -0.755289E-05  0.109E-01    9.21       1.0  T
   3    -50.7398104 -0.340419E-05  0.179E-02    9.21       1.1  T
   4    -50.7398116 -0.125172E-05  0.540E-03    9.21       3.6  T
   5    -50.7398117 -0.531664E-07  0.154E-03    9.21      12.7  T
   6    -50.7398117 -0.182041E-08  0.876E-04    9.21      22.4  T
speedup  1.11
cpu  time for SCC    0.01 s
wall time for SCC    0.01 s
speedup  1.02
cpu  time for grad    0.01 s
wall time for grad    0.01 s
 E :    -50.45036725  G :  0.008343    pred/act E change: -0.286D-03 -0.245D-03
Maxdispl :   0.2457   ||displ|| :   0.4020   Lambda : -0.406D-03
Largest |displ|/coords:  0.2457 (   2)  0.2081 (   3)  0.1378 (   1)
................................................................................
.............................. CYCLE   38 ......................................
................................................................................
   1    -50.7365660 -0.507366E+02  0.169E-01    9.12       0.0  T
   2    -50.7365704 -0.442610E-05  0.127E-01    9.12       1.0  T
   3    -50.7365749 -0.442042E-05  0.141E-02    9.12       1.4  T
   4    -50.7365753 -0.414119E-06  0.347E-03    9.12       5.7  T
   5    -50.7365753 -0.198952E-07  0.170E-03    9.12      11.5  T
   6    -50.7365753 -0.454985E-08  0.792E-04    9.12      24.7  T
speedup  1.09
cpu  time for SCC    0.01 s
wall time for SCC    0.01 s
speedup  1.02
cpu  time for grad    0.01 s
wall time for grad    0.01 s
 E :    -50.45053744  G :  0.012346    pred/act E change: -0.286D-03 -0.170D-03
Maxdispl :   0.1955   ||displ|| :   0.3106   Lambda : -0.551D-03
Largest |displ|/coords:  0.1955 (   1)  0.1201 (   3)  0.1040 (   2)
................................................................................
.............................. CYCLE   39 ......................................
................................................................................
   1    -50.7379450 -0.507379E+02  0.135E-01    9.10       0.0  T
   2    -50.7379479 -0.297496E-05  0.102E-01    9.10       1.0  T
   3    -50.7379509 -0.295007E-05  0.883E-03    9.10       2.2  T
   4    -50.7379512 -0.314481E-06  0.336E-03    9.10       5.8  T
   5    -50.7379512 -0.185025E-07  0.132E-03    9.10      14.9  T
   6    -50.7379512 -0.313420E-08  0.563E-04    9.10      34.8  T
speedup  0.94
cpu  time for SCC    0.00 s
wall time for SCC    0.01 s
speedup  0.95
cpu  time for grad    0.01 s
wall time for grad    0.01 s
 E :    -50.45079527  G :  0.009804    pred/act E change: -0.236D-03 -0.258D-03
Maxdispl :   0.1952   ||displ|| :   0.3379   Lambda : -0.393D-03
Largest |displ|/coords:  0.1952 (   2)  0.1561 (   3)  0.1438 (   1)
................................................................................
.............................. CYCLE   40 ......................................
................................................................................
   1    -50.7369950 -0.507370E+02  0.115E-01    9.17       0.0  T
   2    -50.7370016 -0.659581E-05  0.852E-02    9.17       1.0  T
   3    -50.7370050 -0.331985E-05  0.168E-02    9.18       1.2  T
   4    -50.7370059 -0.953385E-06  0.479E-03    9.18       4.1  T
   5    -50.7370060 -0.491816E-07  0.162E-03    9.18      12.1  T
   6    -50.7370060 -0.352419E-08  0.904E-04    9.18      21.7  T
speedup  0.93
cpu  time for SCC    0.01 s
wall time for SCC    0.01 s
speedup  0.94
cpu  time for grad    0.01 s
wall time for grad    0.01 s
 E :    -50.45095267  G :  0.013209    pred/act E change: -0.302D-03 -0.157D-03
Maxdispl :   0.1665   ||displ|| :   0.3081   Lambda : -0.393D-03
Largest |displ|/coords:  0.1665 (   2)  0.1382 (   3)  0.1292 (   1)
................................................................................
.............................. CYCLE   41 ......................................
................................................................................
   1    -50.7390022 -0.507390E+02  0.107E-01    9.15       0.0  T
   2    -50.7390043 -0.205507E-05  0.800E-02    9.15       1.0  T
   3    -50.7390060 -0.174386E-05  0.823E-03    9.15       2.4  T
   4    -50.7390063 -0.242812E-06  0.375E-03    9.15       5.2  T
   5    -50.7390063 -0.152917E-07  0.103E-03    9.15      19.0  T
   6    -50.7390063 -0.118606E-08  0.626E-04    9.15      31.3  T
speedup  0.93
cpu  time for SCC    0.00 s
wall time for SCC    0.01 s
speedup  0.94
cpu  time for grad    0.01 s
wall time for grad    0.01 s
 E :    -50.45116430  G :  0.006565    pred/act E change: -0.219D-03 -0.212D-03
Maxdispl :   0.1967   ||displ|| :   0.3668   Lambda : -0.277D-03
Largest |displ|/coords:  0.1967 (   2)  0.1726 (   3)  0.1610 (   1)
................................................................................
.............................. CYCLE   42 ......................................
................................................................................
   1    -50.7385753 -0.507386E+02  0.139E-01    9.13       0.0  T
   2    -50.7385789 -0.356846E-05  0.105E-01    9.13       1.0  T
   3    -50.7385828 -0.387829E-05  0.949E-03    9.13       2.1  T
   4    -50.7385831 -0.324000E-06  0.428E-03    9.13       4.6  T
   5    -50.7385831 -0.210121E-07  0.139E-03    9.13      14.1  T
   6    -50.7385831 -0.272837E-08  0.741E-04    9.13      26.5  T
speedup  0.93
cpu  time for SCC    0.00 s
wall time for SCC    0.01 s
speedup  0.94
cpu  time for grad    0.01 s
wall time for grad    0.01 s
 E :    -50.45128315  G :  0.010077    pred/act E change: -0.215D-03 -0.119D-03
Maxdispl :   0.2400   ||displ|| :   0.3777   Lambda : -0.292D-03
Largest |displ|/coords:  0.2400 (   1)  0.1687 (   2)  0.1406 (   3)
................................................................................
.............................. CYCLE   43 ......................................
................................................................................
   1    -50.7377452 -0.507377E+02  0.142E-01    9.12       0.0  T
   2    -50.7377502 -0.494553E-05  0.108E-01    9.12       1.0  T
   3    -50.7377545 -0.431460E-05  0.115E-02    9.13       1.7  T
   4    -50.7377551 -0.627502E-06  0.451E-03    9.13       4.3  T
   5    -50.7377552 -0.259149E-07  0.155E-03    9.13      12.7  T
   6    -50.7377552 -0.309968E-08  0.776E-04    9.13      25.3  T
speedup  0.94
cpu  time for SCC    0.00 s
wall time for SCC    0.01 s
speedup  1.02
cpu  time for grad    0.01 s
wall time for grad    0.01 s
 E :    -50.45137798  G :  0.011583    pred/act E change: -0.157D-03 -0.948D-04
Maxdispl :   0.1752   ||displ|| :   0.2580   Lambda : -0.288D-03
Largest |displ|/coords:  0.1752 (   2)  0.1029 (   3)  0.0647 (   1)
................................................................................
.............................. CYCLE   44 ......................................
................................................................................
   1    -50.7381786 -0.507382E+02  0.991E-02    9.17       0.0  T
   2    -50.7381826 -0.406428E-05  0.750E-02    9.17       1.0  T
   3    -50.7381852 -0.255716E-05  0.127E-02    9.17       1.5  T
   4    -50.7381859 -0.649456E-06  0.449E-03    9.17       4.4  T
   5    -50.7381859 -0.338525E-07  0.129E-03    9.17      15.2  T
   6    -50.7381859 -0.165207E-08  0.706E-04    9.17      27.8  T
speedup  0.94
cpu  time for SCC    0.00 s
wall time for SCC    0.01 s
speedup  0.94
cpu  time for grad    0.01 s
wall time for grad    0.01 s
 E :    -50.45148319  G :  0.009848    pred/act E change: -0.167D-03 -0.105D-03
Maxdispl :   0.1379   ||displ|| :   0.2589   Lambda : -0.246D-03
Largest |displ|/coords:  0.1379 (   2)  0.1190 (   3)  0.1126 (   1)
................................................................................
.............................. CYCLE   45 ......................................
................................................................................
   1    -50.7366473 -0.507366E+02  0.109E-01    9.19       0.0  T
   2    -50.7366519 -0.463374E-05  0.816E-02    9.19       1.0  T
   3    -50.7366543 -0.233628E-05  0.124E-02    9.19       1.6  T
   4    -50.7366551 -0.810300E-06  0.407E-03    9.19       4.8  T
   5    -50.7366551 -0.322802E-07  0.131E-03    9.19      15.0  T
   6    -50.7366551 -0.217517E-08  0.697E-04    9.19      28.1  T
speedup  0.91
cpu  time for SCC    0.01 s
wall time for SCC    0.01 s
speedup  1.00
cpu  time for grad    0.01 s
wall time for grad    0.01 s
 E :    -50.45156134  G :  0.009187    pred/act E change: -0.154D-03 -0.782D-04
Maxdispl :   0.1492   ||displ|| :   0.2694   Lambda : -0.317D-03
Largest |displ|/coords:  0.1492 (   6)  0.1422 (   1)  0.1051 (   2)
................................................................................
.............................. CYCLE   46 ......................................
................................................................................
   1    -50.7434188 -0.507434E+02  0.841E-02    9.24       0.0  T
   2    -50.7434237 -0.494916E-05  0.625E-02    9.24       1.0  T
   3    -50.7434266 -0.289001E-05  0.127E-02    9.24       1.5  T
   4    -50.7434272 -0.614845E-06  0.303E-03    9.24       6.5  T
   5    -50.7434272 -0.232452E-07  0.127E-03    9.24      15.4  T
   6    -50.7434272 -0.132049E-08  0.702E-04    9.24      27.9  T
speedup  0.94
cpu  time for SCC    0.00 s
wall time for SCC    0.01 s
speedup  1.02
cpu  time for grad    0.01 s
wall time for grad    0.01 s
 E :    -50.45152877  G :  0.011661    pred/act E change: -0.131D-03  0.326D-04
Maxdispl :   0.1861   ||displ|| :   0.3263   Lambda : -0.425D-03
Largest |displ|/coords:  0.1861 (   2)  0.1622 (   1)  0.1615 (   3)
................................................................................
.............................. CYCLE   47 ......................................
................................................................................
   1    -50.7386857 -0.507387E+02  0.123E-01    9.14       0.0  T
   2    -50.7386899 -0.421039E-05  0.916E-02    9.14       1.0  T
   3    -50.7386932 -0.331517E-05  0.134E-02    9.15       1.5  T
   4    -50.7386937 -0.483391E-06  0.455E-03    9.14       4.3  T
   5    -50.7386938 -0.322630E-07  0.146E-03    9.14      13.4  T
   6    -50.7386938 -0.203983E-08  0.844E-04    9.14      23.2  T
speedup  1.09
cpu  time for SCC    0.01 s
wall time for SCC    0.01 s
speedup  1.00
cpu  time for grad    0.01 s
wall time for grad    0.01 s
 E :    -50.45176489  G :  0.006471    pred/act E change: -0.170D-03 -0.236D-03
Maxdispl :   0.2007   ||displ|| :   0.3333   Lambda : -0.175D-03
Largest |displ|/coords:  0.2007 (   1)  0.1536 (   3)  0.1503 (   2)
................................................................................
.............................. CYCLE   48 ......................................
................................................................................
   1    -50.7377341 -0.507377E+02  0.108E-01    9.18       0.0  T
   2    -50.7377368 -0.270221E-05  0.811E-02    9.18       1.0  T
   3    -50.7377381 -0.135616E-05  0.105E-02    9.18       1.9  T
   4    -50.7377386 -0.511566E-06  0.338E-03    9.18       5.8  T
   5    -50.7377386 -0.130406E-07  0.105E-03    9.18      18.7  T
   6    -50.7377386 -0.134242E-08  0.552E-04    9.18      35.5  T
speedup  0.96
cpu  time for SCC    0.00 s
wall time for SCC    0.01 s
speedup  0.94
cpu  time for grad    0.01 s
wall time for grad    0.01 s
 E :    -50.45187893  G :  0.008220    pred/act E change: -0.235D-03 -0.114D-03
Maxdispl :   0.3076   ||displ|| :   0.4631   Lambda : -0.225D-03
Largest |displ|/coords:  0.3076 (   1)  0.2184 (   3)  0.1427 (   2)
................................................................................
.............................. CYCLE   49 ......................................
................................................................................
   1    -50.7374135 -0.507374E+02  0.137E-01    9.17       0.0  T
   2    -50.7374180 -0.458858E-05  0.103E-01    9.17       1.0  T
   3    -50.7374207 -0.265168E-05  0.132E-02    9.17       1.5  T
   4    -50.7374215 -0.822881E-06  0.447E-03    9.17       4.4  T
   5    -50.7374215 -0.207750E-07  0.142E-03    9.17      13.8  T
   6    -50.7374215 -0.313726E-08  0.781E-04    9.17      25.1  T
speedup  0.75
cpu  time for SCC    0.00 s
wall time for SCC    0.01 s
speedup  0.94
cpu  time for grad    0.01 s
wall time for grad    0.01 s
 E :    -50.45203203  G :  0.009519    pred/act E change: -0.971D-04 -0.153D-03
Maxdispl :   0.3660   ||displ|| :   0.5117   Lambda : -0.405D-03
Largest |displ|/coords:  0.3660 (   1)  0.2441 (   3)  0.1486 (   6)
................................................................................
.............................. CYCLE   50 ......................................
................................................................................
   1    -50.7403181 -0.507403E+02  0.178E-01    9.17       0.0  T
   2    -50.7403287 -0.106558E-04  0.134E-01    9.17       1.0  T
   3    -50.7403357 -0.690247E-05  0.196E-02    9.16       1.0  T
   4    -50.7403374 -0.174746E-05  0.556E-03    9.16       3.5  T
   5    -50.7403374 -0.414295E-07  0.201E-03    9.16       9.8  T
   6    -50.7403374 -0.452108E-08  0.104E-03    9.16      18.9  T
speedup  0.94
cpu  time for SCC    0.00 s
wall time for SCC    0.01 s
speedup  1.01
cpu  time for grad    0.01 s
wall time for grad    0.01 s
 E :    -50.45229764  G :  0.007239    pred/act E change: -0.137D-03 -0.266D-03
Maxdispl :   0.4321   ||displ|| :   0.5748   Lambda : -0.503D-03
Largest |displ|/coords:  0.4321 (   1)  0.2024 (   6)  0.1823 (   3)
................................................................................
.............................. CYCLE   51 ......................................
................................................................................
   1    -50.7432431 -0.507432E+02  0.181E-01    9.24       0.0  T
   2    -50.7432489 -0.577794E-05  0.136E-01    9.23       1.0  T
   3    -50.7432549 -0.596206E-05  0.151E-02    9.23       1.3  T
   4    -50.7432554 -0.502614E-06  0.419E-03    9.23       4.7  T
   5    -50.7432554 -0.300988E-07  0.182E-03    9.23      10.8  T
   6    -50.7432554 -0.530789E-08  0.928E-04    9.23      21.1  T
speedup  1.11
cpu  time for SCC    0.01 s
wall time for SCC    0.01 s
speedup  1.01
cpu  time for grad    0.01 s
wall time for grad    0.01 s
 E :    -50.45260013  G :  0.011310    pred/act E change: -0.255D-03 -0.302D-03
Maxdispl :   0.3839   ||displ|| :   0.5639   Lambda : -0.488D-03
Largest |displ|/coords:  0.3839 (   1)  0.3150 (   3)  0.1461 (   6)
................................................................................
.............................. CYCLE   52 ......................................
................................................................................
   1    -50.7426681 -0.507427E+02  0.176E-01    9.14       0.0  T
   2    -50.7426744 -0.636926E-05  0.133E-01    9.14       1.0  T
   3    -50.7426797 -0.530871E-05  0.140E-02    9.15       1.4  T
   4    -50.7426805 -0.795738E-06  0.528E-03    9.14       3.7  T
   5    -50.7426806 -0.307179E-07  0.166E-03    9.14      11.8  T
   6    -50.7426806 -0.160001E-08  0.833E-04    9.14      23.6  T
speedup  0.94
cpu  time for SCC    0.00 s
wall time for SCC    0.01 s
speedup  1.01
cpu  time for grad    0.01 s
wall time for grad    0.01 s
 E :    -50.45284963  G :  0.013590    pred/act E change: -0.335D-03 -0.249D-03
Maxdispl :   0.3099   ||displ|| :   0.4454   Lambda : -0.471D-03
Largest |displ|/coords:  0.3099 (   1)  0.1921 (   3)  0.1158 (   6)

generating ANC from model Hessian ...
 Shifting diagonal of input Hessian by   4.965401446401067E-003
 Lowest  eigenvalues of input Hessian
   -0.000000   -0.000000   -0.000000    0.000000    0.000000    0.000000
    0.005000    0.005094    0.005431    0.005769    0.005844    0.006518
    0.006939    0.007665    0.008410    0.009015    0.010248    0.011602
 Highest eigenvalues
    1.399412    1.402589    1.482244    2.549218    3.398625    3.583257
 
cpu  time for ANC gen    0.02 s
wall time for ANC gen    0.02 s
................................................................................
.............................. CYCLE   53 ......................................
................................................................................
   1    -50.7407081 -0.507407E+02  0.163E-01    9.08       0.0  T
   2    -50.7407138 -0.562552E-05  0.123E-01    9.08       1.0  T
   3    -50.7407192 -0.548328E-05  0.126E-02    9.08       1.6  T
   4    -50.7407199 -0.633714E-06  0.530E-03    9.08       3.7  T
   5    -50.7407199 -0.366071E-07  0.165E-03    9.08      11.9  T
   6    -50.7407199 -0.293767E-08  0.816E-04    9.08      24.0  T
   7    -50.7407199 -0.165339E-08  0.244E-04    9.08      80.2  T
speedup  0.98
cpu  time for SCC    0.01 s
wall time for SCC    0.01 s
speedup  0.98
cpu  time for grad    0.01 s
wall time for grad    0.01 s
 E :    -50.45304807  G :  0.014089    pred/act E change:  0.000D+00 -0.198D-03
Maxdispl :   0.0876   ||displ|| :   0.1741   Lambda : -0.578D-03
Largest |displ|/coords:  0.0876 (   4)  0.0838 (   3)  0.0724 (  10)
................................................................................
.............................. CYCLE   54 ......................................
................................................................................
   1    -50.7426864 -0.507427E+02  0.165E-01    9.12       0.0  T
   2    -50.7426916 -0.519651E-05  0.125E-01    9.12       1.0  T
   3    -50.7426974 -0.586630E-05  0.122E-02    9.12       1.6  T
   4    -50.7426978 -0.397291E-06  0.401E-03    9.12       4.9  T
   5    -50.7426979 -0.191915E-07  0.162E-03    9.12      12.1  T
   6    -50.7426979 -0.204795E-08  0.802E-04    9.12      24.5  T
speedup  1.13
cpu  time for SCC    0.01 s
wall time for SCC    0.01 s
speedup  1.01
cpu  time for grad    0.01 s
wall time for grad    0.01 s
 E :    -50.45338306  G :  0.008277    pred/act E change:  0.000D+00 -0.335D-03
Maxdispl :   0.1034   ||displ|| :   0.1482   Lambda : -0.249D-03
Largest |displ|/coords:  0.1034 (   3)  0.0632 (   5)  0.0331 (   4)
................................................................................
.............................. CYCLE   55 ......................................
................................................................................
   1    -50.7447662 -0.507448E+02  0.907E-02    9.16       0.0  T
   2    -50.7447689 -0.267996E-05  0.678E-02    9.16       1.0  T
   3    -50.7447705 -0.165369E-05  0.124E-02    9.15       1.6  T
   4    -50.7447709 -0.372886E-06  0.323E-03    9.16       6.1  T
   5    -50.7447709 -0.152134E-07  0.909E-04    9.16      21.6  T
   6    -50.7447709 -0.660911E-09  0.479E-04    9.16      40.9  T
speedup  0.93
cpu  time for SCC    0.00 s
wall time for SCC    0.01 s
speedup  1.01
cpu  time for grad    0.01 s
wall time for grad    0.01 s
 E :    -50.45354807  G :  0.005281    pred/act E change: -0.298D-03 -0.165D-03
Maxdispl :   0.1423   ||displ|| :   0.2047   Lambda : -0.170D-03
Largest |displ|/coords:  0.1423 (   3)  0.0859 (   5)  0.0791 (   4)
................................................................................
.............................. CYCLE   56 ......................................
................................................................................
   1    -50.7457206 -0.507457E+02  0.101E-01    9.19       0.0  T
   2    -50.7457232 -0.260689E-05  0.754E-02    9.19       1.0  T
   3    -50.7457248 -0.157520E-05  0.126E-02    9.19       1.6  T
   4    -50.7457252 -0.374987E-06  0.346E-03    9.19       5.7  T
   5    -50.7457252 -0.146801E-07  0.939E-04    9.19      20.9  T
   6    -50.7457252 -0.754063E-09  0.512E-04    9.19      38.3  T
speedup  0.94
cpu  time for SCC    0.00 s
wall time for SCC    0.01 s
speedup  1.01
cpu  time for grad    0.01 s
wall time for grad    0.01 s
 E :    -50.45367267  G :  0.004342    pred/act E change: -0.127D-03 -0.125D-03
Maxdispl :   0.2177   ||displ|| :   0.3229   Lambda : -0.182D-03
Largest |displ|/coords:  0.2177 (   3)  0.1673 (   5)  0.0994 (   4)
................................................................................
.............................. CYCLE   57 ......................................
................................................................................
   1    -50.7450064 -0.507450E+02  0.171E-01    9.21       0.0  T
   2    -50.7450117 -0.532491E-05  0.129E-01    9.21       1.0  T
   3    -50.7450167 -0.493891E-05  0.166E-02    9.21       1.2  T
   4    -50.7450172 -0.576263E-06  0.494E-03    9.21       4.0  T
   5    -50.7450173 -0.215301E-07  0.142E-03    9.21      13.8  T
   6    -50.7450173 -0.152736E-08  0.755E-04    9.21      26.0  T
speedup  1.11
cpu  time for SCC    0.01 s
wall time for SCC    0.01 s
speedup  1.06
cpu  time for grad    0.01 s
wall time for grad    0.01 s
 E :    -50.45378971  G :  0.005683    pred/act E change: -0.887D-04 -0.117D-03
Maxdispl :   0.1832   ||displ|| :   0.2964   Lambda : -0.160D-03
Largest |displ|/coords:  0.1832 (   3)  0.1636 (   5)  0.0788 (   4)
................................................................................
.............................. CYCLE   58 ......................................
................................................................................
   1    -50.7453832 -0.507454E+02  0.140E-01    9.19       0.0  T
   2    -50.7453879 -0.472431E-05  0.105E-01    9.19       1.0  T
   3    -50.7453920 -0.409856E-05  0.148E-02    9.19       1.3  T
   4    -50.7453925 -0.539031E-06  0.437E-03    9.19       4.5  T
   5    -50.7453926 -0.287662E-07  0.135E-03    9.19      14.5  T
   6    -50.7453926 -0.151132E-08  0.788E-04    9.19      24.9  T
speedup  0.94
cpu  time for SCC    0.00 s
wall time for SCC    0.01 s
speedup  1.01
cpu  time for grad    0.01 s
wall time for grad    0.01 s
 E :    -50.45384120  G :  0.009928    pred/act E change: -0.100D-03 -0.515D-04
Maxdispl :   0.1044   ||displ|| :   0.1917   Lambda : -0.152D-03
Largest |displ|/coords:  0.1044 (   4)  0.1007 (   3)  0.0841 (   5)
................................................................................
.............................. CYCLE   59 ......................................
................................................................................
   1    -50.7450088 -0.507450E+02  0.102E-01    9.17       0.0  T
   2    -50.7450112 -0.245187E-05  0.768E-02    9.17       1.0  T
   3    -50.7450130 -0.176572E-05  0.927E-03    9.17       2.1  T
   4    -50.7450134 -0.344721E-06  0.279E-03    9.17       7.0  T
   5    -50.7450134 -0.162821E-07  0.979E-04    9.17      20.0  T
speedup  1.14
cpu  time for SCC    0.00 s
wall time for SCC    0.00 s
speedup  1.01
cpu  time for grad    0.01 s
wall time for grad    0.01 s
 E :    -50.45392343  G :  0.005663    pred/act E change: -0.868D-04 -0.822D-04
Maxdispl :   0.0277   ||displ|| :   0.0671   Lambda : -0.741D-04
Largest |displ|/coords:  0.0277 (   3)  0.0236 (   9)  0.0218 (   5)
................................................................................
.............................. CYCLE   60 ......................................
................................................................................
   1    -50.7457534 -0.507458E+02  0.475E-02    9.16       0.0  T
   2    -50.7457543 -0.875881E-06  0.356E-02    9.16       1.0  T
   3    -50.7457548 -0.474882E-06  0.658E-03    9.16       3.0  T
   4    -50.7457549 -0.149853E-06  0.158E-03    9.16      12.4  T
   5    -50.7457549 -0.468047E-08  0.593E-04    9.16      33.0  T
speedup  0.89
cpu  time for SCC    0.00 s
wall time for SCC    0.00 s
speedup  1.00
cpu  time for grad    0.01 s
wall time for grad    0.01 s
 E :    -50.45397489  G :  0.004231    pred/act E change: -0.790D-04 -0.515D-04
Maxdispl :   0.1100   ||displ|| :   0.1871   Lambda : -0.863D-04
Largest |displ|/coords:  0.1100 (   5)  0.0654 (   3)  0.0513 (   1)
................................................................................
.............................. CYCLE   61 ......................................
................................................................................
   1    -50.7463324 -0.507463E+02  0.986E-02    9.14       0.0  T
   2    -50.7463348 -0.241283E-05  0.745E-02    9.14       1.0  T
   3    -50.7463370 -0.218265E-05  0.934E-03    9.14       2.1  T
   4    -50.7463373 -0.318685E-06  0.291E-03    9.14       6.7  T
   5    -50.7463373 -0.121158E-07  0.997E-04    9.14      19.7  T
speedup  1.11
cpu  time for SCC    0.01 s
wall time for SCC    0.00 s
speedup  1.00
cpu  time for grad    0.01 s
wall time for grad    0.01 s
 E :    -50.45403084  G :  0.003546    pred/act E change: -0.372D-04 -0.560D-04
Maxdispl :   0.1075   ||displ|| :   0.2183   Lambda : -0.588D-04
Largest |displ|/coords:  0.1075 (   5)  0.1058 (   3)  0.0565 (   4)
................................................................................
.............................. CYCLE   62 ......................................
................................................................................
   1    -50.7455390 -0.507455E+02  0.120E-01    9.12       0.0  T
   2    -50.7455415 -0.249231E-05  0.905E-02    9.12       1.0  T
   3    -50.7455442 -0.272014E-05  0.920E-03    9.11       2.1  T
   4    -50.7455444 -0.221533E-06  0.320E-03    9.11       6.1  T
   5    -50.7455444 -0.111245E-07  0.946E-04    9.11      20.7  T
   6    -50.7455444 -0.925482E-09  0.529E-04    9.11      37.1  T
speedup  0.93
cpu  time for SCC    0.00 s
wall time for SCC    0.01 s
speedup  0.96
cpu  time for grad    0.01 s
wall time for grad    0.01 s
 E :    -50.45406124  G :  0.005148    pred/act E change: -0.446D-04 -0.304D-04
Maxdispl :   0.0520   ||displ|| :   0.1164   Lambda : -0.631D-04
Largest |displ|/coords:  0.0520 (   5)  0.0366 (  21)  0.0343 (  10)
................................................................................
.............................. CYCLE   63 ......................................
................................................................................
   1    -50.7472279 -0.507472E+02  0.668E-02    9.14       0.0  T
   2    -50.7472290 -0.114108E-05  0.502E-02    9.13       1.0  T
   3    -50.7472300 -0.100950E-05  0.693E-03    9.13       2.8  T
   4    -50.7472302 -0.131926E-06  0.224E-03    9.13       8.7  T
   5    -50.7472302 -0.892075E-08  0.662E-04    9.13      29.6  T
speedup  0.87
cpu  time for SCC    0.00 s
wall time for SCC    0.00 s
speedup  0.98
cpu  time for grad    0.01 s
wall time for grad    0.01 s
 E :    -50.45409309  G :  0.004102    pred/act E change: -0.308D-04 -0.318D-04
Maxdispl :   0.0702   ||displ|| :   0.1406   Lambda : -0.421D-04
Largest |displ|/coords:  0.0702 (   5)  0.0601 (   3)  0.0540 (  10)
................................................................................
.............................. CYCLE   64 ......................................
................................................................................
   1    -50.7462828 -0.507463E+02  0.845E-02    9.14       0.0  T
   2    -50.7462844 -0.161600E-05  0.637E-02    9.14       1.0  T
   3    -50.7462859 -0.148727E-05  0.875E-03    9.14       2.2  T
   4    -50.7462861 -0.182466E-06  0.250E-03    9.14       7.9  T
   5    -50.7462861 -0.996110E-08  0.780E-04    9.14      25.1  T
speedup  1.09
cpu  time for SCC    0.00 s
wall time for SCC    0.00 s
speedup  1.05
cpu  time for grad    0.01 s
wall time for grad    0.01 s
[...]
   1    -50.7478702 -0.507479E+02  0.291E-02    9.20       0.0  T
   2    -50.7478703 -0.132076E-06  0.217E-02    9.20       1.0  T
   3    -50.7478704 -0.620845E-07  0.303E-03    9.20       6.5  T
   4    -50.7478704 -0.231832E-07  0.101E-03    9.20      19.4  T
   5    -50.7478704 -0.749964E-09  0.167E-04    9.20     117.6  T
   6    -50.7478704 -0.200657E-10  0.112E-04    9.20     174.6  T
speedup  0.96
cpu  time for SCC    0.00 s
wall time for SCC    0.01 s
speedup  0.98
cpu  time for grad    0.01 s
wall time for grad    0.01 s
 E :    -50.45445421  G :  0.000787    pred/act E change: -0.166D-05 -0.216D-05
Maxdispl :   0.0291   ||displ|| :   0.0477   Lambda : -0.271D-05
Largest |displ|/coords:  0.0291 (   1)  0.0172 (   3)  0.0167 (  32)
................................................................................
.............................. CYCLE  100 ......................................
................................................................................
   1    -50.7478735 -0.507479E+02  0.342E-02    9.20       0.0  T
   2    -50.7478737 -0.216602E-06  0.254E-02    9.20       1.0  T
   3    -50.7478738 -0.851507E-07  0.410E-03    9.20       4.8  T
   4    -50.7478738 -0.384669E-07  0.129E-03    9.20      15.2  T
   5    -50.7478738 -0.106036E-08  0.179E-04    9.20     109.4  T
   6    -50.7478738 -0.212665E-10  0.121E-04    9.20     161.9  T
speedup  1.11
cpu  time for SCC    0.01 s
wall time for SCC    0.01 s
speedup  1.04
cpu  time for grad    0.01 s
wall time for grad    0.01 s
 E :    -50.45445612  G :  0.000795    pred/act E change: -0.148D-05 -0.190D-05
Maxdispl :   0.0246   ||displ|| :   0.0366   Lambda : -0.203D-05
Largest |displ|/coords:  0.0246 (   1)  0.0124 (   3)  0.0115 (  32)
................................................................................
.............................. CYCLE  101 ......................................
................................................................................
   1    -50.7478663 -0.507479E+02  0.241E-02    9.20       0.0  T
   2    -50.7478665 -0.120665E-06  0.179E-02    9.20       1.1  T
   3    -50.7478665 -0.449143E-07  0.312E-03    9.20       6.3  T
   4    -50.7478665 -0.208130E-07  0.959E-04    9.20      20.5  T
   5    -50.7478665 -0.613333E-09  0.130E-04    9.20     150.5  T
speedup  1.11
cpu  time for SCC    0.00 s
wall time for SCC    0.00 s
speedup  1.03
cpu  time for grad    0.01 s
wall time for grad    0.01 s
 E :    -50.45445755  G :  0.000586    pred/act E change: -0.136D-05 -0.143D-05
Maxdispl :   0.0153   ||displ|| :   0.0265   Lambda : -0.144D-05
Largest |displ|/coords:  0.0153 (   1)  0.0080 (  32)  0.0073 (   3)
................................................................................
.............................. CYCLE  102 ......................................
................................................................................
   1    -50.7478393 -0.507478E+02  0.191E-02    9.20       0.0  T
   2    -50.7478393 -0.738965E-07  0.141E-02    9.20       1.4  T
   3    -50.7478394 -0.309877E-07  0.250E-03    9.20       7.9  T
   4    -50.7478394 -0.119305E-07  0.763E-04    9.20      25.7  T
   5    -50.7478394 -0.424663E-09  0.104E-04    9.20     189.4  T
speedup  0.89
cpu  time for SCC    0.00 s
wall time for SCC    0.00 s
speedup  0.95
cpu  time for grad    0.01 s
wall time for grad    0.01 s
 E :    -50.45445857  G :  0.000524    pred/act E change: -0.102D-05 -0.102D-05
Maxdispl :   0.0104   ||displ|| :   0.0214   Lambda : -0.105D-05
Largest |displ|/coords:  0.0104 (   1)  0.0074 (  14)  0.0061 (   8)
................................................................................
.............................. CYCLE  103 ......................................
................................................................................
   1    -50.7478176 -0.507478E+02  0.155E-02    9.20       0.0  T
   2    -50.7478176 -0.340944E-07  0.115E-02    9.20       1.7  T
   3    -50.7478176 -0.241419E-07  0.166E-03    9.20      11.8  T
   4    -50.7478176 -0.438512E-08  0.522E-04    9.20      37.5  T
   5    -50.7478176 -0.275577E-09  0.932E-05    9.20     210.4  T
speedup  1.11
cpu  time for SCC    0.00 s
wall time for SCC    0.00 s
speedup  1.03
cpu  time for grad    0.01 s
wall time for grad    0.01 s
 E :    -50.45445929  G :  0.000451    pred/act E change: -0.722D-06 -0.725D-06
Maxdispl :   0.0078   ||displ|| :   0.0178   Lambda : -0.670D-06
Largest |displ|/coords:  0.0078 (  14)  0.0077 (   1)  0.0046 (   2)
................................................................................
.............................. CYCLE  104 ......................................
................................................................................
   1    -50.7478063 -0.507478E+02  0.133E-02    9.20       0.0  T
   2    -50.7478063 -0.226623E-07  0.996E-03    9.20       2.0  T
   3    -50.7478064 -0.207605E-07  0.134E-03    9.20      14.6  T
   4    -50.7478064 -0.209719E-08  0.382E-04    9.20      51.4  T
   5    -50.7478064 -0.198256E-09  0.817E-05    9.20     240.1  T
speedup  1.11
cpu  time for SCC    0.01 s
wall time for SCC    0.00 s
speedup  1.03
cpu  time for grad    0.01 s
wall time for grad    0.01 s
 E :    -50.45445975  G :  0.000373    pred/act E change: -0.525D-06 -0.457D-06
Maxdispl :   0.0060   ||displ|| :   0.0113   Lambda : -0.430D-06
Largest |displ|/coords:  0.0060 (  14)  0.0050 (   1)  0.0033 (   3)
................................................................................
.............................. CYCLE  105 ......................................
................................................................................
   1    -50.7478648 -0.507479E+02  0.724E-03    9.20       0.0  T
   2    -50.7478648 -0.961758E-08  0.544E-03    9.20       3.6  T
   3    -50.7478648 -0.793723E-08  0.674E-04    9.20      29.1  T
   4    -50.7478648 -0.116609E-08  0.200E-04    9.20      98.0  T
speedup  1.11
cpu  time for SCC    0.00 s
wall time for SCC    0.00 s
speedup  1.02
cpu  time for grad    0.01 s
wall time for grad    0.01 s
 E :    -50.45446000  G :  0.000271    pred/act E change: -0.335D-06 -0.255D-06
Maxdispl :   0.0062   ||displ|| :   0.0136   Lambda : -0.301D-06
Largest |displ|/coords:  0.0062 (   1)  0.0057 (   3)  0.0037 (  38)
................................................................................
.............................. CYCLE  106 ......................................
................................................................................
   1    -50.7478324 -0.507478E+02  0.106E-02    9.20       0.0  T
   2    -50.7478324 -0.198957E-07  0.789E-03    9.20       2.5  T
   3    -50.7478324 -0.144396E-07  0.119E-03    9.20      16.5  T
   4    -50.7478325 -0.251349E-08  0.470E-04    9.20      41.7  T
   5    -50.7478325 -0.156220E-09  0.680E-05    9.20     288.6  T
speedup  0.87
cpu  time for SCC    0.00 s
wall time for SCC    0.00 s
speedup  0.94
cpu  time for grad    0.01 s
wall time for grad    0.01 s
 E :    -50.45446010  G :  0.000368    pred/act E change: -0.215D-06 -0.918D-07
Maxdispl :   0.0020   ||displ|| :   0.0047   Lambda : -0.160D-06
Largest |displ|/coords:  0.0020 (   2)  0.0020 (  32)  0.0016 (  38)
................................................................................
.............................. CYCLE  107 ......................................
................................................................................
   1    -50.7478706 -0.507479E+02  0.414E-03    9.20       0.0  T
   2    -50.7478706 -0.314442E-08  0.305E-03    9.20       6.4  T
   3    -50.7478706 -0.157274E-08  0.537E-04    9.20      36.5  T
   4    -50.7478706 -0.447372E-09  0.165E-04    9.20     118.9  T
speedup  1.08
cpu  time for SCC    0.00 s
wall time for SCC    0.00 s
speedup  1.02
cpu  time for grad    0.01 s
wall time for grad    0.01 s
 E :    -50.45446020  G :  0.000143    pred/act E change: -0.151D-06 -0.103D-06
Maxdispl :   0.0027   ||displ|| :   0.0044   Lambda : -0.586D-07
Largest |displ|/coords:  0.0027 (   3)  0.0022 (   1)  0.0016 (   2)
................................................................................
.............................. CYCLE  108 ......................................
................................................................................
   1    -50.7478737 -0.507479E+02  0.245E-03    9.20       0.0  T
   2    -50.7478737 -0.101011E-08  0.183E-03    9.20      10.7  T
   3    -50.7478737 -0.951800E-09  0.253E-04    9.20      77.6  T
   4    -50.7478737 -0.953833E-10  0.857E-05    9.20     228.9  T
speedup  1.11
cpu  time for SCC    0.00 s
wall time for SCC    0.00 s
speedup  1.01
cpu  time for grad    0.01 s
wall time for grad    0.01 s
 E :    -50.45446024  G :  0.000064    pred/act E change: -0.802D-07 -0.395D-07
Maxdispl :   0.0017   ||displ|| :   0.0028   Lambda : -0.375D-07
Largest |displ|/coords:  0.0017 (   4)  0.0012 (   3)  0.0010 (   6)

   *** GEOMETRY OPTIMIZATION CONVERGED AFTER 108 ITERATIONS ***

------------------------------------------------------------------------
 total energy gain (kcal):     -0.0531
------------------------------------------------------------------------
================
 final structure:
================
$coord
       -0.13609921084852        4.94653833048028        2.17872151372576      S 
       -2.08195377994882        4.86493991273120        0.20128147547121      O 
        2.26913626537055        4.00652792376443        1.31655966155098      O 
       -1.03878335324752        3.73854326907606        4.48138447763271      O 
        0.23235465502610        7.84832359845729        2.83942302301320      O 
       -1.38594485304660        8.30886634900654        3.47881878670701      H 
       -1.41089027755545        0.78711519860891        4.28297512813595      H 
       -1.24726787919910       -4.99819405655269       -2.41697458948710      O 
       -1.29956381315405       -6.77369507763806       -2.76629863167960      H 
        3.17304476563710       -0.04753969554102       -1.39789826992475      O 
        3.23952620419207        1.54663295706763       -0.45081565749248      H 
       -1.82813672859399       -1.02848697808665        3.97585764217317      O 
       -3.00654331133920       -1.48423850409951        5.27295758173014      H 
        1.85683275414788       -2.49967495568689       -5.70342463124621      O 
        2.74554843617224       -1.58669720460417       -4.37494448672915      H 
       -0.18923170027360       -4.25455408017325       -3.72861998850420      H 
        2.03635216884482       -1.51866937806427       -7.21339856985987      H 
        1.99036581227903       -3.86634738106225        1.66881651185107      O 
        0.94053584592936       -3.01478776959059        2.90113331398452      H 
        0.82993643724789       -4.54300903176185        0.41650921318411      H 
        3.30708844575345       -1.40807877171845       -0.13726709367258      H 
       -1.84495966075024        0.17193100088185       -1.00973567824762      N 
       -2.94468102135281       -0.63455294492735       -2.35883867186810      H 
        0.09944711944142       -0.03621870220697       -1.44682174797369      H 
       -2.15603417630313        2.15689232454617       -0.73922117174396      H 
       -2.15007916332400       -0.68156637069304        0.72982089704320      H 
$end
 
 Bond Distances (Angstroems)
 ---------------------------
S1-O2=1.4687         S1-O3=1.4407         S1-O4=1.4566         S1-O5=1.5869         O2-S1=1.4687         O3-S1=1.4407         
O4-S1=1.4566         O5-S1=1.5869         O5-H6=0.9525         H6-O5=0.9525         H7-O12=0.9991        O8-H9=0.9580         
O8-H16=0.9747        H9-O8=0.9580         O10-H11=0.9819       O10-H21=0.9841       H11-O10=0.9819       O12-H7=0.9991        
O12-H13=0.9582       H13-O12=0.9582       O14-H15=0.9741       O14-H17=0.9576       H15-O14=0.9741       H16-O8=0.9747        
H17-O14=0.9576       O18-H19=0.9680       O18-H20=0.9718       H19-O18=0.9680       H20-O18=0.9718       H21-O10=0.9841       
N22-H23=1.0151       N22-H24=1.0603       N22-H25=1.0728       N22-H26=1.0380       H23-N22=1.0151       H24-N22=1.0603       
H25-N22=1.0728       H26-N22=1.0380       
 N  H  Rav=1.0466 sigma=0.0220  Rmin=1.0151  Rmax=1.0728     4
 O  H  Rav=0.9709 sigma=0.0134  Rmin=0.9525  Rmax=0.9991    11
 S  O  Rav=1.4882 sigma=0.0578  Rmin=1.4407  Rmax=1.5869     4
 
 selected bond angles (degree)
 --------------------
O3-S1-O2=112.56                O4-S1-O2=110.68                O4-S1-O3=113.77                O5-S1-O2=105.76                
O5-S1-O3=107.18                O5-S1-O4=106.30                H6-O5-S1=102.44                H16-O8-H9=105.97               
H21-O10-H11=106.26             
 
 selected dihedral angles (degree)
 ---------------------------------
H6-O5-S1-O2= 62.89            H6-O5-S1-O3=183.19            H6-O5-S1-O4=305.19            
 
 CMA Distance (Angstroems)
 ---------------------------
R(CMA):  4.1009

========================================================================
 FINAL SINGLEPOINT CALCULATION ON OPTIMIZED GEOMETRY
========================================================================

 Ncao       : 65
 Nao        : 64
 Nshell     : 38
 Nel        : 80
 T(el)      :   300.0
 intcut     :    25.0
 scfconv/Eh :  0.100E-05
   qconv/e  :  0.100E-03
 intneglect :  0.100E-07
 broydamp   :      0.250
 iter      E             dE          RMSdq      gap      omega  full diag
   1    -50.7478737 -0.507479E+02  0.350E-05    9.20       0.0  T
   2    -50.7478737 -0.710543E-12  0.223E-05    9.20     878.2  T
   3    -50.7478737 -0.333955E-12  0.392E-06    9.20    5003.7  T
speedup  1.11
cpu  time for SCC    0.00 s
wall time for SCC    0.00 s

   *** convergence criteria satisfied after 3 iterations ***

          eigenvalues
 #    :          28         29         30         31         32         33         34         35
 occ. :        2.000      2.000      2.000      2.000      2.000      2.000      2.000      2.000
 eps  :       -13.403    -13.096    -12.400    -12.368    -12.346    -12.146    -12.069    -11.956
 #    :          36         37         38         39         40         41         42         43
 occ. :        2.000      2.000      2.000      2.000      2.000      0.000      0.000      0.000
 eps  :       -11.936    -11.712    -11.676    -11.609    -11.389     -2.187     -0.912     -0.264
 #    :          44         45         46         47         48         49         50         51
 occ. :        0.000      0.000      0.000      0.000      0.000      0.000      0.000      0.000
 eps  :         0.789      1.274      1.600      2.132      2.755      3.373      4.121      5.249


   #   Z            q   n(s)   n(p)   n(d)      C6AA      α(0)
   1  16 S      1.624  1.588  1.817  0.971    90.521    16.013
   2   8 O     -0.735  1.770  4.966  0.000    29.675     7.304
   3   8 O     -0.704  1.756  4.948  0.000    28.803     7.196
   4   8 O     -0.737  1.772  4.965  0.000    29.748     7.313
   5   8 O     -0.573  1.748  4.826  0.000    24.527     6.686
   6   1 H      0.342  0.658  0.000  0.000     0.600     1.212
   7   1 H      0.338  0.662  0.000  0.000     0.617     1.234
   8   8 O     -0.612  1.743  4.869  0.000    25.485     6.813
   9   1 H      0.281  0.719  0.000  0.000     0.780     1.387
  10   8 O     -0.640  1.754  4.885  0.000    26.160     6.903
  11   1 H      0.337  0.663  0.000  0.000     0.619     1.236
  12   8 O     -0.631  1.742  4.889  0.000    25.950     6.875
  13   1 H      0.289  0.711  0.000  0.000     0.756     1.366
  14   8 O     -0.615  1.741  4.874  0.000    25.546     6.822
  15   1 H      0.332  0.668  0.000  0.000     0.634     1.250
  16   1 H      0.331  0.669  0.000  0.000     0.634     1.250
  17   1 H      0.284  0.716  0.000  0.000     0.771     1.379
  18   8 O     -0.624  1.759  4.865  0.000    25.757     6.850
  19   1 H      0.311  0.689  0.000  0.000     0.689     1.304
  20   1 H      0.312  0.688  0.000  0.000     0.685     1.300
  21   1 H      0.334  0.666  0.000  0.000     0.628     1.245
  22   7 N     -0.358  1.279  4.080  0.000    29.218     8.028
  23   1 H      0.245  0.755  0.000  0.000     0.903     1.488
  24   1 H      0.296  0.704  0.000  0.000     0.726     1.335
  25   1 H      0.293  0.707  0.000  0.000     0.734     1.342
  26   1 H      0.281  0.719  0.000  0.000     0.771     1.376

 Mol. C6AA /au·bohr⁶  :       5438.078099
 Mol. C8AA /au·bohr⁸  :     117828.802419
 Mol. α(0) /au        :        106.507860

 
 Wiberg/Mayer (AO) data. WBOs > 0.1 written file <wbo>
 largest (>0.05) Wiberg bond orders for each atom
           total WBO             WBO to atom ...
     1  S   4.904    O    3 1.387    O    4 1.306    O    2 1.265    O    5 0.906
     2  O   1.747    S    1 1.265    H   25 0.131    O    3 0.113    O    4 0.109    O    5 0.070    N   22 0.056
     3  O   1.755    S    1 1.387    O    4 0.113    O    2 0.113    O    5 0.062    H   11 0.054
     4  O   1.731    S    1 1.306    O    3 0.113    O    2 0.109    H    7 0.091    O    5 0.073
     5  O   1.988    S    1 0.906    H    6 0.867    O    4 0.073    O    2 0.070    O    3 0.062
     6  H   0.883    O    5 0.867
     7  H   0.886    O   12 0.788    O    4 0.091
     8  O   1.848    H    9 0.918    H   16 0.847
     9  H   0.921    O    8 0.918
    10  O   1.927    H   21 0.826    H   11 0.820    H   24 0.111    N   22 0.057
    11  H   0.886    O   10 0.820    O    3 0.054
    12  O   1.872    H   13 0.908    H    7 0.788    H   26 0.062
    13  H   0.917    O   12 0.908
    14  O   1.838    H   17 0.911    H   15 0.849
    15  H   0.890    O   14 0.849
    16  H   0.890    O    8 0.847
    17  H   0.919    O   14 0.911
    18  O   1.867    H   19 0.874    H   20 0.864    H   21 0.060
    19  H   0.903    O   18 0.874
    20  H   0.902    O   18 0.864
    21  H   0.889    O   10 0.826    O   18 0.060
    22  N   3.519    H   23 0.934    H   26 0.852    H   24 0.792    H   25 0.774    O   10 0.057    O    2 0.056
    23  H   0.940    N   22 0.934
    24  H   0.913    N   22 0.792    O   10 0.111
    25  H   0.914    N   22 0.774    O    2 0.131
    26  H   0.921    N   22 0.852    O   12 0.062
 MOs/occ written to file <molden.input>
 
molecular dipole:
                 x           y           z       tot (Debye)
 q only:       -1.425      -1.621      -1.313
   full:       -1.669      -1.048      -0.993       5.609
molecular quadrupole (traceless):
                xx          xy          yy          xz          yz          zz
 q only:        0.243      -0.573      -6.101      -4.570      -0.921       5.859
  q+dip:       -3.792      -0.244      -3.696      -7.064       2.276       7.488
   full:       -4.390       0.004      -3.079      -7.253       2.632       7.469

SCC energy    :     -50.7478737
rep           :       0.2932082
ES            :       0.2692695
AES           :      -0.0696486
AXC           :      -0.0083571
disp          :      -0.0182756
XB            :       0.0000000
fix           :       0.0000000
total E       :     -50.4544602
atomizationE  :       4.9847644     3127.99
(atE without considering molecular charge,
 total energy contains solvation terms)
H-L gap (eV)  :          9.2020
optimized geometry written to: xtbopt.xyz


------------------------------------------------------------------------
 * finished run on 2019/09/16 at 12:45:59.861     
------------------------------------------------------------------------
 total:
 * wall-time:     0 d,  0 h,  0 min,  3.226 sec
 *  cpu-time:     0 d,  0 h,  0 min,  2.358 sec
 * ratio c/w:     0.731 speedup
 SCF:
 * wall-time:     0 d,  0 h,  0 min,  0.925 sec
 *  cpu-time:     0 d,  0 h,  0 min,  0.141 sec
 * ratio c/w:     0.152 speedup
 ANC optimizer:
 * wall-time:     0 d,  0 h,  0 min,  2.277 sec
 *  cpu-time:     0 d,  0 h,  0 min,  2.195 sec
 * ratio c/w:     0.964 speedup

