      -----------------------------------------------------------      
     |                   =====================                   |     
     |                           x T B                           |     
     |                   =====================                   |     
     |                         S. Grimme                         |     
     |          Mulliken Center for Theoretical Chemistry        |     
     |                    University of Bonn                     |     
     |                 Version 6.0.1 (SAW181210)                 |     
      -----------------------------------------------------------      

   This program is distributed in the hope that it will be useful,
   but WITHOUT ANY WARRANTY; without even the implied warranty of
   MERCHANTABILITY or FITNESS FOR A PARTICULAR PURPOSE.
   
   FOR NON-COMMERCIAL, ACADEMIA USE ONLY.
   
   Cite this work as:
   S. Grimme, C. Bannwarth, P. Shushkov, J. Comput. Theory Chem., 2017,
   13, 1989-2009.
   C. Bannwarth, S. Ehlert and S. Grimme., ChemRxiv, 2018, preprint.
   http://doi.org/10.26434/chemrxiv.7246238.v1
   
   for sTDA-xTB:
   S. Grimme and C. Bannwarth, J. Chem. Phys., 2016, 145, 054103.
   
   in the mass-spec context:
   V. Asgeirsson, C. Bauer and S. Grimme, Chem. Sci., 2017, 8, 4879.
   
   if GBSA is used:
   P. Shushkov, F. März and S. Grimme, unpublished.
   
   for ANC optimizer:
   S. Grimme, unpublished.
   Rational Function algorithm used in ANCopt:
   F. Eckert, P. Pulay, H.-J. Werner, J. Comput. Chem., 1997, 18, 1473.
   
   with help from (in alphabetical order)
   C. Bannwarth, F. Bohle, G. Brandenburg, E. Caldeweyher, M. Checinski,
   S. Dohm, S. Ehlert, S. Ehrlich, F. März, H. Neugebauer, J. Pisarek,
   P. Pracht, P. Shushkov, and S. Spicher.
   
 * started run on 2019/09/16 at 11:31:57.831     
========================================================================
 # omp threads = 1
========================================================================
number of atoms            : 26
number of electrons        : 80
charge                     : 0
spin                       : .0
first test random number   : .4202

########################################################################
# WARNING! Please study the warnings concerning your input carefully
#  - XTBPATH is not set, using XTBHOME instead
#  - the use of '-opt' is discouraged, please use '--opt' next time
#  - the use of '-chrg' is discouraged, please use '--chrg' next time
#  - the use of '-uhf' is discouraged, please use '--uhf' next time
########################################################################

           ------------------------------------------------- 
          |                 G F N 2 - x T B                 |
          | Geometry, Frequencies, Noncovalent interactions |
          |            JCTC 2018 parametrisation            |
           ------------------------------------------------- 
      method parameters     
 k(s)        :  1.8500
 k(p)        :  2.2300
 k(d)        :  2.2300
 k(f)        :  2.0000
 kEN (H0ij)  : -2.0000
 D4 a1       :  0.5200
 D4 a2       :  5.0000
 D4 s6       :  1.0000
 D4 s8       :  2.7000
 D4 s9       :  5.0000
 alphaj      :  2.0000


            Z     q(EN)     CN     RAES       Cart. coordinates
     1  S   6.0    0.68    4.10    3.86     3.24837    -1.41171    -2.05049
     2  O   6.0   -0.32    1.25    1.80     1.65662    -3.61436    -1.31376
     3  O   6.0   -0.31    1.23    1.80     4.45582    -0.31659     0.24536
     4  O   6.0   -0.26    1.11    1.80     5.24405    -2.25554    -3.84864
     5  O   6.0   -0.33    1.27    1.80     1.63701     0.53966    -3.28491
     6  O   6.0   -0.39    1.68    1.81    -1.13950     0.42631     4.04299
     7  H   1.0    0.17    0.95    1.42    -2.01944     0.85991     5.63090
     8  O   6.0   -0.29    2.04    1.83     0.59666     5.30355    -2.19213
     9  H   1.0    0.15    0.97    1.43     0.84169     6.48810    -3.55280
    10  H   1.0    0.17    1.05    1.44     0.97983     3.67072    -2.90043
    11  O   6.0   -0.30    2.05    1.83    -4.71795    -0.34324     1.08052
    12  H   1.0    0.18    1.12    1.45    -3.28930    -0.05622     2.17194
    13  H   1.0    0.14    0.97    1.43    -6.17498     0.14771     2.05553
    14  O   6.0   -0.22    2.92    2.59     1.82091     3.33429     2.15000
    15  H   1.0    0.14    1.05    1.44     1.13311     4.37143     0.75677
    16  H   1.0    0.16    1.19    1.46     0.48755     2.35630     3.01931
    17  H   1.0    0.15    1.07    1.44     3.22853     2.24476     1.58163
    18  O   6.0   -0.22    2.92    2.58     1.46703    -3.27951     3.58262
    19  H   1.0    0.15    1.07    1.44     1.34820    -3.87818     1.81702
    20  H   1.0    0.13    0.96    1.43     3.21922    -2.83654     4.05553
    21  H   1.0    0.16    1.20    1.46     0.27537    -1.88257     3.92900
    22  N   5.0   -0.14    3.95    2.74    -2.85976    -1.97366    -3.39519
    23  H   1.0    0.11    1.06    1.44    -3.89021    -1.36657    -1.86090
    24  H   1.0    0.08    0.99    1.43    -4.05917    -2.31244    -4.88887
    25  H   1.0    0.11    1.05    1.44    -1.57255    -0.60338    -3.89507
    26  H   1.0    0.10    1.01    1.43    -1.91711    -3.61223    -2.93594

  Z AO/shell   Hii/eV     exponent
  1     Wed Apr 25 08:07:45 CEST 2018   EN: 2.200 GM2: 0.406  GM3: 0.0800  RAES: 1.40
     1s    -10.707211    1.230000
  7     Wed Apr 25 08:07:45 CEST 2018   EN: 3.040 GM2: 0.461  GM3:-0.0640  RAES: 1.90
     2s    -16.686243    2.339881
     2p    -12.523956    2.014332
  8     Wed Apr 25 08:07:45 CEST 2018   EN: 3.440 GM2: 0.452  GM3:-0.0517  RAES: 1.80
     2s    -20.229985    2.439742
     2p    -15.503117    2.137023
 16     Tue Apr 24 11:44:34 CEST 2018   EN: 2.580 GM2: 0.340  GM3:-0.0502  RAES: 3.10
     3s    -20.029654    1.981333
     3p    -11.377694    2.025643
     3d     -0.420282    1.702555
 no old-style atom pair restraining (fixing) potential

molecular fragmentation (1/2 indicates fragments):
11111222222222222222222222
# atoms in fragment 1/2:     5    21
 fragment masses (1/2) :       96.06      109.12
CMA distance (Bohr)    :   5.351
constraining FC (au)   :  0.0500
           ------------------------------------------------- 
          |        Self-Consistent Charge Iterations        |
           ------------------------------------------------- 

 Ncao       : 65
 Nao        : 64
 Nshell     : 38
 Nel        : 80
 T(el)      :   300.0
 intcut     :    25.0
 scfconv/Eh :  0.100E-05
   qconv/e  :  0.100E-03
 intneglect :  0.100E-07
 broydamp   :      0.250
 iter      E             dE          RMSdq      gap      omega  full diag
   1    -50.5495834 -0.505496E+02  0.700E+00   10.43       0.0  T
   2    -50.5921668 -0.425834E-01  0.504E+00    9.74       1.0  T
   3    -50.6276165 -0.354497E-01  0.113E+00    6.75       1.0  T
   4    -50.6319661 -0.434964E-02  0.507E-01    6.97       1.0  T
   5    -50.6324596 -0.493428E-03  0.278E-01    6.77       1.0  T
   6    -50.6328084 -0.348875E-03  0.126E-01    6.78       1.0  T
   7    -50.6329058 -0.973579E-04  0.450E-02    6.87       1.0  T
   8    -50.6329141 -0.828207E-05  0.286E-02    6.87       1.0  T
   9    -50.6329186 -0.451036E-05  0.831E-03    6.87       2.4  T
  10    -50.6329189 -0.314991E-06  0.190E-03    6.87      10.3  T
  11    -50.6329189 -0.168079E-07  0.911E-04    6.87      21.5  T
  12    -50.6329189 -0.423350E-08  0.381E-04    6.87      51.5  T
speedup  0.99
cpu  time for SCC    0.01 s
wall time for SCC    0.01 s

   *** convergence criteria satisfied after 12 iterations ***

          eigenvalues
 #    :          28         29         30         31         32         33         34         35
 occ. :        2.000      2.000      2.000      2.000      2.000      2.000      2.000      2.000
 eps  :       -12.000    -11.994    -11.616    -11.253    -10.897    -10.489    -10.464     -9.850
 #    :          36         37         38         39         40         41         42         43
 occ. :        2.000      2.000      2.000      2.000      2.000      0.000      0.000      0.000
 eps  :        -9.757     -9.660     -9.268     -8.489     -8.480     -1.613     -0.806      0.312
 #    :          44         45         46         47         48         49         50         51
 occ. :        0.000      0.000      0.000      0.000      0.000      0.000      0.000      0.000
 eps  :         0.814      1.909      2.536      2.921      3.021      3.219      3.530      4.746


   #   Z            q   n(s)   n(p)   n(d)      C6AA      α(0)
   1  16 S      1.456  1.610  1.927  1.008    94.533    16.364
   2   8 O     -0.807  1.774  5.032  0.000    31.788     7.559
   3   8 O     -0.794  1.772  5.022  0.000    31.395     7.512
   4   8 O     -0.752  1.794  4.958  0.000    30.163     7.363
   5   8 O     -0.807  1.773  5.034  0.000    31.797     7.560
   6   8 O     -0.844  1.831  5.013  0.000    32.869     7.689
   7   1 H      0.214  0.786  0.000  0.000     1.049     1.609
   8   8 O     -0.623  1.732  4.891  0.000    25.742     6.848
   9   1 H      0.284  0.716  0.000  0.000     0.770     1.379
  10   1 H      0.339  0.661  0.000  0.000     0.616     1.232
  11   8 O     -0.653  1.741  4.912  0.000    26.501     6.948
  12   1 H      0.339  0.661  0.000  0.000     0.612     1.228
  13   1 H      0.272  0.728  0.000  0.000     0.811     1.415
  14   8 O     -0.458  1.657  4.800  0.000    21.944     6.327
  15   1 H      0.396  0.604  0.000  0.000     0.491     1.101
  16   1 H      0.398  0.602  0.000  0.000     0.483     1.089
  17   1 H      0.399  0.601  0.000  0.000     0.487     1.096
  18   8 O     -0.425  1.649  4.776  0.000    21.282     6.231
  19   1 H      0.404  0.596  0.000  0.000     0.477     1.085
  20   1 H      0.379  0.621  0.000  0.000     0.526     1.140
  21   1 H      0.407  0.593  0.000  0.000     0.466     1.069
  22   7 N     -0.274  1.241  4.033  0.000    27.067     7.727
  23   1 H      0.309  0.691  0.000  0.000     0.687     1.299
  24   1 H      0.239  0.761  0.000  0.000     0.926     1.508
  25   1 H      0.308  0.692  0.000  0.000     0.691     1.302
  26   1 H      0.293  0.707  0.000  0.000     0.736     1.344

 Mol. C6AA /au·bohr⁶  :       5512.658679
 Mol. C8AA /au·bohr⁸  :     120072.619896
 Mol. α(0) /au        :        107.023733

 
 Wiberg/Mayer (AO) data. WBOs > 0.1 written file <wbo>
 largest (>0.05) Wiberg bond orders for each atom
           total WBO             WBO to atom ...
     1  S   5.036    O    4 1.361    O    3 1.234    O    5 1.206    O    2 1.203
     2  O   1.670    S    1 1.203    H   19 0.108    O    4 0.097    O    3 0.091    O    5 0.087
     3  O   1.670    S    1 1.234    H   17 0.104    O    4 0.098    O    5 0.091    O    2 0.091
     4  O   1.668    S    1 1.361    O    3 0.098    O    5 0.097    O    2 0.097
     5  O   1.666    S    1 1.206    O    4 0.097    O    3 0.091    O    2 0.087    H   25 0.065    H   10 0.062
     6  O   1.637    H    7 0.946    H   21 0.197    H   16 0.184    H   12 0.121    O   18 0.062    O   14 0.060    O   11 0.051
     7  H   0.954    O    6 0.946
     8  O   1.850    H    9 0.907    H   10 0.818    H   15 0.068
     9  H   0.919    O    8 0.907
    10  H   0.885    O    8 0.818    O    5 0.062
    11  O   1.823    H   13 0.916    H   12 0.762    H   23 0.065    O    6 0.051
    12  H   0.885    O   11 0.762    O    6 0.121
    13  H   0.926    O   11 0.916
    14  O   2.286    H   15 0.766    H   17 0.727    H   16 0.654    O    6 0.060
    15  H   0.843    O   14 0.766    O    8 0.068
    16  H   0.842    O   14 0.654    O    6 0.184
    17  H   0.841    O   14 0.727    O    3 0.104
    18  O   2.308    H   20 0.844    H   19 0.719    H   21 0.633    O    6 0.062
    19  H   0.836    O   18 0.719    O    2 0.108
    20  H   0.857    O   18 0.844
    21  H   0.834    O   18 0.633    O    6 0.197
    22  N   3.577    H   24 0.938    H   26 0.884    H   23 0.834    H   25 0.833
    23  H   0.905    N   22 0.834    O   11 0.065
    24  H   0.943    N   22 0.938
    25  H   0.905    N   22 0.833    O    5 0.065
    26  H   0.914    N   22 0.884
 MOs/occ written to file <molden.input>
 
molecular dipole:
                 x           y           z       tot (Debye)
 q only:       -4.476       0.572       1.808
   full:       -4.481       0.661       1.680      12.280
molecular quadrupole (traceless):
                xx          xy          yy          xz          yz          zz
 q only:      -15.534      15.750       7.298      32.670      -7.749       8.237
  q+dip:      -14.765      14.574       4.008      29.349      -8.597      10.758
   full:      -14.739      14.465       3.895      29.272      -8.535      10.845

SCC energy    :     -50.6329189
rep           :       0.2821693
ES            :       0.3947837
AES           :      -0.0827381
AXC           :      -0.0099354
disp          :      -0.0188863
XB            :       0.0000000
fix           :       0.0000000
total E       :     -50.3503144
atomizationE  :       4.8806185     3062.63
(atE without considering molecular charge,
 total energy contains solvation terms)
H-L gap (eV)  :          6.8667
           ------------------------------------------------- 
          |                 ===============                 |
          |                   A N C O P T                   |
          |                 ===============                 |
          |          Approximate Normal Coordinate          |
          |           Rational Function Optimizer           |
           ------------------------------------------------- 
dumping coords to <xtbopt.coord> and <xtbopt.log>
 optlevel               2
 Maxcycle             520
 Maxmicro              25
 Econv         1.000000000000000E-007
 Gconv         2.000000000000000E-004
 Maxdispl       1.00000000000000     
 Hlow          5.000000000000000E-003
 S6             20.0000000000000     
 Nvar               72

generating ANC from model Hessian ...
 Shifting diagonal of input Hessian by   4.971977447134124E-003
 Lowest  eigenvalues of input Hessian
   -0.000000   -0.000000   -0.000000   -0.000000    0.000000    0.000000
    0.005000    0.005254    0.005394    0.005690    0.005823    0.006649
    0.006967    0.007505    0.008037    0.008448    0.009059    0.009993
 Highest eigenvalues
    1.568936    1.581976    1.585909    3.077987    3.083168    3.085274
 
cpu  time for ANC gen    0.02 s
wall time for ANC gen    0.02 s
................................................................................
.............................. CYCLE    1 ......................................
................................................................................
   1    -50.6329189 -0.506329E+02  0.114E-04    6.87       0.0  T
   2    -50.6329189 -0.300275E-10  0.858E-05    6.87     228.5  T
   3    -50.6329189 -0.227374E-10  0.497E-05    6.87     394.3  T
speedup  1.03
cpu  time for SCC    0.00 s
wall time for SCC    0.00 s
speedup  1.03
cpu  time for grad    0.01 s
wall time for grad    0.01 s
 E :    -50.35031436  G :  0.198171    pred/act E change:  0.000D+00  0.184D-07
Maxdispl :   0.2241   ||displ|| :   0.4844   Lambda : -0.471D-01
Largest |displ|/coords:  0.2241 (  32)  0.1565 (  14)  0.1445 (  21)
................................................................................
.............................. CYCLE    2 ......................................
................................................................................
   1    -50.6478312 -0.506478E+02  0.378E-01    7.12       0.0  T
   2    -50.6482728 -0.441609E-03  0.277E-01    7.29       1.0  T
   3    -50.6484676 -0.194752E-03  0.106E-01    7.55       1.0  T
   4    -50.6484883 -0.207000E-04  0.305E-02    7.57       1.0  T
   5    -50.6484915 -0.321082E-05  0.991E-03    7.56       2.0  T
   6    -50.6484917 -0.193997E-06  0.479E-03    7.56       4.1  T
   7    -50.6484918 -0.945253E-07  0.211E-03    7.55       9.3  T
speedup  0.97
cpu  time for SCC    0.01 s
wall time for SCC    0.01 s
speedup  0.98
cpu  time for grad    0.01 s
wall time for grad    0.01 s
 E :    -50.38966189  G :  0.123100    pred/act E change:  0.000D+00 -0.393D-01
Maxdispl :   0.2784   ||displ|| :   0.5372   Lambda : -0.302D-01
Largest |displ|/coords:  0.2784 (  32)  0.1651 (  14)  0.1463 (  21)
................................................................................
.............................. CYCLE    3 ......................................
................................................................................
   1    -50.6578901 -0.506579E+02  0.376E-01    7.83       0.0  T
   2    -50.6586060 -0.715906E-03  0.265E-01    7.99       1.0  T
   3    -50.6589227 -0.316609E-03  0.115E-01    8.21       1.0  T
   4    -50.6589432 -0.205436E-04  0.293E-02    8.25       1.0  T
   5    -50.6589460 -0.283567E-05  0.109E-02    8.24       1.8  T
   6    -50.6589463 -0.306655E-06  0.566E-03    8.24       3.5  T
   7    -50.6589465 -0.140463E-06  0.250E-03    8.24       7.8  T
speedup  0.95
cpu  time for SCC    0.01 s
wall time for SCC    0.01 s
speedup  1.03
cpu  time for grad    0.01 s
wall time for grad    0.01 s
 E :    -50.41369834  G :  0.076190    pred/act E change: -0.291D-01 -0.240D-01
Maxdispl :   0.1823   ||displ|| :   0.4949   Lambda : -0.141D-01
Largest |displ|/coords:  0.1823 (  32)  0.1639 (  18)  0.1529 (   9)
................................................................................
.............................. CYCLE    4 ......................................
................................................................................
   1    -50.6614331 -0.506614E+02  0.339E-01    8.42       0.0  T
   2    -50.6621193 -0.686144E-03  0.232E-01    8.52       1.0  T
   3    -50.6624098 -0.290551E-03  0.104E-01    8.66       1.0  T
   4    -50.6624258 -0.160270E-04  0.237E-02    8.68       1.0  T
   5    -50.6624279 -0.201540E-05  0.926E-03    8.68       2.1  T
   6    -50.6624281 -0.247136E-06  0.496E-03    8.68       4.0  T
   7    -50.6624282 -0.107872E-06  0.222E-03    8.68       8.8  T
speedup  1.13
cpu  time for SCC    0.01 s
wall time for SCC    0.01 s
speedup  1.03
cpu  time for grad    0.01 s
wall time for grad    0.01 s
 E :    -50.42323129  G :  0.047752    pred/act E change: -0.195D-01 -0.953D-02
Maxdispl :   0.1553   ||displ|| :   0.3985   Lambda : -0.579D-02
Largest |displ|/coords:  0.1553 (   4)  0.1111 (  15)  0.1071 (   6)
................................................................................
.............................. CYCLE    5 ......................................
................................................................................
   1    -50.6621636 -0.506622E+02  0.321E-01    8.75       0.0  T
   2    -50.6624722 -0.308539E-03  0.232E-01    8.81       1.0  T
   3    -50.6625933 -0.121099E-03  0.895E-02    8.90       1.0  T
   4    -50.6626072 -0.139272E-04  0.188E-02    8.89       1.0  T
   5    -50.6626091 -0.188463E-05  0.599E-03    8.89       3.3  T
   6    -50.6626091 -0.700269E-07  0.297E-03    8.89       6.6  T
speedup  0.93
cpu  time for SCC    0.00 s
wall time for SCC    0.01 s
speedup  0.96
cpu  time for grad    0.01 s
wall time for grad    0.01 s
 E :    -50.42671118  G :  0.031256    pred/act E change: -0.877D-02 -0.348D-02
Maxdispl :   0.2030   ||displ|| :   0.3913   Lambda : -0.311D-02
Largest |displ|/coords:  0.2030 (   9)  0.1357 (   6)  0.1212 (   7)
................................................................................
.............................. CYCLE    6 ......................................
................................................................................
   1    -50.6705932 -0.506706E+02  0.259E-01    8.92       0.0  T
   2    -50.6707625 -0.169346E-03  0.189E-01    8.96       1.0  T
   3    -50.6708256 -0.630246E-04  0.694E-02    9.01       1.0  T
   4    -50.6708362 -0.106733E-04  0.147E-02    9.00       1.3  T
   5    -50.6708372 -0.971338E-06  0.487E-03    9.00       4.0  T
   6    -50.6708372 -0.323478E-07  0.244E-03    9.00       8.0  T
speedup  1.09
cpu  time for SCC    0.01 s
wall time for SCC    0.01 s
speedup  1.02
cpu  time for grad    0.01 s
wall time for grad    0.01 s
 E :    -50.42793455  G :  0.029371    pred/act E change: -0.335D-02 -0.122D-02
Maxdispl :   0.1935   ||displ|| :   0.3624   Lambda : -0.272D-02
Largest |displ|/coords:  0.1935 (   4)  0.1374 (  16)  0.1330 (   6)
................................................................................
.............................. CYCLE    7 ......................................
................................................................................
   1    -50.6708088 -0.506708E+02  0.402E-01    9.04       0.0  T
   2    -50.6708888 -0.799559E-04  0.304E-01    9.04       1.0  T
   3    -50.6709319 -0.431341E-04  0.478E-02    9.04       1.0  T
   4    -50.6709464 -0.144451E-04  0.951E-03    9.04       2.1  T
   5    -50.6709466 -0.218991E-06  0.418E-03    9.04       4.7  T
   6    -50.6709466 -0.151438E-07  0.217E-03    9.04       9.0  T
speedup  0.93
cpu  time for SCC    0.00 s
wall time for SCC    0.01 s
speedup  0.96
cpu  time for grad    0.01 s
wall time for grad    0.01 s
 E :    -50.42889145  G :  0.038197    pred/act E change: -0.179D-02 -0.957D-03
Maxdispl :   0.2031   ||displ|| :   0.4326   Lambda : -0.353D-02
Largest |displ|/coords:  0.2031 (   4)  0.1821 (   7)  0.1361 (   8)
................................................................................
.............................. CYCLE    8 ......................................
................................................................................
   1    -50.6754840 -0.506755E+02  0.572E-01    8.99       0.0  T
   2    -50.6756537 -0.169752E-03  0.433E-01    8.97       1.0  T
   3    -50.6757444 -0.907081E-04  0.706E-02    8.93       1.0  T
   4    -50.6757748 -0.303902E-04  0.149E-02    8.94       1.3  T
   5    -50.6757754 -0.630037E-06  0.632E-03    8.94       3.1  T
   6    -50.6757755 -0.288814E-07  0.284E-03    8.94       6.9  T
   7    -50.6757755 -0.173285E-07  0.787E-04    8.94      24.9  T
speedup  0.97
cpu  time for SCC    0.01 s
wall time for SCC    0.01 s
speedup  1.04
cpu  time for grad    0.01 s
wall time for grad    0.01 s
 E :    -50.42782718  G :  0.050531    pred/act E change: -0.154D-02  0.106D-02
Maxdispl :   0.2096   ||displ|| :   0.4602   Lambda : -0.851D-02
Largest |displ|/coords:  0.2096 (   4)  0.1848 (  22)  0.1806 (  16)
................................................................................
.............................. CYCLE    9 ......................................
................................................................................
   1    -50.6723621 -0.506724E+02  0.702E-01    8.87       0.0  T
   2    -50.6725676 -0.205554E-03  0.533E-01    8.87       1.0  T
   3    -50.6727070 -0.139393E-03  0.791E-02    8.87       1.0  T
   4    -50.6727391 -0.321001E-04  0.166E-02    8.87       1.2  T
   5    -50.6727397 -0.560549E-06  0.768E-03    8.87       2.6  T
   6    -50.6727397 -0.297164E-07  0.366E-03    8.87       5.4  T
   7    -50.6727397 -0.242820E-07  0.666E-04    8.87      29.5  T
speedup  0.97
cpu  time for SCC    0.01 s
wall time for SCC    0.01 s
speedup  0.98
cpu  time for grad    0.01 s
wall time for grad    0.01 s
 E :    -50.42808100  G :  0.049018    pred/act E change: -0.209D-02 -0.254D-03
Maxdispl :   0.1248   ||displ|| :   0.2570   Lambda : -0.417D-02
Largest |displ|/coords:  0.1248 (   4)  0.1070 (  11)  0.0897 (   2)
................................................................................
.............................. CYCLE   10 ......................................
................................................................................
   1    -50.6753061 -0.506753E+02  0.340E-01    8.89       0.0  T
   2    -50.6753538 -0.476739E-04  0.258E-01    8.89       1.0  T
   3    -50.6753865 -0.327610E-04  0.374E-02    8.90       1.0  T
   4    -50.6753940 -0.744253E-05  0.933E-03    8.90       2.1  T
   5    -50.6753942 -0.195763E-06  0.379E-03    8.90       5.2  T
   6    -50.6753942 -0.903911E-08  0.194E-03    8.90      10.1  T
speedup  0.93
cpu  time for SCC    0.01 s
wall time for SCC    0.01 s
speedup  1.04
cpu  time for grad    0.01 s
wall time for grad    0.01 s
 E :    -50.43025365  G :  0.017075    pred/act E change: -0.516D-02 -0.217D-02
Maxdispl :   0.1020   ||displ|| :   0.2489   Lambda : -0.120D-02
Largest |displ|/coords:  0.1020 (  19)  0.0920 (   6)  0.0765 (  16)
................................................................................
.............................. CYCLE   11 ......................................
................................................................................
   1    -50.6757762 -0.506758E+02  0.205E-01    8.91       0.0  T
   2    -50.6758257 -0.495327E-04  0.152E-01    8.91       1.0  T
   3    -50.6758482 -0.225072E-04  0.376E-02    8.90       1.0  T
   4    -50.6758551 -0.692764E-05  0.652E-03    8.90       3.0  T
   5    -50.6758552 -0.758820E-07  0.304E-03    8.90       6.4  T
   6    -50.6758552 -0.742517E-08  0.129E-03    8.90      15.2  T
   7    -50.6758552 -0.375266E-08  0.369E-04    8.90      53.2  T
speedup  0.98
cpu  time for SCC    0.01 s
wall time for SCC    0.01 s
speedup  0.98
cpu  time for grad    0.01 s
wall time for grad    0.01 s
 E :    -50.43078931  G :  0.026114    pred/act E change: -0.223D-02 -0.536D-03
Maxdispl :   0.0815   ||displ|| :   0.2023   Lambda : -0.103D-02
Largest |displ|/coords:  0.0815 (   4)  0.0739 (   2)  0.0678 (   6)
................................................................................
.............................. CYCLE   12 ......................................
................................................................................
   1    -50.6762747 -0.506763E+02  0.199E-01    8.89       0.0  T
   2    -50.6762930 -0.183569E-04  0.150E-01    8.89       1.0  T
   3    -50.6763050 -0.119493E-04  0.264E-02    8.89       1.0  T
   4    -50.6763078 -0.278533E-05  0.795E-03    8.89       2.5  T
   5    -50.6763079 -0.110957E-06  0.265E-03    8.89       7.4  T
   6    -50.6763079 -0.605534E-08  0.142E-03    8.89      13.8  T
speedup  0.93
cpu  time for SCC    0.00 s
wall time for SCC    0.01 s
speedup  1.04
cpu  time for grad    0.01 s
wall time for grad    0.01 s
 E :    -50.43150872  G :  0.028752    pred/act E change: -0.640D-03 -0.719D-03
Maxdispl :   0.1700   ||displ|| :   0.4080   Lambda : -0.224D-02
Largest |displ|/coords:  0.1700 (   4)  0.1575 (   2)  0.1491 (   6)
................................................................................
.............................. CYCLE   13 ......................................
................................................................................
   1    -50.6730873 -0.506731E+02  0.386E-01    8.86       0.0  T
   2    -50.6731965 -0.109180E-03  0.290E-01    8.85       1.0  T
   3    -50.6732600 -0.635612E-04  0.663E-02    8.84       1.0  T
   4    -50.6732757 -0.156547E-04  0.178E-02    8.84       1.1  T
   5    -50.6732763 -0.626202E-06  0.633E-03    8.84       3.1  T
   6    -50.6732763 -0.421703E-07  0.354E-03    8.84       5.5  T
   7    -50.6732764 -0.268923E-07  0.807E-04    8.84      24.3  T
speedup  0.94
cpu  time for SCC    0.01 s
wall time for SCC    0.01 s
speedup  1.03
cpu  time for grad    0.01 s
wall time for grad    0.01 s
 E :    -50.43272363  G :  0.053296    pred/act E change: -0.537D-03 -0.121D-02
Maxdispl :   0.1882   ||displ|| :   0.3401   Lambda : -0.477D-02
Largest |displ|/coords:  0.1882 (   3)  0.1335 (   2)  0.1209 (   5)
................................................................................
.............................. CYCLE   14 ......................................
................................................................................
   1    -50.6899691 -0.506900E+02  0.330E-01    8.87       0.0  T
   2    -50.6900509 -0.817909E-04  0.248E-01    8.87       1.0  T
   3    -50.6901065 -0.555974E-04  0.543E-02    8.87       1.0  T
   4    -50.6901166 -0.100950E-04  0.167E-02    8.86       1.2  T
   5    -50.6901171 -0.501224E-06  0.605E-03    8.87       3.2  T
   6    -50.6901171 -0.284352E-07  0.303E-03    8.87       6.5  T
   7    -50.6901171 -0.214464E-07  0.642E-04    8.87      30.5  T
speedup  0.97
cpu  time for SCC    0.01 s
wall time for SCC    0.01 s
speedup  0.98
cpu  time for grad    0.01 s
wall time for grad    0.01 s
 E :    -50.43465838  G :  0.051876    pred/act E change: -0.131D-02 -0.193D-02
Maxdispl :   0.1416   ||displ|| :   0.3640   Lambda : -0.468D-02
Largest |displ|/coords:  0.1416 (  19)  0.1411 (   2)  0.1014 (  30)
................................................................................
.............................. CYCLE   15 ......................................
................................................................................
   1    -50.6876427 -0.506876E+02  0.295E-01    8.86       0.0  T
   2    -50.6877564 -0.113690E-03  0.220E-01    8.85       1.0  T
   3    -50.6878282 -0.718176E-04  0.657E-02    8.84       1.0  T
   4    -50.6878407 -0.125393E-04  0.200E-02    8.84       1.0  T
   5    -50.6878415 -0.754576E-06  0.682E-03    8.84       2.9  T
   6    -50.6878415 -0.657239E-07  0.371E-03    8.84       5.3  T
   7    -50.6878416 -0.223702E-07  0.766E-04    8.84      25.6  T
speedup  0.97
cpu  time for SCC    0.01 s
wall time for SCC    0.01 s
speedup  0.97
cpu  time for grad    0.01 s
wall time for grad    0.01 s
 E :    -50.43795427  G :  0.041592    pred/act E change: -0.266D-02 -0.330D-02
Maxdispl :   0.1709   ||displ|| :   0.4177   Lambda : -0.578D-02
Largest |displ|/coords:  0.1709 (  30)  0.1437 (  13)  0.1247 (  68)
................................................................................
.............................. CYCLE   16 ......................................
................................................................................
   1    -50.7042012 -0.507042E+02  0.310E-01    8.89       0.0  T
   2    -50.7043526 -0.151405E-03  0.230E-01    8.89       1.0  T
   3    -50.7044507 -0.980796E-04  0.792E-02    8.89       1.0  T
   4    -50.7044663 -0.155915E-04  0.260E-02    8.90       1.0  T
   5    -50.7044675 -0.122576E-05  0.791E-03    8.89       2.5  T
   6    -50.7044676 -0.742147E-07  0.418E-03    8.89       4.7  T
   7    -50.7044676 -0.289042E-07  0.994E-04    8.89      19.7  T
speedup  0.95
cpu  time for SCC    0.01 s
wall time for SCC    0.01 s
speedup  0.98
cpu  time for grad    0.01 s
wall time for grad    0.01 s
 E :    -50.43990405  G :  0.064476    pred/act E change: -0.265D-02 -0.195D-02
Maxdispl :   0.1514   ||displ|| :   0.3763   Lambda : -0.804D-02
Largest |displ|/coords:  0.1514 (   3)  0.1303 (   1)  0.1051 (   8)
................................................................................
.............................. CYCLE   17 ......................................
................................................................................
   1    -50.6934919 -0.506935E+02  0.408E-01    8.87       0.0  T
   2    -50.6936464 -0.154474E-03  0.303E-01    8.88       1.0  T
   3    -50.6937357 -0.893668E-04  0.700E-02    8.90       1.0  T
   4    -50.6937544 -0.186508E-04  0.185E-02    8.89       1.1  T
   5    -50.6937549 -0.548077E-06  0.717E-03    8.89       2.7  T
   6    -50.6937550 -0.836999E-07  0.374E-03    8.89       5.2  T
   7    -50.6937551 -0.232128E-07  0.911E-04    8.89      21.5  T
speedup  0.97
cpu  time for SCC    0.01 s
wall time for SCC    0.01 s
speedup  0.98
cpu  time for grad    0.01 s
wall time for grad    0.01 s
 E :    -50.44046203  G :  0.060161    pred/act E change: -0.339D-02 -0.558D-03
Maxdispl :   0.1273   ||displ|| :   0.3907   Lambda : -0.975D-02
Largest |displ|/coords:  0.1273 (   8)  0.1049 (   9)  0.1031 (   5)
................................................................................
.............................. CYCLE   18 ......................................
................................................................................
   1    -50.7162460 -0.507162E+02  0.402E-01    9.00       0.0  T
   2    -50.7164234 -0.177393E-03  0.298E-01    9.01       1.0  T
   3    -50.7165373 -0.113874E-03  0.742E-02    9.02       1.0  T
   4    -50.7165561 -0.188504E-04  0.179E-02    9.02       1.1  T
   5    -50.7165568 -0.660204E-06  0.857E-03    9.02       2.3  T
   6    -50.7165568 -0.491605E-07  0.409E-03    9.02       4.8  T
   7    -50.7165569 -0.388301E-07  0.767E-04    9.02      25.6  T
speedup  0.97
cpu  time for SCC    0.01 s
wall time for SCC    0.01 s
speedup  0.99
cpu  time for grad    0.01 s
wall time for grad    0.01 s
 E :    -50.44237338  G :  0.068006    pred/act E change: -0.459D-02 -0.191D-02
Maxdispl :   0.1149   ||displ|| :   0.3306   Lambda : -0.689D-02
Largest |displ|/coords:  0.1149 (   3)  0.1103 (   8)  0.1048 (   2)
................................................................................
.............................. CYCLE   19 ......................................
................................................................................
   1    -50.7106441 -0.507106E+02  0.326E-01    8.98       0.0  T
   2    -50.7107541 -0.110013E-03  0.243E-01    8.98       1.0  T
   3    -50.7108208 -0.667070E-04  0.607E-02    8.97       1.0  T
   4    -50.7108339 -0.131175E-04  0.193E-02    8.98       1.0  T
   5    -50.7108347 -0.740709E-06  0.639E-03    8.98       3.1  T
   6    -50.7108348 -0.703315E-07  0.378E-03    8.98       5.2  T
   7    -50.7108348 -0.237344E-07  0.765E-04    8.98      25.6  T
speedup  0.97
cpu  time for SCC    0.01 s
wall time for SCC    0.01 s
speedup  0.97
cpu  time for grad    0.01 s
wall time for grad    0.01 s
 E :    -50.44411542  G :  0.051440    pred/act E change: -0.562D-02 -0.174D-02
Maxdispl :   0.1050   ||displ|| :   0.2843   Lambda : -0.574D-02
Largest |displ|/coords:  0.1050 (  15)  0.1019 (   2)  0.0901 (  14)
................................................................................
.............................. CYCLE   20 ......................................
................................................................................
   1    -50.7110390 -0.507110E+02  0.286E-01    9.00       0.0  T
   2    -50.7111186 -0.795446E-04  0.211E-01    9.01       1.0  T
   3    -50.7111697 -0.511750E-04  0.492E-02    9.04       1.0  T
   4    -50.7111781 -0.837256E-05  0.150E-02    9.03       1.3  T
   5    -50.7111785 -0.377343E-06  0.548E-03    9.03       3.6  T
   6    -50.7111785 -0.303473E-07  0.278E-03    9.03       7.0  T
speedup  0.93
cpu  time for SCC    0.00 s
wall time for SCC    0.01 s
speedup  0.97
cpu  time for grad    0.01 s
wall time for grad    0.01 s
 E :    -50.44526257  G :  0.045197    pred/act E change: -0.382D-02 -0.115D-02
Maxdispl :   0.0758   ||displ|| :   0.1855   Lambda : -0.298D-02
Largest |displ|/coords:  0.0758 (  11)  0.0523 (  30)  0.0519 (   6)
................................................................................
.............................. CYCLE   21 ......................................
................................................................................
   1    -50.7243704 -0.507244E+02  0.156E-01    9.08       0.0  T
   2    -50.7244197 -0.492576E-04  0.116E-01    9.08       1.0  T
   3    -50.7244480 -0.282757E-04  0.439E-02    9.08       1.0  T
   4    -50.7244523 -0.433526E-05  0.131E-02    9.08       1.5  T
   5    -50.7244527 -0.429029E-06  0.428E-03    9.08       4.6  T
   6    -50.7244528 -0.162535E-07  0.229E-03    9.08       8.5  T
speedup  0.93
cpu  time for SCC    0.00 s
wall time for SCC    0.01 s
speedup  0.96
cpu  time for grad    0.01 s
wall time for grad    0.01 s
 E :    -50.44711885  G :  0.034343    pred/act E change: -0.310D-02 -0.186D-02
Maxdispl :   0.1416   ||displ|| :   0.3455   Lambda : -0.398D-02
Largest |displ|/coords:  0.1416 (  27)  0.0995 (   6)  0.0944 (  28)
................................................................................
.............................. CYCLE   22 ......................................
................................................................................
   1    -50.7220804 -0.507221E+02  0.205E-01    9.03       0.0  T
   2    -50.7221466 -0.662302E-04  0.153E-01    9.02       1.0  T
   3    -50.7221853 -0.386529E-04  0.520E-02    9.01       1.0  T
   4    -50.7221921 -0.677936E-05  0.164E-02    9.02       1.2  T
   5    -50.7221926 -0.521851E-06  0.485E-03    9.02       4.0  T
   6    -50.7221926 -0.418997E-07  0.271E-03    9.02       7.2  T
speedup  0.93
cpu  time for SCC    0.01 s
wall time for SCC    0.01 s
speedup  0.97
cpu  time for grad    0.01 s
wall time for grad    0.01 s
 E :    -50.44783923  G :  0.045686    pred/act E change: -0.154D-02 -0.720D-03
Maxdispl :   0.0933   ||displ|| :   0.2068   Lambda : -0.370D-02
Largest |displ|/coords:  0.0933 (  10)  0.0688 (  15)  0.0580 (  12)
................................................................................
.............................. CYCLE   23 ......................................
................................................................................
   1    -50.7302253 -0.507302E+02  0.134E-01    9.04       0.0  T
   2    -50.7302636 -0.382685E-04  0.101E-01    9.04       1.0  T
   3    -50.7302888 -0.252441E-04  0.352E-02    9.05       1.0  T
   4    -50.7302924 -0.357655E-05  0.112E-02    9.06       1.8  T
   5    -50.7302926 -0.252101E-06  0.449E-03    9.06       4.4  T
   6    -50.7302927 -0.226704E-07  0.212E-03    9.06       9.2  T
speedup  0.93
cpu  time for SCC    0.00 s
wall time for SCC    0.01 s
speedup  0.97
cpu  time for grad    0.01 s
wall time for grad    0.01 s
 E :    -50.45004433  G :  0.028253    pred/act E change: -0.223D-02 -0.221D-02
Maxdispl :   0.1273   ||displ|| :   0.2712   Lambda : -0.236D-02
Largest |displ|/coords:  0.1273 (  14)  0.1107 (   6)  0.0746 (  17)
................................................................................
.............................. CYCLE   24 ......................................
................................................................................
   1    -50.7368773 -0.507369E+02  0.180E-01    9.06       0.0  T
   2    -50.7368995 -0.221590E-04  0.132E-01    9.06       1.0  T
   3    -50.7369133 -0.138397E-04  0.281E-02    9.07       1.0  T
   4    -50.7369158 -0.253395E-05  0.101E-02    9.07       1.9  T
   5    -50.7369160 -0.141624E-06  0.300E-03    9.07       6.5  T
   6    -50.7369160 -0.119069E-07  0.178E-03    9.07      11.0  T
speedup  0.93
cpu  time for SCC    0.00 s
wall time for SCC    0.01 s
speedup  0.97
cpu  time for grad    0.01 s
wall time for grad    0.01 s
 E :    -50.45079192  G :  0.025014    pred/act E change: -0.193D-02 -0.748D-03
Maxdispl :   0.0921   ||displ|| :   0.2141   Lambda : -0.160D-02
Largest |displ|/coords:  0.0921 (  10)  0.0806 (  15)  0.0698 (  27)
................................................................................
.............................. CYCLE   25 ......................................
................................................................................
   1    -50.7374264 -0.507374E+02  0.125E-01    9.05       0.0  T
   2    -50.7374518 -0.253509E-04  0.937E-02    9.05       1.0  T
   3    -50.7374693 -0.175563E-04  0.315E-02    9.05       1.0  T
   4    -50.7374720 -0.270403E-05  0.113E-02    9.06       1.7  T
   5    -50.7374723 -0.300948E-06  0.440E-03    9.05       4.5  T
   6    -50.7374723 -0.223257E-07  0.186E-03    9.05      10.6  T
speedup  0.93
cpu  time for SCC    0.00 s
wall time for SCC    0.01 s
speedup  0.98
cpu  time for grad    0.01 s
wall time for grad    0.01 s
 E :    -50.45128510  G :  0.020456    pred/act E change: -0.126D-02 -0.493D-03
Maxdispl :   0.0698   ||displ|| :   0.1585   Lambda : -0.124D-02
Largest |displ|/coords:  0.0698 (  10)  0.0524 (  30)  0.0472 (  32)

generating ANC from model Hessian ...
 Shifting diagonal of input Hessian by   5.021599452491089E-003
 Lowest  eigenvalues of input Hessian
    0.005000   -0.000000   -0.000000   -0.000000    0.000000    0.000000
    0.000000    0.005222    0.005439    0.005864    0.006123    0.006771
    0.007633    0.007873    0.008897    0.009363    0.009922    0.010531
 Highest eigenvalues
    1.398204    1.417786    1.443872    2.714446    3.210311    3.659421
 
cpu  time for ANC gen    0.02 s
wall time for ANC gen    0.02 s
................................................................................
.............................. CYCLE   26 ......................................
................................................................................
   1    -50.7304206 -0.507304E+02  0.110E-01    8.96       0.0  T
   2    -50.7304361 -0.155193E-04  0.822E-02    8.97       1.0  T
   3    -50.7304448 -0.871301E-05  0.243E-02    8.97       1.0  T
   4    -50.7304465 -0.164063E-05  0.886E-03    8.97       2.2  T
   5    -50.7304466 -0.145224E-06  0.232E-03    8.97       8.5  T
   6    -50.7304466 -0.816981E-08  0.133E-03    8.97      14.7  T
   7    -50.7304466 -0.335267E-08  0.362E-04    8.97      54.1  T
   8    -50.7304466 -0.472227E-09  0.108E-04    8.97     182.1  T
speedup  1.00
cpu  time for SCC    0.01 s
wall time for SCC    0.01 s
speedup  1.03
cpu  time for grad    0.02 s
wall time for grad    0.02 s
 E :    -50.45145566  G :  0.022088    pred/act E change:  0.000D+00 -0.171D-03
Maxdispl :   0.1460   ||displ|| :   0.2583   Lambda : -0.137D-02
Largest |displ|/coords:  0.1460 (   2)  0.1086 (   4)  0.0765 (   8)
................................................................................
.............................. CYCLE   27 ......................................
................................................................................
   1    -50.7339283 -0.507339E+02  0.180E-01    9.00       0.0  T
   2    -50.7339371 -0.886989E-05  0.136E-01    9.00       1.0  T
   3    -50.7339425 -0.540081E-05  0.182E-02    9.00       1.1  T
   4    -50.7339440 -0.147603E-05  0.540E-03    9.00       3.6  T
   5    -50.7339441 -0.555094E-07  0.193E-03    9.00      10.2  T
speedup  0.89
cpu  time for SCC    0.00 s
wall time for SCC    0.00 s
speedup  0.97
cpu  time for grad    0.01 s
wall time for grad    0.01 s
 E :    -50.45241743  G :  0.010867    pred/act E change:  0.000D+00 -0.962D-03
Maxdispl :   0.1679   ||displ|| :   0.3216   Lambda : -0.741D-03
Largest |displ|/coords:  0.1679 (   4)  0.1616 (   2)  0.1153 (   8)
................................................................................
.............................. CYCLE   28 ......................................
................................................................................
   1    -50.7349766 -0.507350E+02  0.238E-01    9.02       0.0  T
   2    -50.7349850 -0.846063E-05  0.179E-01    9.02       1.0  T
   3    -50.7349918 -0.678835E-05  0.177E-02    9.02       1.1  T
   4    -50.7349930 -0.114073E-05  0.617E-03    9.02       3.2  T
   5    -50.7349930 -0.378274E-07  0.219E-03    9.02       8.9  T
   6    -50.7349930 -0.459763E-08  0.120E-03    9.02      16.4  T
speedup  0.94
cpu  time for SCC    0.00 s
wall time for SCC    0.01 s
speedup  0.98
cpu  time for grad    0.01 s
wall time for grad    0.01 s
 E :    -50.45284435  G :  0.016580    pred/act E change: -0.733D-03 -0.427D-03
Maxdispl :   0.1487   ||displ|| :   0.2464   Lambda : -0.513D-03
Largest |displ|/coords:  0.1487 (   4)  0.1373 (   2)  0.0531 (  18)
................................................................................
.............................. CYCLE   29 ......................................
................................................................................
   1    -50.7381316 -0.507381E+02  0.135E-01    9.04       0.0  T
   2    -50.7381407 -0.907680E-05  0.101E-01    9.04       1.0  T
   3    -50.7381465 -0.587158E-05  0.188E-02    9.04       1.0  T
   4    -50.7381478 -0.123768E-05  0.595E-03    9.04       3.3  T
   5    -50.7381478 -0.547180E-07  0.172E-03    9.04      11.4  T
   6    -50.7381478 -0.273982E-08  0.100E-03    9.04      19.5  T
speedup  1.11
cpu  time for SCC    0.01 s
wall time for SCC    0.01 s
speedup  1.04
cpu  time for grad    0.01 s
wall time for grad    0.01 s
 E :    -50.45302273  G :  0.011138    pred/act E change: -0.409D-03 -0.178D-03
Maxdispl :   0.1201   ||displ|| :   0.2137   Lambda : -0.445D-03
Largest |displ|/coords:  0.1201 (   2)  0.0903 (   4)  0.0678 (  11)
................................................................................
.............................. CYCLE   30 ......................................
................................................................................
   1    -50.7370930 -0.507371E+02  0.179E-01    9.04       0.0  T
   2    -50.7370985 -0.550040E-05  0.136E-01    9.05       1.0  T
   3    -50.7371040 -0.549079E-05  0.134E-02    9.05       1.5  T
   4    -50.7371045 -0.528959E-06  0.523E-03    9.05       3.7  T
   5    -50.7371045 -0.252367E-07  0.135E-03    9.05      14.5  T
   6    -50.7371045 -0.170022E-08  0.800E-04    9.05      24.5  T
speedup  1.11
cpu  time for SCC    0.01 s
wall time for SCC    0.01 s
speedup  1.04
cpu  time for grad    0.01 s
wall time for grad    0.01 s
 E :    -50.45332572  G :  0.009814    pred/act E change: -0.272D-03 -0.303D-03
Maxdispl :   0.1585   ||displ|| :   0.2564   Lambda : -0.342D-03
Largest |displ|/coords:  0.1585 (   4)  0.1134 (   2)  0.0791 (   9)
................................................................................
.............................. CYCLE   31 ......................................
................................................................................
   1    -50.7353913 -0.507354E+02  0.182E-01    9.05       0.0  T
   2    -50.7353962 -0.487987E-05  0.137E-01    9.05       1.0  T
   3    -50.7354008 -0.463014E-05  0.149E-02    9.05       1.3  T
   4    -50.7354013 -0.492764E-06  0.438E-03    9.05       4.5  T
   5    -50.7354013 -0.192614E-07  0.162E-03    9.05      12.1  T
   6    -50.7354013 -0.324945E-08  0.892E-04    9.05      22.0  T
speedup  1.11
cpu  time for SCC    0.01 s
wall time for SCC    0.01 s
speedup  1.04
cpu  time for grad    0.01 s
wall time for grad    0.01 s
 E :    -50.45349880  G :  0.016161    pred/act E change: -0.233D-03 -0.173D-03
Maxdispl :   0.0801   ||displ|| :   0.1276   Lambda : -0.306D-03
Largest |displ|/coords:  0.0801 (   4)  0.0529 (   2)  0.0380 (  13)
................................................................................
.............................. CYCLE   32 ......................................
................................................................................
   1    -50.7371352 -0.507371E+02  0.605E-02    9.05       0.0  T
   2    -50.7371374 -0.223738E-05  0.447E-02    9.05       1.0  T
   3    -50.7371391 -0.166158E-05  0.943E-03    9.06       2.1  T
   4    -50.7371393 -0.221421E-06  0.301E-03    9.05       6.5  T
   5    -50.7371393 -0.143609E-07  0.984E-04    9.05      19.9  T
   6    -50.7371393 -0.137138E-08  0.538E-04    9.05      36.5  T
speedup  1.11
cpu  time for SCC    0.01 s
wall time for SCC    0.01 s
speedup  1.04
cpu  time for grad    0.01 s
wall time for grad    0.01 s
 E :    -50.45364589  G :  0.006672    pred/act E change: -0.182D-03 -0.147D-03
Maxdispl :   0.1219   ||displ|| :   0.1989   Lambda : -0.185D-03
Largest |displ|/coords:  0.1219 (   2)  0.0955 (   4)  0.0390 (  11)
................................................................................
.............................. CYCLE   33 ......................................
................................................................................
   1    -50.7370398 -0.507370E+02  0.116E-01    9.05       0.0  T
   2    -50.7370408 -0.107457E-05  0.866E-02    9.06       1.0  T
   3    -50.7370415 -0.675989E-06  0.765E-03    9.06       2.6  T
   4    -50.7370417 -0.171311E-06  0.313E-03    9.06       6.3  T
   5    -50.7370417 -0.880922E-08  0.750E-04    9.06      26.1  T
   6    -50.7370417 -0.533689E-09  0.483E-04    9.06      40.6  T
speedup  1.11
cpu  time for SCC    0.01 s
wall time for SCC    0.01 s
speedup  1.04
cpu  time for grad    0.01 s
wall time for grad    0.01 s
 E :    -50.45375133  G :  0.006126    pred/act E change: -0.155D-03 -0.105D-03
Maxdispl :   0.0851   ||displ|| :   0.1376   Lambda : -0.113D-03
Largest |displ|/coords:  0.0851 (   4)  0.0638 (   2)  0.0425 (   8)
................................................................................
.............................. CYCLE   34 ......................................
................................................................................
   1    -50.7373835 -0.507374E+02  0.926E-02    9.05       0.0  T
   2    -50.7373849 -0.142116E-05  0.699E-02    9.05       1.0  T
   3    -50.7373862 -0.124465E-05  0.713E-03    9.06       2.8  T
   4    -50.7373864 -0.171257E-06  0.215E-03    9.05       9.1  T
   5    -50.7373864 -0.559420E-08  0.802E-04    9.06      24.5  T
speedup  1.06
cpu  time for SCC    0.00 s
wall time for SCC    0.00 s
speedup  1.02
cpu  time for grad    0.01 s
wall time for grad    0.01 s
 E :    -50.45382104  G :  0.006983    pred/act E change: -0.959D-04 -0.697D-04
Maxdispl :   0.0586   ||displ|| :   0.0953   Lambda : -0.903D-04
Largest |displ|/coords:  0.0586 (   1)  0.0501 (   4)  0.0203 (   8)
................................................................................
.............................. CYCLE   35 ......................................
................................................................................
   1    -50.7384500 -0.507384E+02  0.585E-02    9.04       0.0  T
   2    -50.7384507 -0.692534E-06  0.440E-02    9.05       1.0  T
   3    -50.7384512 -0.578682E-06  0.467E-03    9.05       4.2  T
   4    -50.7384513 -0.937239E-07  0.181E-03    9.05      10.8  T
   5    -50.7384513 -0.466846E-08  0.602E-04    9.05      32.6  T
speedup  0.87
cpu  time for SCC    0.00 s
wall time for SCC    0.00 s
speedup  0.94
cpu  time for grad    0.01 s
wall time for grad    0.01 s
 E :    -50.45388353  G :  0.005909    pred/act E change: -0.578D-04 -0.625D-04
Maxdispl :   0.1196   ||displ|| :   0.2062   Lambda : -0.129D-03
Largest |displ|/coords:  0.1196 (   1)  0.1012 (   4)  0.0790 (   2)
................................................................................
.............................. CYCLE   36 ......................................
................................................................................
   1    -50.7377400 -0.507377E+02  0.126E-01    9.02       0.0  T
   2    -50.7377422 -0.214215E-05  0.953E-02    9.03       1.0  T
   3    -50.7377441 -0.198237E-05  0.815E-03    9.03       2.4  T
   4    -50.7377444 -0.262035E-06  0.311E-03    9.03       6.3  T
   5    -50.7377444 -0.126209E-07  0.117E-03    9.03      16.8  T
   6    -50.7377444 -0.143807E-08  0.599E-04    9.03      32.8  T
speedup  0.94
cpu  time for SCC    0.00 s
wall time for SCC    0.01 s
speedup  0.98
cpu  time for grad    0.01 s
wall time for grad    0.01 s
 E :    -50.45397238  G :  0.006251    pred/act E change: -0.455D-04 -0.888D-04
Maxdispl :   0.1871   ||displ|| :   0.2715   Lambda : -0.163D-03
Largest |displ|/coords:  0.1871 (   1)  0.1040 (   4)  0.0703 (   2)
................................................................................
.............................. CYCLE   37 ......................................
................................................................................
   1    -50.7372507 -0.507373E+02  0.150E-01    9.00       0.0  T
   2    -50.7372538 -0.308494E-05  0.112E-01    9.01       1.0  T
   3    -50.7372564 -0.264068E-05  0.121E-02    9.01       1.6  T
   4    -50.7372568 -0.389703E-06  0.429E-03    9.01       4.6  T
   5    -50.7372568 -0.239028E-07  0.140E-03    9.01      14.0  T
   6    -50.7372568 -0.232261E-08  0.815E-04    9.01      24.1  T
speedup  0.91
cpu  time for SCC    0.00 s
wall time for SCC    0.01 s
speedup  0.96
cpu  time for grad    0.01 s
wall time for grad    0.01 s
 E :    -50.45408488  G :  0.008845    pred/act E change: -0.673D-04 -0.113D-03
Maxdispl :   0.2363   ||displ|| :   0.3361   Lambda : -0.240D-03
Largest |displ|/coords:  0.2363 (   1)  0.1017 (   3)  0.0878 (  10)
................................................................................
.............................. CYCLE   38 ......................................
................................................................................
   1    -50.7382279 -0.507382E+02  0.142E-01    8.99       0.0  T
   2    -50.7382324 -0.451541E-05  0.105E-01    8.99       1.0  T
   3    -50.7382357 -0.330633E-05  0.170E-02    9.00       1.2  T
   4    -50.7382362 -0.458004E-06  0.475E-03    8.99       4.1  T
   5    -50.7382362 -0.380028E-07  0.142E-03    8.99      13.8  T
   6    -50.7382362 -0.287132E-08  0.874E-04    8.99      22.4  T
speedup  1.03
cpu  time for SCC    0.01 s
wall time for SCC    0.01 s
speedup  1.01
cpu  time for grad    0.01 s
wall time for grad    0.01 s
 E :    -50.45418659  G :  0.010641    pred/act E change: -0.875D-04 -0.102D-03
Maxdispl :   0.3183   ||displ|| :   0.4618   Lambda : -0.305D-03
Largest |displ|/coords:  0.3183 (   1)  0.1675 (   4)  0.1387 (   2)
................................................................................
.............................. CYCLE   39 ......................................
................................................................................
   1    -50.7342551 -0.507343E+02  0.249E-01    8.97       0.0  T
   2    -50.7342648 -0.970080E-05  0.187E-01    8.97       1.0  T
   3    -50.7342741 -0.928403E-05  0.193E-02    8.98       1.0  T
   4    -50.7342752 -0.111702E-05  0.740E-03    8.97       2.7  T
   5    -50.7342753 -0.760779E-07  0.270E-03    8.98       7.3  T
   6    -50.7342753 -0.777743E-08  0.149E-03    8.98      13.2  T
speedup  1.09
cpu  time for SCC    0.01 s
wall time for SCC    0.01 s
speedup  1.03
cpu  time for grad    0.01 s
wall time for grad    0.01 s
 E :    -50.45426772  G :  0.015148    pred/act E change: -0.134D-03 -0.811D-04
Maxdispl :   0.0815   ||displ|| :   0.1621   Lambda : -0.316D-03
Largest |displ|/coords:  0.0815 (   4)  0.0681 (   2)  0.0658 (   1)
................................................................................
.............................. CYCLE   40 ......................................
................................................................................
   1    -50.7383263 -0.507383E+02  0.965E-02    9.02       0.0  T
   2    -50.7383294 -0.309630E-05  0.720E-02    9.02       1.0  T
   3    -50.7383312 -0.175953E-05  0.112E-02    9.02       1.8  T
   4    -50.7383316 -0.462058E-06  0.343E-03    9.02       5.7  T
   5    -50.7383316 -0.206496E-07  0.109E-03    9.02      18.0  T
   6    -50.7383316 -0.103146E-08  0.629E-04    9.02      31.2  T
speedup  0.91
cpu  time for SCC    0.01 s
wall time for SCC    0.01 s
speedup  0.96
cpu  time for grad    0.01 s
wall time for grad    0.01 s
 E :    -50.45442159  G :  0.007740    pred/act E change: -0.185D-03 -0.154D-03
Maxdispl :   0.1433   ||displ|| :   0.1979   Lambda : -0.194D-03
Largest |displ|/coords:  0.1433 (   1)  0.0804 (   3)  0.0602 (   4)
................................................................................
.............................. CYCLE   41 ......................................
................................................................................
   1    -50.7388332 -0.507388E+02  0.881E-02    9.03       0.0  T
   2    -50.7388350 -0.186421E-05  0.664E-02    9.03       1.0  T
   3    -50.7388363 -0.129849E-05  0.791E-03    9.03       2.5  T
   4    -50.7388366 -0.285004E-06  0.260E-03    9.03       7.6  T
   5    -50.7388366 -0.156209E-07  0.920E-04    9.03      21.3  T
speedup  0.87
cpu  time for SCC    0.00 s
wall time for SCC    0.00 s
speedup  0.94
cpu  time for grad    0.01 s
wall time for grad    0.01 s
 E :    -50.45452723  G :  0.005041    pred/act E change: -0.162D-03 -0.106D-03
Maxdispl :   0.3483   ||displ|| :   0.4601   Lambda : -0.234D-03
Largest |displ|/coords:  0.3483 (   1)  0.1709 (   3)  0.1182 (  10)
................................................................................
.............................. CYCLE   42 ......................................
................................................................................
   1    -50.7375663 -0.507376E+02  0.191E-01    9.02       0.0  T
   2    -50.7375717 -0.534901E-05  0.144E-01    9.02       1.0  T
   3    -50.7375772 -0.556059E-05  0.134E-02    9.02       1.5  T
   4    -50.7375778 -0.581122E-06  0.511E-03    9.02       3.8  T
   5    -50.7375778 -0.333477E-07  0.185E-03    9.02      10.6  T
   6    -50.7375778 -0.347092E-08  0.852E-04    9.02      23.0  T
speedup  0.91
cpu  time for SCC    0.01 s
wall time for SCC    0.01 s
speedup  0.96
cpu  time for grad    0.01 s
wall time for grad    0.01 s
 E :    -50.45472081  G :  0.006767    pred/act E change: -0.101D-03 -0.194D-03
Maxdispl :   0.4380   ||displ|| :   0.5848   Lambda : -0.272D-03
Largest |displ|/coords:  0.4380 (   1)  0.2203 (   3)  0.1755 (  10)
................................................................................
.............................. CYCLE   43 ......................................
................................................................................
   1    -50.7354024 -0.507354E+02  0.225E-01    8.99       0.0  T
   2    -50.7354094 -0.705384E-05  0.169E-01    8.99       1.0  T
   3    -50.7354172 -0.770632E-05  0.143E-02    8.99       1.4  T
   4    -50.7354178 -0.674285E-06  0.571E-03    8.99       3.4  T
   5    -50.7354179 -0.421000E-07  0.219E-03    8.99       9.0  T
   6    -50.7354179 -0.462555E-08  0.918E-04    8.99      21.4  T
speedup  0.94
cpu  time for SCC    0.00 s
wall time for SCC    0.01 s
speedup  1.04
cpu  time for grad    0.01 s
wall time for grad    0.01 s
 E :    -50.45487782  G :  0.014184    pred/act E change: -0.141D-03 -0.157D-03
Maxdispl :   0.1532   ||displ|| :   0.2335   Lambda : -0.257D-03
Largest |displ|/coords:  0.1532 (   1)  0.0929 (   3)  0.0738 (   2)
................................................................................
.............................. CYCLE   44 ......................................
................................................................................
   1    -50.7374240 -0.507374E+02  0.820E-02    9.01       0.0  T
   2    -50.7374254 -0.140009E-05  0.615E-02    9.01       1.0  T
   3    -50.7374265 -0.109247E-05  0.786E-03    9.01       2.5  T
   4    -50.7374267 -0.175713E-06  0.263E-03    9.01       7.5  T
   5    -50.7374267 -0.904171E-08  0.763E-04    9.01      25.7  T
speedup  1.09
cpu  time for SCC    0.00 s
wall time for SCC    0.00 s
speedup  1.02
cpu  time for grad    0.01 s
wall time for grad    0.01 s
 E :    -50.45504155  G :  0.010059    pred/act E change: -0.183D-03 -0.164D-03
Maxdispl :   0.3603   ||displ|| :   0.4772   Lambda : -0.340D-03
Largest |displ|/coords:  0.3603 (   1)  0.1709 (   3)  0.1083 (  10)
................................................................................
.............................. CYCLE   45 ......................................
................................................................................
   1    -50.7372324 -0.507372E+02  0.179E-01    9.02       0.0  T
   2    -50.7372358 -0.336715E-05  0.135E-01    9.02       1.0  T
   3    -50.7372396 -0.375534E-05  0.102E-02    9.02       1.9  T
   4    -50.7372398 -0.269728E-06  0.343E-03    9.02       5.7  T
   5    -50.7372398 -0.149054E-07  0.153E-03    9.02      12.9  T
   6    -50.7372398 -0.486784E-08  0.690E-04    9.02      28.4  T
speedup  0.91
cpu  time for SCC    0.01 s
wall time for SCC    0.01 s
speedup  0.96
cpu  time for grad    0.01 s
wall time for grad    0.01 s
 E :    -50.45530364  G :  0.009193    pred/act E change: -0.136D-03 -0.262D-03
Maxdispl :   0.3892   ||displ|| :   0.5547   Lambda : -0.411D-03
Largest |displ|/coords:  0.3892 (   1)  0.2177 (   3)  0.1795 (  10)
................................................................................
.............................. CYCLE   46 ......................................
................................................................................
   1    -50.7388032 -0.507388E+02  0.205E-01    9.05       0.0  T
   2    -50.7388071 -0.385296E-05  0.154E-01    9.05       1.0  T
   3    -50.7388108 -0.374220E-05  0.122E-02    9.04       1.6  T
   4    -50.7388112 -0.375012E-06  0.389E-03    9.05       5.0  T
   5    -50.7388112 -0.176353E-07  0.168E-03    9.05      11.7  T
   6    -50.7388112 -0.377964E-08  0.807E-04    9.05      24.3  T
speedup  0.93
cpu  time for SCC    0.00 s
wall time for SCC    0.01 s
speedup  0.96
cpu  time for grad    0.01 s
wall time for grad    0.01 s
 E :    -50.45558630  G :  0.010201    pred/act E change: -0.209D-03 -0.283D-03
Maxdispl :   0.4135   ||displ|| :   0.6193   Lambda : -0.482D-03
Largest |displ|/coords:  0.4135 (   1)  0.2584 (   3)  0.1613 (  10)
................................................................................
.............................. CYCLE   47 ......................................
................................................................................
   1    -50.7345850 -0.507346E+02  0.248E-01    9.01       0.0  T
   2    -50.7345939 -0.892802E-05  0.187E-01    9.01       1.0  T
   3    -50.7346053 -0.113325E-04  0.174E-02    9.01       1.1  T
   4    -50.7346058 -0.536869E-06  0.595E-03    9.01       3.3  T
   5    -50.7346058 -0.412150E-07  0.265E-03    9.01       7.4  T
   6    -50.7346058 -0.111061E-07  0.114E-03    9.01      17.2  T
speedup  0.91
cpu  time for SCC    0.00 s
wall time for SCC    0.01 s
speedup  0.96
cpu  time for grad    0.01 s
wall time for grad    0.01 s
 E :    -50.45581586  G :  0.020805    pred/act E change: -0.269D-03 -0.230D-03
Maxdispl :   0.1775   ||displ|| :   0.3098   Lambda : -0.999D-03
Largest |displ|/coords:  0.1775 (  11)  0.0782 (  13)  0.0680 (  18)
................................................................................
.............................. CYCLE   48 ......................................
................................................................................
   1    -50.7453551 -0.507454E+02  0.202E-01    9.06       0.0  T
   2    -50.7453810 -0.259449E-04  0.150E-01    9.06       1.0  T
   3    -50.7453962 -0.152348E-04  0.310E-02    9.06       1.0  T
   4    -50.7453994 -0.313780E-05  0.727E-03    9.06       2.7  T
   5    -50.7453995 -0.145427E-06  0.315E-03    9.06       6.2  T
   6    -50.7453995 -0.681487E-08  0.166E-03    9.06      11.8  T
speedup  1.11
cpu  time for SCC    0.01 s
wall time for SCC    0.01 s
speedup  1.04
cpu  time for grad    0.01 s
wall time for grad    0.01 s
 E :    -50.45534742  G :  0.029996    pred/act E change: -0.334D-03  0.468D-03
Maxdispl :   0.1633   ||displ|| :   0.2664   Lambda : -0.179D-02
Largest |displ|/coords:  0.1633 (   1)  0.0880 (  10)  0.0839 (   3)
................................................................................
.............................. CYCLE   49 ......................................
................................................................................
   1    -50.7406569 -0.507407E+02  0.147E-01    9.01       0.0  T
   2    -50.7406693 -0.124258E-04  0.110E-01    9.01       1.0  T
   3    -50.7406765 -0.720712E-05  0.213E-02    9.00       1.0  T
   4    -50.7406782 -0.165598E-05  0.606E-03    9.00       3.2  T
   5    -50.7406783 -0.808051E-07  0.207E-03    9.00       9.5  T
   6    -50.7406783 -0.324388E-08  0.115E-03    9.00      17.1  T
speedup  1.11
cpu  time for SCC    0.01 s
wall time for SCC    0.01 s
speedup  1.04
cpu  time for grad    0.01 s
wall time for grad    0.01 s
 E :    -50.45630394  G :  0.008192    pred/act E change: -0.548D-03 -0.957D-03
Maxdispl :   0.3992   ||displ|| :   0.5469   Lambda : -0.471D-03
Largest |displ|/coords:  0.3992 (   1)  0.2128 (   3)  0.1303 (  10)
................................................................................
.............................. CYCLE   50 ......................................
................................................................................
   1    -50.7370760 -0.507371E+02  0.186E-01    9.00       0.0  T
   2    -50.7370825 -0.645064E-05  0.140E-01    9.00       1.0  T
   3    -50.7370889 -0.642890E-05  0.143E-02    8.99       1.4  T
   4    -50.7370896 -0.693057E-06  0.550E-03    9.00       3.6  T
   5    -50.7370896 -0.332465E-07  0.201E-03    9.00       9.8  T
   6    -50.7370896 -0.426707E-08  0.979E-04    9.00      20.0  T
speedup  1.09
cpu  time for SCC    0.01 s
wall time for SCC    0.01 s
speedup  1.03
cpu  time for grad    0.01 s
wall time for grad    0.01 s
 E :    -50.45642737  G :  0.019950    pred/act E change: -0.957D-03 -0.123D-03
Maxdispl :   0.1198   ||displ|| :   0.1526   Lambda : -0.519D-03
Largest |displ|/coords:  0.1198 (   2)  0.0455 (   3)  0.0436 (  11)
................................................................................
.............................. CYCLE   51 ......................................
................................................................................
   1    -50.7392756 -0.507393E+02  0.849E-02    9.01       0.0  T
   2    -50.7392799 -0.422247E-05  0.635E-02    9.01       1.0  T
   3    -50.7392832 -0.330495E-05  0.113E-02    9.02       1.7  T
   4    -50.7392837 -0.525176E-06  0.348E-03    9.02       5.6  T
   5    -50.7392837 -0.169042E-07  0.138E-03    9.02      14.2  T
   6    -50.7392837 -0.178095E-08  0.649E-04    9.02      30.2  T
speedup  0.88
cpu  time for SCC    0.00 s
wall time for SCC    0.01 s
speedup  0.87
cpu  time for grad    0.01 s
wall time for grad    0.01 s
 E :    -50.45661592  G :  0.018077    pred/act E change: -0.306D-03 -0.189D-03
Maxdispl :   0.0726   ||displ|| :   0.1637   Lambda : -0.698D-03
Largest |displ|/coords:  0.0726 (   1)  0.0559 (  11)  0.0547 (   2)
................................................................................
.............................. CYCLE   52 ......................................
................................................................................
   1    -50.7428805 -0.507429E+02  0.101E-01    9.02       0.0  T
   2    -50.7428885 -0.801403E-05  0.747E-02    9.03       1.0  T
   3    -50.7428926 -0.406003E-05  0.163E-02    9.03       1.2  T
   4    -50.7428936 -0.959461E-06  0.494E-03    9.03       4.0  T
   5    -50.7428936 -0.404378E-07  0.160E-03    9.03      12.2  T
   6    -50.7428936 -0.201314E-08  0.871E-04    9.03      22.5  T
speedup  1.11
cpu  time for SCC    0.01 s
wall time for SCC    0.01 s
speedup  1.04
cpu  time for grad    0.01 s
wall time for grad    0.01 s
 E :    -50.45674831  G :  0.016258    pred/act E change: -0.265D-03 -0.132D-03
Maxdispl :   0.0767   ||displ|| :   0.1863   Lambda : -0.652D-03
Largest |displ|/coords:  0.0767 (   1)  0.0670 (   7)  0.0596 (   2)

generating ANC from model Hessian ...
 Shifting diagonal of input Hessian by   4.810073766216819E-003
 Lowest  eigenvalues of input Hessian
   -0.000000   -0.000000   -0.000000   -0.000000   -0.000000    0.000000
    0.005000    0.005461    0.005663    0.005900    0.006346    0.006783
    0.007858    0.007998    0.009259    0.010197    0.011155    0.011731
 Highest eigenvalues
    1.400243    1.421632    1.527924    2.711551    3.204876    3.726171
 
cpu  time for ANC gen    0.03 s
wall time for ANC gen    0.03 s
................................................................................
.............................. CYCLE   53 ......................................
................................................................................
   1    -50.7453764 -0.507454E+02  0.109E-01    9.07       0.0  T
   2    -50.7453797 -0.322909E-05  0.815E-02    9.06       1.0  T
   3    -50.7453822 -0.247848E-05  0.121E-02    9.06       1.6  T
   4    -50.7453825 -0.330787E-06  0.335E-03    9.06       5.8  T
   5    -50.7453825 -0.182732E-07  0.114E-03    9.06      17.2  T
   6    -50.7453825 -0.190130E-08  0.648E-04    9.06      30.3  T
   7    -50.7453825 -0.822524E-09  0.196E-04    9.06     100.0  T
speedup  1.09
cpu  time for SCC    0.01 s
wall time for SCC    0.01 s
speedup  0.99
cpu  time for grad    0.01 s
wall time for grad    0.02 s
 E :    -50.45708160  G :  0.010156    pred/act E change:  0.000D+00 -0.333D-03
Maxdispl :   0.1661   ||displ|| :   0.2988   Lambda : -0.128D-02
Largest |displ|/coords:  0.1661 (   3)  0.1091 (   1)  0.1082 (   7)
................................................................................
.............................. CYCLE   54 ......................................
................................................................................
   1    -50.7418472 -0.507418E+02  0.281E-01    9.03       0.0  T
   2    -50.7418599 -0.127606E-04  0.213E-01    9.03       1.0  T
   3    -50.7418759 -0.160120E-04  0.165E-02    9.03       1.2  T
   4    -50.7418765 -0.601701E-06  0.579E-03    9.03       3.4  T
   5    -50.7418766 -0.228859E-07  0.249E-03    9.03       7.9  T
   6    -50.7418766 -0.104723E-07  0.891E-04    9.03      22.0  T
speedup  1.05
cpu  time for SCC    0.01 s
wall time for SCC    0.01 s
speedup  1.01
cpu  time for grad    0.01 s
wall time for grad    0.01 s
 E :    -50.45798725  G :  0.013137    pred/act E change:  0.000D+00 -0.906D-03
Maxdispl :   0.2215   ||displ|| :   0.3231   Lambda : -0.721D-03
Largest |displ|/coords:  0.2215 (   3)  0.1735 (   1)  0.0640 (  20)
................................................................................
.............................. CYCLE   55 ......................................
................................................................................
   1    -50.7377099 -0.507377E+02  0.254E-01    8.98       0.0  T
   2    -50.7377187 -0.889529E-05  0.192E-01    8.98       1.0  T
   3    -50.7377298 -0.110885E-04  0.146E-02    8.98       1.3  T
   4    -50.7377304 -0.544228E-06  0.664E-03    8.98       3.0  T
   5    -50.7377304 -0.385638E-07  0.225E-03    8.98       8.7  T
   6    -50.7377304 -0.765809E-08  0.958E-04    8.98      20.5  T
speedup  1.07
cpu  time for SCC    0.01 s
wall time for SCC    0.01 s
speedup  1.02
cpu  time for grad    0.01 s
wall time for grad    0.01 s
 E :    -50.45815994  G :  0.030286    pred/act E change: -0.697D-03 -0.173D-03
Maxdispl :   0.0754   ||displ|| :   0.1506   Lambda : -0.101D-02
Largest |displ|/coords:  0.0754 (   2)  0.0679 (  13)  0.0611 (   3)
................................................................................
.............................. CYCLE   56 ......................................
................................................................................
   1    -50.7399385 -0.507399E+02  0.997E-02    8.99       0.0  T
   2    -50.7399453 -0.678405E-05  0.746E-02    8.99       1.0  T
   3    -50.7399503 -0.492822E-05  0.146E-02    8.98       1.3  T
   4    -50.7399511 -0.852422E-06  0.404E-03    8.99       4.9  T
   5    -50.7399511 -0.281068E-07  0.174E-03    8.99      11.2  T
speedup  1.02
cpu  time for SCC    0.00 s
wall time for SCC    0.00 s
speedup  0.99
cpu  time for grad    0.01 s
wall time for grad    0.01 s
 E :    -50.45877998  G :  0.012321    pred/act E change: -0.398D-03 -0.620D-03
Maxdispl :   0.1877   ||displ|| :   0.2587   Lambda : -0.580D-03
Largest |displ|/coords:  0.1877 (   3)  0.1049 (   1)  0.0606 (  11)
................................................................................
.............................. CYCLE   57 ......................................
................................................................................
   1    -50.7409655 -0.507410E+02  0.133E-01    8.97       0.0  T
   2    -50.7409693 -0.373176E-05  0.998E-02    8.97       1.0  T
   3    -50.7409720 -0.277707E-05  0.103E-02    8.97       1.9  T
   4    -50.7409726 -0.525539E-06  0.284E-03    8.97       6.9  T
   5    -50.7409726 -0.126938E-07  0.127E-03    8.97      15.5  T
speedup  0.87
cpu  time for SCC    0.00 s
wall time for SCC    0.00 s
speedup  1.01
cpu  time for grad    0.01 s
wall time for grad    0.01 s
 E :    -50.45920219  G :  0.007365    pred/act E change: -0.518D-03 -0.422D-03
Maxdispl :   0.2330   ||displ|| :   0.3472   Lambda : -0.561D-03
Largest |displ|/coords:  0.2330 (   3)  0.1685 (   1)  0.0729 (   2)
................................................................................
.............................. CYCLE   58 ......................................
................................................................................
   1    -50.7406115 -0.507406E+02  0.230E-01    8.95       0.0  T
   2    -50.7406199 -0.833992E-05  0.174E-01    8.95       1.0  T
   3    -50.7406292 -0.928993E-05  0.149E-02    8.95       1.3  T
   4    -50.7406299 -0.723383E-06  0.587E-03    8.95       3.3  T
   5    -50.7406299 -0.364169E-07  0.218E-03    8.95       9.0  T
   6    -50.7406299 -0.523910E-08  0.105E-03    8.95      18.7  T
speedup  1.07
cpu  time for SCC    0.01 s
wall time for SCC    0.01 s
speedup  1.01
cpu  time for grad    0.01 s
wall time for grad    0.01 s
 E :    -50.45952330  G :  0.006586    pred/act E change: -0.310D-03 -0.321D-03
Maxdispl :   0.0634   ||displ|| :   0.1319   Lambda : -0.187D-03
Largest |displ|/coords:  0.0634 (  15)  0.0492 (   7)  0.0411 (   5)
................................................................................
.............................. CYCLE   59 ......................................
................................................................................
   1    -50.7415453 -0.507415E+02  0.843E-02    8.97       0.0  T
   2    -50.7415467 -0.132786E-05  0.635E-02    8.97       1.0  T
   3    -50.7415479 -0.125032E-05  0.633E-03    8.97       3.1  T
   4    -50.7415481 -0.160514E-06  0.230E-03    8.97       8.5  T
   5    -50.7415481 -0.783443E-08  0.901E-04    8.97      21.8  T
speedup  0.85
cpu  time for SCC    0.00 s
wall time for SCC    0.00 s
speedup  1.01
cpu  time for grad    0.01 s
wall time for grad    0.01 s
 E :    -50.45963284  G :  0.004682    pred/act E change: -0.314D-03 -0.110D-03
Maxdispl :   0.0394   ||displ|| :   0.0772   Lambda : -0.778D-04
Largest |displ|/coords:  0.0394 (  15)  0.0291 (   9)  0.0278 (   5)
................................................................................
.............................. CYCLE   60 ......................................
................................................................................
   1    -50.7428909 -0.507429E+02  0.657E-02    9.00       0.0  T
   2    -50.7428919 -0.108304E-05  0.497E-02    8.99       1.0  T
   3    -50.7428928 -0.824204E-06  0.566E-03    8.99       3.5  T
   4    -50.7428929 -0.167891E-06  0.164E-03    8.99      11.9  T
   5    -50.7428929 -0.489456E-08  0.614E-04    8.99      31.9  T
speedup  1.09
cpu  time for SCC    0.00 s
wall time for SCC    0.00 s
speedup  1.01
cpu  time for grad    0.01 s
wall time for grad    0.01 s
 E :    -50.45965041  G :  0.005947    pred/act E change: -0.950D-04 -0.176D-04
Maxdispl :   0.0614   ||displ|| :   0.1035   Lambda : -0.723D-04
Largest |displ|/coords:  0.0614 (   1)  0.0558 (   3)  0.0361 (  15)
................................................................................
.............................. CYCLE   61 ......................................
................................................................................
   1    -50.7417822 -0.507418E+02  0.717E-02    9.00       0.0  T
   2    -50.7417835 -0.126271E-05  0.539E-02    9.00       1.0  T
   3    -50.7417846 -0.112345E-05  0.597E-03    9.00       3.3  T
   4    -50.7417848 -0.172867E-06  0.219E-03    9.00       9.0  T
   5    -50.7417848 -0.738823E-08  0.847E-04    9.00      23.1  T
speedup  0.89
cpu  time for SCC    0.00 s
wall time for SCC    0.00 s
speedup  1.02
cpu  time for grad    0.01 s
wall time for grad    0.01 s
 E :    -50.45965740  G :  0.004198    pred/act E change: -0.391D-04 -0.699D-05
Maxdispl :   0.0406   ||displ|| :   0.0692   Lambda : -0.620D-04
Largest |displ|/coords:  0.0406 (   3)  0.0389 (   1)  0.0188 (  15)
................................................................................
.............................. CYCLE   62 ......................................
................................................................................
   1    -50.7429755 -0.507430E+02  0.420E-02    9.00       0.0  T
   2    -50.7429763 -0.802303E-06  0.313E-02    9.00       1.0  T
   3    -50.7429767 -0.414001E-06  0.475E-03    9.00       4.1  T
   4    -50.7429768 -0.128307E-06  0.128E-03    9.00      15.4  T
   5    -50.7429768 -0.386075E-08  0.540E-04    9.00      36.3  T
speedup  1.09
cpu  time for SCC    0.00 s
wall time for SCC    0.00 s
speedup  1.02
cpu  time for grad    0.01 s
wall time for grad    0.01 s
 E :    -50.45968022  G :  0.001804    pred/act E change: -0.365D-04 -0.228D-04
Maxdispl :   0.0146   ||displ|| :   0.0268   Lambda : -0.149D-04
Largest |displ|/coords:  0.0146 (   4)  0.0087 (  16)  0.0086 (   8)
................................................................................
.............................. CYCLE   63 ......................................
................................................................................
   1    -50.7427759 -0.507428E+02  0.264E-02    9.00       0.0  T
   2    -50.7427761 -0.141223E-06  0.200E-02    9.00       1.0  T
   3    -50.7427762 -0.129073E-06  0.198E-03    9.00       9.9  T
   4    -50.7427762 -0.165689E-07  0.586E-04    9.00      33.4  T
   5    -50.7427762 -0.394550E-09  0.254E-04    9.00      77.3  T
speedup  1.09
cpu  time for SCC    0.00 s
wall time for SCC    0.00 s
speedup  1.04
cpu  time for grad    0.01 s
wall time for grad    0.01 s
 E :    -50.45968750  G :  0.002067    pred/act E change: -0.312D-04 -0.728D-05
Maxdispl :   0.0106   ||displ|| :   0.0245   Lambda : -0.766D-05
Largest |displ|/coords:  0.0106 (   1)  0.0100 (   8)  0.0078 (  15)
................................................................................
.............................. CYCLE   64 ......................................
................................................................................
   1    -50.7429774 -0.507430E+02  0.164E-02    9.00       0.0  T
   2    -50.7429775 -0.782409E-07  0.122E-02    9.00       1.6  T
   3    -50.7429775 -0.485025E-07  0.191E-03    9.00      10.3  T
   4    -50.7429775 -0.109290E-07  0.509E-04    9.00      38.6  T
   5    -50.7429775 -0.497479E-09  0.149E-04    9.00     131.9  T
speedup  0.89
cpu  time for SCC    0.00 s
wall time for SCC    0.00 s
speedup  0.98
cpu  time for grad    0.01 s
wall time for grad    0.01 s
 E :    -50.45969218  G :  0.001446    pred/act E change: -0.747D-05 -0.467D-05
Maxdispl :   0.0196   ||displ|| :   0.0465   Lambda : -0.912D-05
Largest |displ|/coords:  0.0196 (  15)  0.0159 (   4)  0.0153 (  16)
................................................................................
.............................. CYCLE   65 ......................................
................................................................................
   1    -50.7429067 -0.507429E+02  0.378E-02    9.00       0.0  T
   2    -50.7429069 -0.240115E-06  0.285E-02    9.00       1.0  T
   3    -50.7429072 -0.271858E-06  0.320E-03    9.00       6.1  T
   4    -50.7429072 -0.203431E-07  0.126E-03    9.00      15.5  T
   5    -50.7429072 -0.199416E-08  0.362E-04    9.00      54.2  T
   6    -50.7429072 -0.136353E-09  0.228E-04    9.00      86.1  T
speedup  0.94
cpu  time for SCC    0.00 s
wall time for SCC    0.01 s
speedup  1.00
cpu  time for grad    0.01 s
wall time for grad    0.01 s
[...]
Maxdispl :   0.0067   ||displ|| :   0.0172   Lambda : -0.122D-05
Largest |displ|/coords:  0.0067 (   8)  0.0066 (   1)  0.0050 (  28)
................................................................................
.............................. CYCLE   72 ......................................
................................................................................
   1    -50.7429250 -0.507429E+02  0.878E-03    9.00       0.0  T
   2    -50.7429250 -0.301325E-07  0.647E-03    9.00       3.0  T
   3    -50.7429250 -0.138759E-07  0.131E-03    9.00      15.0  T
   4    -50.7429250 -0.415515E-08  0.406E-04    9.00      48.3  T
   5    -50.7429250 -0.194206E-09  0.867E-05    9.00     226.3  T
speedup  0.89
cpu  time for SCC    0.00 s
wall time for SCC    0.00 s
speedup  0.98
cpu  time for grad    0.01 s
wall time for grad    0.01 s
 E :    -50.45971171  G :  0.000414    pred/act E change: -0.758D-06 -0.850D-06
Maxdispl :   0.0053   ||displ|| :   0.0129   Lambda : -0.874D-06
Largest |displ|/coords:  0.0053 (   8)  0.0045 (  28)  0.0039 (  25)
................................................................................
.............................. CYCLE   73 ......................................
................................................................................
   1    -50.7429389 -0.507429E+02  0.698E-03    9.00       0.0  T
   2    -50.7429389 -0.188646E-07  0.509E-03    9.00       3.9  T
   3    -50.7429389 -0.817713E-08  0.105E-03    9.00      18.7  T
   4    -50.7429389 -0.223825E-08  0.305E-04    9.00      64.4  T
   5    -50.7429389 -0.121197E-09  0.621E-05    9.00     315.6  T
speedup  0.89
cpu  time for SCC    0.00 s
wall time for SCC    0.00 s
speedup  0.98
cpu  time for grad    0.01 s
wall time for grad    0.01 s
 E :    -50.45971234  G :  0.000446    pred/act E change: -0.608D-06 -0.629D-06
Maxdispl :   0.0047   ||displ|| :   0.0132   Lambda : -0.774D-06
Largest |displ|/coords:  0.0047 (   8)  0.0042 (   6)  0.0042 (  28)
................................................................................
.............................. CYCLE   74 ......................................
................................................................................
   1    -50.7429407 -0.507429E+02  0.728E-03    9.00       0.0  T
   2    -50.7429407 -0.193847E-07  0.535E-03    9.00       3.7  T
   3    -50.7429407 -0.964283E-08  0.100E-03    9.00      19.6  T
   4    -50.7429407 -0.219284E-08  0.332E-04    9.00      59.0  T
   5    -50.7429407 -0.136694E-09  0.636E-05    9.00     308.5  T
speedup  1.11
cpu  time for SCC    0.00 s
wall time for SCC    0.00 s
speedup  0.98
cpu  time for grad    0.01 s
wall time for grad    0.01 s
 E :    -50.45971290  G :  0.000511    pred/act E change: -0.437D-06 -0.559D-06
Maxdispl :   0.0040   ||displ|| :   0.0133   Lambda : -0.690D-06
Largest |displ|/coords:  0.0040 (  25)  0.0039 (   6)  0.0036 (  24)
................................................................................
.............................. CYCLE   75 ......................................
................................................................................
   1    -50.7429227 -0.507429E+02  0.755E-03    9.00       0.0  T
   2    -50.7429227 -0.236443E-07  0.562E-03    9.00       3.5  T
   3    -50.7429227 -0.102555E-07  0.101E-03    9.00      19.4  T
   4    -50.7429227 -0.333190E-08  0.380E-04    9.00      51.6  T
   5    -50.7429227 -0.147402E-09  0.644E-05    9.00     304.6  T
speedup  1.09
cpu  time for SCC    0.00 s
wall time for SCC    0.00 s
speedup  1.04
cpu  time for grad    0.01 s
wall time for grad    0.01 s
 E :    -50.45971340  G :  0.000451    pred/act E change: -0.386D-06 -0.496D-06
Maxdispl :   0.0037   ||displ|| :   0.0119   Lambda : -0.559D-06
Largest |displ|/coords:  0.0037 (   4)  0.0037 (  24)  0.0037 (  25)
................................................................................
.............................. CYCLE   76 ......................................
................................................................................
   1    -50.7428972 -0.507429E+02  0.732E-03    9.00       0.0  T
   2    -50.7428972 -0.236091E-07  0.550E-03    9.00       3.6  T
   3    -50.7428972 -0.902228E-08  0.955E-04    9.00      20.5  T
   4    -50.7428972 -0.400779E-08  0.373E-04    9.00      52.6  T
speedup  1.08
cpu  time for SCC    0.00 s
wall time for SCC    0.00 s
speedup  0.96
cpu  time for grad    0.01 s
wall time for grad    0.01 s
 E :    -50.45971378  G :  0.000347    pred/act E change: -0.345D-06 -0.387D-06
Maxdispl :   0.0026   ||displ|| :   0.0074   Lambda : -0.340D-06
Largest |displ|/coords:  0.0026 (  24)  0.0025 (  25)  0.0022 (   4)
................................................................................
.............................. CYCLE   77 ......................................
................................................................................
   1    -50.7428820 -0.507429E+02  0.539E-03    9.00       0.0  T
   2    -50.7428820 -0.105180E-07  0.407E-03    9.00       4.8  T
   3    -50.7428820 -0.417356E-08  0.641E-04    9.00      30.6  T
   4    -50.7428820 -0.195796E-08  0.260E-04    9.00      75.5  T
speedup  1.08
cpu  time for SCC    0.00 s
wall time for SCC    0.00 s
speedup  1.05
cpu  time for grad    0.01 s
wall time for grad    0.01 s
 E :    -50.45971403  G :  0.000280    pred/act E change: -0.279D-06 -0.251D-06
Maxdispl :   0.0026   ||displ|| :   0.0074   Lambda : -0.270D-06
Largest |displ|/coords:  0.0026 (   2)  0.0025 (  24)  0.0023 (  25)
................................................................................
.............................. CYCLE   78 ......................................
................................................................................
   1    -50.7428827 -0.507429E+02  0.556E-03    9.00       0.0  T
   2    -50.7428827 -0.820014E-08  0.419E-03    9.00       4.7  T
   3    -50.7428827 -0.475377E-08  0.567E-04    9.00      34.6  T
   4    -50.7428827 -0.140533E-08  0.241E-04    9.00      81.5  T
speedup  0.81
cpu  time for SCC    0.00 s
wall time for SCC    0.00 s
speedup  0.96
cpu  time for grad    0.01 s
wall time for grad    0.01 s
 E :    -50.45971423  G :  0.000265    pred/act E change: -0.170D-06 -0.193D-06
Maxdispl :   0.0030   ||displ|| :   0.0066   Lambda : -0.191D-06
Largest |displ|/coords:  0.0030 (   2)  0.0024 (   6)  0.0019 (  15)
................................................................................
.............................. CYCLE   79 ......................................
................................................................................
   1    -50.7428939 -0.507429E+02  0.475E-03    9.00       0.0  T
   2    -50.7428939 -0.505603E-08  0.356E-03    9.00       5.5  T
   3    -50.7428939 -0.339172E-08  0.485E-04    9.00      40.4  T
   4    -50.7428939 -0.779238E-09  0.180E-04    9.00     108.7  T
speedup  1.08
cpu  time for SCC    0.00 s
wall time for SCC    0.00 s
speedup  0.98
cpu  time for grad    0.01 s
wall time for grad    0.01 s
 E :    -50.45971437  G :  0.000224    pred/act E change: -0.135D-06 -0.144D-06
Maxdispl :   0.0037   ||displ|| :   0.0078   Lambda : -0.180D-06
Largest |displ|/coords:  0.0037 (   2)  0.0037 (   6)  0.0022 (   8)
................................................................................
.............................. CYCLE   80 ......................................
................................................................................
   1    -50.7429103 -0.507429E+02  0.511E-03    9.00       0.0  T
   2    -50.7429103 -0.613468E-08  0.380E-03    9.00       5.2  T
   3    -50.7429103 -0.449798E-08  0.587E-04    9.00      33.4  T
   4    -50.7429103 -0.806999E-09  0.182E-04    9.00     107.7  T
speedup  1.08
cpu  time for SCC    0.00 s
wall time for SCC    0.00 s
speedup  1.05
cpu  time for grad    0.01 s
wall time for grad    0.01 s
 E :    -50.45971450  G :  0.000162    pred/act E change: -0.953D-07 -0.126D-06
Maxdispl :   0.0023   ||displ|| :   0.0050   Lambda : -0.957D-07
Largest |displ|/coords:  0.0023 (   2)  0.0023 (   6)  0.0015 (  14)
................................................................................
.............................. CYCLE   81 ......................................
................................................................................
   1    -50.7429219 -0.507429E+02  0.327E-03    9.00       0.0  T
   2    -50.7429219 -0.212415E-08  0.241E-03    9.00       8.1  T
   3    -50.7429219 -0.179075E-08  0.386E-04    9.00      50.8  T
   4    -50.7429219 -0.213156E-09  0.989E-05    9.00     198.3  T
speedup  0.79
cpu  time for SCC    0.00 s
wall time for SCC    0.00 s
speedup  0.96
cpu  time for grad    0.01 s
wall time for grad    0.01 s
 E :    -50.45971456  G :  0.000122    pred/act E change: -0.898D-07 -0.668D-07
Maxdispl :   0.0017   ||displ|| :   0.0038   Lambda : -0.508D-07
Largest |displ|/coords:  0.0017 (   6)  0.0014 (   7)  0.0011 (  14)

   *** GEOMETRY OPTIMIZATION CONVERGED AFTER 81 ITERATIONS ***

------------------------------------------------------------------------
 total energy gain (kcal):     -1.6522
------------------------------------------------------------------------
================
 final structure:
================
$coord
        3.16702330069823       -1.35604858449172       -2.40692946957385      S 
        1.50445983737615       -3.25921088912386       -1.16382406696781      O 
        4.63917586846618       -0.06259474216875       -0.20034238164863      O 
        4.94304867482081       -2.44931008359966       -4.09515837481257      O 
        1.53766141288433        0.59073859859856       -3.56902000561857      O 
       -1.67005407637618       -0.21026253801608        4.44885454334015      O 
       -2.29555940327952       -0.38924487516738        6.13782694701434      H 
       -0.97540802690633        4.33687289894218       -1.71722772764172      O 
       -0.76304139385431        5.78292245823245       -2.78436832491694      H 
        0.05427892297576        2.96094159694876       -2.48638032811671      H 
       -4.51118536994615        1.08153414076983        0.30900784845141      O 
       -3.69070098455408        0.56941454802316        1.87830119237498      H 
       -3.59374545757123        2.56611057073395       -0.26535018943639      H 
        1.81158475099860        3.04068531742268        2.38404174806183      O 
        0.84164656956703        3.92975225641404        1.10038010337673      H 
        0.58461927136940        2.06646437756851        3.34653726663111      H 
        3.55155232452677        1.14929826354706        0.74931503966375      H 
        2.12763955700448       -3.28952252811536        3.72586385558790      O 
        1.95495515288213       -3.53747958550574        1.88772089623648      H 
        3.71827159190775       -2.43906855626692        3.93384665702932      H 
       -0.34376308525362       -1.53117511251842        4.23109820681741      H 
       -2.61568264639123       -1.94866165354839       -3.13272781039830      N 
       -3.66614435911919       -0.88171426147748       -1.78334598069803      H 
       -3.70087403347634       -3.09594489957565       -4.21521263909186      H 
       -1.50510058952768       -0.70667181629413       -4.16467242182126      H 
       -1.10465780937818       -2.91782488241854       -2.14823460260563      H 
$end
 
 Bond Distances (Angstroems)
 ---------------------------
S1-O2=1.4903         S1-O3=1.5617         S1-O4=1.4199         S1-O5=1.4775         O2-S1=1.4903         O3-S1=1.5617         
O3-H17=0.9975        O4-S1=1.4199         O5-S1=1.4775         O6-H7=0.9578         O6-H21=0.9972        H7-O6=0.9578         
O8-H9=0.9576         O8-H10=0.9963        H9-O8=0.9576         H10-O8=0.9963        O11-H12=0.9755       O11-H13=0.9722       
H12-O11=0.9755       H13-O11=0.9722       O14-H15=0.9727       O14-H16=0.9730       H15-O14=0.9727       H16-O14=0.9730       
H17-O3=0.9975        O18-H19=0.9858       O18-H20=0.9608       H19-O18=0.9858       H20-O18=0.9608       H21-O6=0.9972        
N22-H23=1.0666       N22-H24=1.0132       N22-H25=1.0371       N22-H26=1.0834       H23-N22=1.0666       H24-N22=1.0132       
H25-N22=1.0371       H26-N22=1.0834       
 N  H  Rav=1.0501 sigma=0.0270  Rmin=1.0132  Rmax=1.0834     4
 O  H  Rav=0.9770 sigma=0.0146  Rmin=0.9576  Rmax=0.9975    11
 S  O  Rav=1.4873 sigma=0.0505  Rmin=1.4199  Rmax=1.5617     4
 
 selected bond angles (degree)
 --------------------
O3-S1-O2=105.11                O4-S1-O2=113.15                O4-S1-O3=108.59                O5-S1-O2=108.08                
O5-S1-O3=107.26                O5-S1-O4=114.11                H17-O3-S1=111.75               H21-O6-H7=106.36               
H10-O8-H9=106.19               
 
 selected dihedral angles (degree)
 ---------------------------------
H17-O3-S1-O2=284.54           H17-O3-S1-O4=163.18           H17-O3-S1-O5= 39.41           
 
 CMA Distance (Angstroems)
 ---------------------------
R(CMA):  2.9309

========================================================================
 FINAL SINGLEPOINT CALCULATION ON OPTIMIZED GEOMETRY
========================================================================

 Ncao       : 65
 Nao        : 64
 Nshell     : 38
 Nel        : 80
 T(el)      :   300.0
 intcut     :    25.0
 scfconv/Eh :  0.100E-05
   qconv/e  :  0.100E-03
 intneglect :  0.100E-07
 broydamp   :      0.250
 iter      E             dE          RMSdq      gap      omega  full diag
   1    -50.7429219 -0.507429E+02  0.418E-05    9.00       0.0  T
   2    -50.7429219 -0.753175E-12  0.270E-05    9.00     726.8  T
   3    -50.7429219 -0.625278E-12  0.480E-06    9.00    4083.4  T
speedup  1.07
cpu  time for SCC    0.00 s
wall time for SCC    0.00 s

   *** convergence criteria satisfied after 3 iterations ***

          eigenvalues
 #    :          28         29         30         31         32         33         34         35
 occ. :        2.000      2.000      2.000      2.000      2.000      2.000      2.000      2.000
 eps  :       -13.456    -12.830    -12.562    -12.553    -12.489    -12.312    -12.150    -12.114
 #    :          36         37         38         39         40         41         42         43
 occ. :        2.000      2.000      2.000      2.000      2.000      0.000      0.000      0.000
 eps  :       -12.048    -11.919    -11.826    -11.487    -11.305     -2.303     -0.822     -0.083
 #    :          44         45         46         47         48         49         50         51
 occ. :        0.000      0.000      0.000      0.000      0.000      0.000      0.000      0.000
 eps  :         0.140      0.755      1.441      1.591      2.961      3.598      4.367      4.505


   #   Z            q   n(s)   n(p)   n(d)      C6AA      α(0)
   1  16 S      1.639  1.585  1.814  0.963    90.172    15.982
   2   8 O     -0.757  1.776  4.981  0.000    30.295     7.380
   3   8 O     -0.623  1.758  4.865  0.000    25.718     6.846
   4   8 O     -0.669  1.761  4.908  0.000    27.865     7.077
   5   8 O     -0.772  1.771  5.001  0.000    30.748     7.435
   6   8 O     -0.635  1.749  4.885  0.000    26.030     6.886
   7   1 H      0.287  0.713  0.000  0.000     0.763     1.372
   8   8 O     -0.635  1.749  4.886  0.000    26.044     6.888
   9   1 H      0.287  0.713  0.000  0.000     0.761     1.370
  10   1 H      0.341  0.659  0.000  0.000     0.610     1.227
  11   8 O     -0.611  1.753  4.857  0.000    25.443     6.808
  12   1 H      0.329  0.671  0.000  0.000     0.641     1.257
  13   1 H      0.325  0.675  0.000  0.000     0.650     1.267
  14   8 O     -0.630  1.763  4.867  0.000    25.919     6.871
  15   1 H      0.321  0.679  0.000  0.000     0.662     1.278
  16   1 H      0.324  0.676  0.000  0.000     0.653     1.269
  17   1 H      0.379  0.621  0.000  0.000     0.523     1.135
  18   8 O     -0.615  1.749  4.867  0.000    25.560     6.823
  19   1 H      0.331  0.669  0.000  0.000     0.635     1.252
  20   1 H      0.298  0.702  0.000  0.000     0.727     1.339
  21   1 H      0.343  0.657  0.000  0.000     0.607     1.224
  22   7 N     -0.356  1.274  4.082  0.000    29.158     8.020
  23   1 H      0.298  0.702  0.000  0.000     0.718     1.328
  24   1 H      0.228  0.772  0.000  0.000     0.973     1.545
  25   1 H      0.271  0.729  0.000  0.000     0.807     1.407
  26   1 H      0.303  0.697  0.000  0.000     0.703     1.313

 Mol. C6AA /au·bohr⁶  :       5450.513892
 Mol. C8AA /au·bohr⁸  :     118112.009075
 Mol. α(0) /au        :        106.599377

 
 Wiberg/Mayer (AO) data. WBOs > 0.1 written file <wbo>
 largest (>0.05) Wiberg bond orders for each atom
           total WBO             WBO to atom ...
     1  S   4.902    O    4 1.484    O    5 1.231    O    2 1.177    O    3 0.967
     2  O   1.755    S    1 1.177    H   26 0.148    O    4 0.106    O    5 0.096    O    3 0.072    H   19 0.069    N   22 0.058
     3  O   1.965    S    1 0.967    H   17 0.727    O    5 0.077    O    4 0.072    O    2 0.072
     4  O   1.789    S    1 1.484    O    5 0.106    O    2 0.106    O    3 0.072
     5  O   1.701    S    1 1.231    O    4 0.106    O    2 0.096    H   10 0.084    O    3 0.077
     6  O   1.865    H    7 0.910    H   21 0.786
     7  H   0.918    O    6 0.910
     8  O   1.860    H    9 0.909    H   10 0.792
     9  H   0.917    O    8 0.909
    10  H   0.884    O    8 0.792    O    5 0.084
    11  O   1.936    H   13 0.859    H   12 0.846    H   23 0.126    N   22 0.061
    12  H   0.892    O   11 0.846
    13  H   0.894    O   11 0.859
    14  O   1.901    H   15 0.849    H   16 0.848    H   17 0.109
    15  H   0.897    O   14 0.849
    16  H   0.895    O   14 0.848
    17  H   0.856    O    3 0.727    O   14 0.109
    18  O   1.894    H   20 0.905    H   19 0.817    H   21 0.092
    19  H   0.891    O   18 0.817    O    2 0.069
    20  H   0.911    O   18 0.905
    21  H   0.883    O    6 0.786    O   18 0.092
    22  N   3.507    H   24 0.944    H   25 0.868    H   23 0.782    H   26 0.751    O   11 0.061    O    2 0.058
    23  H   0.911    N   22 0.782    O   11 0.126
    24  H   0.948    N   22 0.944
    25  H   0.927    N   22 0.868
    26  H   0.908    N   22 0.751    O    2 0.148
 MOs/occ written to file <molden.input>
 
molecular dipole:
                 x           y           z       tot (Debye)
 q only:       -2.895       0.467       0.293
   full:       -2.486       0.653       0.262       6.567
molecular quadrupole (traceless):
                xx          xy          yy          xz          yz          zz
 q only:       -9.217      10.649       2.271      16.014      -2.358       6.946
  q+dip:      -11.890      10.401       2.677      15.330      -4.085       9.213
   full:      -11.996      10.489       2.576      15.382      -4.255       9.421

SCC energy    :     -50.7429219
rep           :       0.2828016
ES            :       0.2687754
AES           :      -0.0713799
AXC           :      -0.0086146
disp          :      -0.0196866
XB            :       0.0000000
fix           :       0.0000000
total E       :     -50.4597146
atomizationE  :       4.9900187     3131.28
(atE without considering molecular charge,
 total energy contains solvation terms)
H-L gap (eV)  :          9.0020
optimized geometry written to: xtbopt.xyz


------------------------------------------------------------------------
 * finished run on 2019/09/16 at 11:31:59.762     
------------------------------------------------------------------------
 total:
 * wall-time:     0 d,  0 h,  0 min,  1.929 sec
 *  cpu-time:     0 d,  0 h,  0 min,  1.899 sec
 * ratio c/w:     0.984 speedup
 SCF:
 * wall-time:     0 d,  0 h,  0 min,  0.136 sec
 *  cpu-time:     0 d,  0 h,  0 min,  0.133 sec
 * ratio c/w:     0.976 speedup
 ANC optimizer:
 * wall-time:     0 d,  0 h,  0 min,  1.768 sec
 *  cpu-time:     0 d,  0 h,  0 min,  1.743 sec
 * ratio c/w:     0.986 speedup

