      -----------------------------------------------------------      
     |                   =====================                   |     
     |                           x T B                           |     
     |                   =====================                   |     
     |                         S. Grimme                         |     
     |          Mulliken Center for Theoretical Chemistry        |     
     |                    University of Bonn                     |     
     |                 Version 6.0.1 (SAW181210)                 |     
      -----------------------------------------------------------      

   This program is distributed in the hope that it will be useful,
   but WITHOUT ANY WARRANTY; without even the implied warranty of
   MERCHANTABILITY or FITNESS FOR A PARTICULAR PURPOSE.
   
   FOR NON-COMMERCIAL, ACADEMIA USE ONLY.
   
   Cite this work as:
   S. Grimme, C. Bannwarth, P. Shushkov, J. Comput. Theory Chem., 2017,
   13, 1989-2009.
   C. Bannwarth, S. Ehlert and S. Grimme., ChemRxiv, 2018, preprint.
   http://doi.org/10.26434/chemrxiv.7246238.v1
   
   for sTDA-xTB:
   S. Grimme and C. Bannwarth, J. Chem. Phys., 2016, 145, 054103.
   
   in the mass-spec context:
   V. Asgeirsson, C. Bauer and S. Grimme, Chem. Sci., 2017, 8, 4879.
   
   if GBSA is used:
   P. Shushkov, F. März and S. Grimme, unpublished.
   
   for ANC optimizer:
   S. Grimme, unpublished.
   Rational Function algorithm used in ANCopt:
   F. Eckert, P. Pulay, H.-J. Werner, J. Comput. Chem., 1997, 18, 1473.
   
   with help from (in alphabetical order)
   C. Bannwarth, F. Bohle, G. Brandenburg, E. Caldeweyher, M. Checinski,
   S. Dohm, S. Ehlert, S. Ehrlich, F. März, H. Neugebauer, J. Pisarek,
   P. Pracht, P. Shushkov, and S. Spicher.
   
 * started run on 2019/09/16 at 12:07:53.711     
========================================================================
 # omp threads = 1
========================================================================
number of atoms            : 26
number of electrons        : 80
charge                     : 0
spin                       : .0
first test random number   : .8972

########################################################################
# WARNING! Please study the warnings concerning your input carefully
#  - XTBPATH is not set, using XTBHOME instead
#  - the use of '-opt' is discouraged, please use '--opt' next time
#  - the use of '-chrg' is discouraged, please use '--chrg' next time
#  - the use of '-uhf' is discouraged, please use '--uhf' next time
########################################################################

           ------------------------------------------------- 
          |                 G F N 2 - x T B                 |
          | Geometry, Frequencies, Noncovalent interactions |
          |            JCTC 2018 parametrisation            |
           ------------------------------------------------- 
      method parameters     
 k(s)        :  1.8500
 k(p)        :  2.2300
 k(d)        :  2.2300
 k(f)        :  2.0000
 kEN (H0ij)  : -2.0000
 D4 a1       :  0.5200
 D4 a2       :  5.0000
 D4 s6       :  1.0000
 D4 s8       :  2.7000
 D4 s9       :  5.0000
 alphaj      :  2.0000


            Z     q(EN)     CN     RAES       Cart. coordinates
     1  S   6.0    0.64    4.30    4.23    -0.64970     3.25730     3.59785
     2  O   6.0   -0.33    1.26    1.80    -0.97036     3.45401     0.80741
     3  O   6.0   -0.30    1.14    1.80    -2.84490     1.88101     4.70015
     4  O   6.0   -0.30    1.18    1.80     1.72276     1.85432     4.17338
     5  O   6.0   -0.25    2.08    1.84    -0.50825     5.80450     4.69525
     6  H   1.0    0.15    1.21    1.47    -2.03649     6.70916     4.32489
     7  O   6.0   -0.40    1.67    1.81    -0.61351    -3.82608    -0.42366
     8  H   1.0    0.17    0.95    1.42    -1.32912    -5.51308    -0.77821
     9  O   6.0   -0.39    1.61    1.81     0.34005     0.31537    -5.80563
    10  H   1.0    0.18    0.94    1.42     0.23638     0.82718    -7.59758
    11  O   6.0   -0.27    1.98    1.82     3.02390     2.66611    -2.61703
    12  H   1.0    0.17    1.08    1.44     2.05121     2.15363    -4.06819
    13  H   1.0    0.17    1.01    1.43     1.82030     3.40182    -1.46608
    14  O   6.0   -0.23    2.94    2.63    -2.50526    -0.08292    -2.30228
    15  H   1.0    0.16    1.17    1.46    -2.02133    -1.68650    -1.47513
    16  H   1.0    0.15    1.06    1.44    -2.27039     1.38648    -1.17279
    17  H   1.0    0.16    1.19    1.46    -1.63654     0.14892    -3.94029
    18  O   6.0   -0.23    2.93    2.62     2.78910    -2.40443    -3.12918
    19  H   1.0    0.16    1.18    1.46     1.92848    -1.54976    -4.55000
    20  H   1.0    0.13    0.97    1.43     3.94773    -1.25575    -2.21916
    21  H   1.0    0.16    1.18    1.46     1.57664    -3.23316    -1.97391
    22  N   5.0   -0.14    3.98    2.80    -0.41014    -2.86162     4.24404
    23  H   1.0    0.12    1.16    1.46    -0.50026    -3.43658     2.38777
    24  H   1.0    0.10    1.01    1.43    -2.10557    -2.05723     4.75678
    25  H   1.0    0.08    0.99    1.43    -0.05084    -4.39796     5.38204
    26  H   1.0    0.11    1.05    1.44     1.01612    -1.55473     4.44958

  Z AO/shell   Hii/eV     exponent
  1     Wed Apr 25 08:07:45 CEST 2018   EN: 2.200 GM2: 0.406  GM3: 0.0800  RAES: 1.40
     1s    -10.707211    1.230000
  7     Wed Apr 25 08:07:45 CEST 2018   EN: 3.040 GM2: 0.461  GM3:-0.0640  RAES: 1.90
     2s    -16.686243    2.339881
     2p    -12.523956    2.014332
  8     Wed Apr 25 08:07:45 CEST 2018   EN: 3.440 GM2: 0.452  GM3:-0.0517  RAES: 1.80
     2s    -20.229985    2.439742
     2p    -15.503117    2.137023
 16     Tue Apr 24 11:44:34 CEST 2018   EN: 2.580 GM2: 0.340  GM3:-0.0502  RAES: 3.10
     3s    -20.029654    1.981333
     3p    -11.377694    2.025643
     3d     -0.420282    1.702555
 no old-style atom pair restraining (fixing) potential

molecular fragmentation (1/2 indicates fragments):
11111122222222222222222222
# atoms in fragment 1/2:     6    20
 fragment masses (1/2) :       97.07      108.11
CMA distance (Bohr)    :   6.900
constraining FC (au)   :  0.0500
           ------------------------------------------------- 
          |        Self-Consistent Charge Iterations        |
           ------------------------------------------------- 

 Ncao       : 65
 Nao        : 64
 Nshell     : 38
 Nel        : 80
 T(el)      :   300.0
 intcut     :    25.0
 scfconv/Eh :  0.100E-05
   qconv/e  :  0.100E-03
 intneglect :  0.100E-07
 broydamp   :      0.250
 iter      E             dE          RMSdq      gap      omega  full diag
   1    -50.5337289 -0.505337E+02  0.709E+00   10.51       0.0  T
   2    -50.5853486 -0.516197E-01  0.512E+00    9.77       1.0  T
   3    -50.6262063 -0.408576E-01  0.135E+00    7.24       1.0  T
   4    -50.6311205 -0.491421E-02  0.605E-01    7.58       1.0  T
   5    -50.6317899 -0.669445E-03  0.320E-01    7.57       1.0  T
   6    -50.6322208 -0.430862E-03  0.140E-01    7.67       1.0  T
   7    -50.6323254 -0.104582E-03  0.522E-02    7.68       1.0  T
   8    -50.6323379 -0.125821E-04  0.302E-02    7.67       1.0  T
   9    -50.6323428 -0.483933E-05  0.132E-02    7.69       1.5  T
  10    -50.6323439 -0.108434E-05  0.225E-03    7.69       8.7  T
  11    -50.6323439 -0.191263E-07  0.117E-03    7.69      16.7  T
  12    -50.6323439 -0.566455E-08  0.382E-04    7.69      51.3  T
  13    -50.6323439 -0.698201E-09  0.143E-04    7.69     136.9  T
speedup  1.02
cpu  time for SCC    0.02 s
wall time for SCC    0.02 s

   *** convergence criteria satisfied after 13 iterations ***

          eigenvalues
 #    :          28         29         30         31         32         33         34         35
 occ. :        2.000      2.000      2.000      2.000      2.000      2.000      2.000      2.000
 eps  :       -12.382    -11.998    -11.703    -11.566    -11.369    -11.236    -11.141    -10.927
 #    :          36         37         38         39         40         41         42         43
 occ. :        2.000      2.000      2.000      2.000      2.000      0.000      0.000      0.000
 eps  :       -10.856    -10.650    -10.328     -9.806     -9.385     -1.694     -0.819     -0.187
 #    :          44         45         46         47         48         49         50         51
 occ. :        0.000      0.000      0.000      0.000      0.000      0.000      0.000      0.000
 eps  :         0.094      1.241      1.512      2.358      2.797      3.520      3.940      4.611


   #   Z            q   n(s)   n(p)   n(d)      C6AA      α(0)
   1  16 S      1.568  1.589  1.859  0.984    91.817    16.127
   2   8 O     -0.760  1.770  4.990  0.000    30.385     7.391
   3   8 O     -0.766  1.777  4.989  0.000    30.583     7.415
   4   8 O     -0.728  1.769  4.959  0.000    29.489     7.281
   5   8 O     -0.539  1.719  4.821  0.000    23.750     6.579
   6   1 H      0.357  0.643  0.000  0.000     0.563     1.174
   7   8 O     -0.838  1.828  5.010  0.000    32.712     7.670
   8   1 H      0.214  0.786  0.000  0.000     1.050     1.610
   9   8 O     -0.867  1.818  5.049  0.000    33.652     7.779
  10   1 H      0.194  0.806  0.000  0.000     1.153     1.687
  11   8 O     -0.672  1.758  4.914  0.000    26.986     7.011
  12   1 H      0.318  0.682  0.000  0.000     0.670     1.285
  13   1 H      0.288  0.712  0.000  0.000     0.757     1.367
  14   8 O     -0.486  1.669  4.817  0.000    22.543     6.412
  15   1 H      0.389  0.611  0.000  0.000     0.501     1.110
  16   1 H      0.385  0.615  0.000  0.000     0.512     1.125
  17   1 H      0.402  0.598  0.000  0.000     0.475     1.080
  18   8 O     -0.460  1.663  4.796  0.000    21.985     6.333
  19   1 H      0.411  0.589  0.000  0.000     0.461     1.064
  20   1 H      0.379  0.621  0.000  0.000     0.525     1.138
  21   1 H      0.394  0.606  0.000  0.000     0.490     1.097
  22   7 N     -0.302  1.256  4.046  0.000    27.750     7.824
  23   1 H      0.314  0.686  0.000  0.000     0.672     1.283
  24   1 H      0.277  0.723  0.000  0.000     0.786     1.389
  25   1 H      0.235  0.765  0.000  0.000     0.946     1.523
  26   1 H      0.293  0.707  0.000  0.000     0.734     1.343

 Mol. C6AA /au·bohr⁶  :       5519.594904
 Mol. C8AA /au·bohr⁸  :     119813.146861
 Mol. α(0) /au        :        107.096995

 
 Wiberg/Mayer (AO) data. WBOs > 0.1 written file <wbo>
 largest (>0.05) Wiberg bond orders for each atom
           total WBO             WBO to atom ...
     1  S   4.935    O    4 1.336    O    3 1.316    O    2 1.257    O    5 0.997
     2  O   1.691    S    1 1.257    O    3 0.113    O    4 0.111    H   16 0.077    O    5 0.070
     3  O   1.653    S    1 1.316    O    4 0.118    O    2 0.113    O    5 0.075
     4  O   1.708    S    1 1.336    O    3 0.118    O    2 0.111    O    5 0.055
     5  O   2.050    S    1 0.997    H    6 0.848    O    3 0.075    O    2 0.070    O    4 0.055
     6  H   0.872    O    5 0.848
     7  O   1.650    H    8 0.948    H   21 0.176    H   15 0.165    H   23 0.162    N   22 0.070    O   18 0.058    O   14 0.057
     8  H   0.954    O    7 0.948
     9  O   1.552    H   10 0.941    H   17 0.182    H   19 0.178    H   12 0.087    O   14 0.057    O   18 0.055
    10  H   0.963    O    9 0.941
    11  O   1.793    H   13 0.889    H   12 0.811
    12  H   0.899    O   11 0.811    O    9 0.087
    13  H   0.917    O   11 0.889
    14  O   2.258    H   16 0.765    H   15 0.680    H   17 0.651    O    7 0.057    O    9 0.057
    15  H   0.849    O   14 0.680    O    7 0.165
    16  H   0.851    O   14 0.765    O    2 0.077
    17  H   0.838    O   14 0.651    O    9 0.182
    18  O   2.276    H   20 0.829    H   21 0.663    H   19 0.645    O    7 0.058    O    9 0.055
    19  H   0.831    O   18 0.645    O    9 0.178
    20  H   0.856    O   18 0.829
    21  H   0.844    O   18 0.663    O    7 0.176
    22  N   3.548    H   25 0.940    H   24 0.900    H   26 0.859    H   23 0.735    O    7 0.070
    23  H   0.901    N   22 0.735    O    7 0.162
    24  H   0.923    N   22 0.900
    25  H   0.945    N   22 0.940
    26  H   0.914    N   22 0.859
 MOs/occ written to file <molden.input>
 
molecular dipole:
                 x           y           z       tot (Debye)
 q only:       -0.488      -2.831       1.011
   full:       -0.810      -2.182       1.145       6.594
molecular quadrupole (traceless):
                xx          xy          yy          xz          yz          zz
 q only:       -4.453      -9.185      10.697      -0.274      -9.388      -6.243
  q+dip:      -11.108      -9.906      15.205      -0.037      -7.298      -4.097
   full:      -11.499      -9.963      15.424       0.012      -7.114      -3.925

SCC energy    :     -50.6323439
rep           :       0.2817454
ES            :       0.3463366
AES           :      -0.0742892
AXC           :      -0.0086871
disp          :      -0.0183753
XB            :       0.0000000
fix           :       0.0000000
total E       :     -50.3502753
atomizationE  :       4.8805794     3062.61
(atE without considering molecular charge,
 total energy contains solvation terms)
H-L gap (eV)  :          7.6912
           ------------------------------------------------- 
          |                 ===============                 |
          |                   A N C O P T                   |
          |                 ===============                 |
          |          Approximate Normal Coordinate          |
          |           Rational Function Optimizer           |
           ------------------------------------------------- 
dumping coords to <xtbopt.coord> and <xtbopt.log>
 optlevel               2
 Maxcycle             520
 Maxmicro              25
 Econv         1.000000000000000E-007
 Gconv         2.000000000000000E-004
 Maxdispl       1.00000000000000     
 Hlow          5.000000000000000E-003
 S6             20.0000000000000     
 Nvar               72

generating ANC from model Hessian ...
 Shifting diagonal of input Hessian by   4.958711995633144E-003
 Lowest  eigenvalues of input Hessian
   -0.000000   -0.000000   -0.000000    0.000000    0.000000    0.000000
    0.005000    0.005518    0.006057    0.006672    0.006816    0.007226
    0.007421    0.007728    0.008381    0.008924    0.009871    0.011379
 Highest eigenvalues
    1.571815    1.591314    1.595258    3.137701    3.207549    3.312077
 
cpu  time for ANC gen    0.02 s
wall time for ANC gen    0.02 s
................................................................................
.............................. CYCLE    1 ......................................
................................................................................
   1    -50.6323439 -0.506323E+02  0.701E-05    7.69       0.0  T
   2    -50.6323439 -0.110418E-10  0.515E-05    7.69     380.8  T
   3    -50.6323439 -0.923706E-11  0.210E-05    7.69     931.7  T
speedup  0.97
cpu  time for SCC    0.00 s
wall time for SCC    0.00 s
speedup  0.94
cpu  time for grad    0.01 s
wall time for grad    0.01 s
 E :    -50.35027523  G :  0.229732    pred/act E change:  0.000D+00  0.374D-07
Maxdispl :   0.1441   ||displ|| :   0.3413   Lambda : -0.431D-01
Largest |displ|/coords:  0.1441 (   8)  0.1292 (  19)  0.1138 (  55)
................................................................................
.............................. CYCLE    2 ......................................
................................................................................
   1    -50.6461035 -0.506461E+02  0.334E-01    7.75       0.0  T
   2    -50.6463909 -0.287325E-03  0.245E-01    7.82       1.0  T
   3    -50.6465131 -0.122271E-03  0.939E-02    7.93       1.0  T
   4    -50.6465286 -0.154345E-04  0.184E-02    7.94       1.1  T
   5    -50.6465294 -0.873757E-06  0.574E-03    7.93       3.4  T
   6    -50.6465295 -0.481217E-07  0.315E-03    7.93       6.2  T
speedup  0.86
cpu  time for SCC    0.00 s
wall time for SCC    0.01 s
speedup  0.95
cpu  time for grad    0.01 s
wall time for grad    0.01 s
 E :    -50.38373867  G :  0.136416    pred/act E change:  0.000D+00 -0.335D-01
Maxdispl :   0.2090   ||displ|| :   0.4072   Lambda : -0.204D-01
Largest |displ|/coords:  0.2090 (   8)  0.1792 (  19)  0.1174 (  20)
................................................................................
.............................. CYCLE    3 ......................................
................................................................................
   1    -50.6529104 -0.506529E+02  0.294E-01    8.00       0.0  T
   2    -50.6532795 -0.369143E-03  0.210E-01    8.09       1.0  T
   3    -50.6534209 -0.141374E-03  0.936E-02    8.21       1.0  T
   4    -50.6534309 -0.100581E-04  0.157E-02    8.22       1.2  T
   5    -50.6534318 -0.819945E-06  0.492E-03    8.21       4.0  T
   6    -50.6534318 -0.413498E-07  0.312E-03    8.21       6.3  T
speedup  0.86
cpu  time for SCC    0.01 s
wall time for SCC    0.01 s
speedup  1.00
cpu  time for grad    0.01 s
wall time for grad    0.01 s
 E :    -50.40020520  G :  0.088097    pred/act E change: -0.241D-01 -0.165D-01
Maxdispl :   0.1998   ||displ|| :   0.4173   Lambda : -0.107D-01
Largest |displ|/coords:  0.1998 (   8)  0.1517 (  19)  0.1339 (  20)
................................................................................
.............................. CYCLE    4 ......................................
................................................................................
   1    -50.6555297 -0.506555E+02  0.284E-01    8.29       0.0  T
   2    -50.6558966 -0.366930E-03  0.200E-01    8.38       1.0  T
   3    -50.6560359 -0.139301E-03  0.876E-02    8.51       1.0  T
   4    -50.6560457 -0.972778E-05  0.151E-02    8.51       1.3  T
   5    -50.6560465 -0.805546E-06  0.507E-03    8.50       3.9  T
   6    -50.6560465 -0.428114E-07  0.312E-03    8.50       6.3  T
speedup  1.03
cpu  time for SCC    0.01 s
wall time for SCC    0.01 s
speedup  1.01
cpu  time for grad    0.01 s
wall time for grad    0.01 s
 E :    -50.40863737  G :  0.058764    pred/act E change: -0.119D-01 -0.843D-02
Maxdispl :   0.1600   ||displ|| :   0.3576   Lambda : -0.550D-02
Largest |displ|/coords:  0.1600 (  18)  0.1069 (   8)  0.1067 (   5)
................................................................................
.............................. CYCLE    5 ......................................
................................................................................
   1    -50.6561878 -0.506562E+02  0.265E-01    8.57       0.0  T
   2    -50.6564027 -0.214847E-03  0.190E-01    8.66       1.0  T
   3    -50.6564888 -0.861670E-04  0.675E-02    8.79       1.0  T
   4    -50.6565001 -0.112439E-04  0.141E-02    8.78       1.4  T
   5    -50.6565006 -0.478186E-06  0.439E-03    8.77       4.5  T
   6    -50.6565006 -0.294837E-07  0.248E-03    8.77       7.9  T
speedup  1.05
cpu  time for SCC    0.01 s
wall time for SCC    0.01 s
speedup  1.02
cpu  time for grad    0.01 s
wall time for grad    0.01 s
 E :    -50.41316353  G :  0.044157    pred/act E change: -0.625D-02 -0.453D-02
Maxdispl :   0.2042   ||displ|| :   0.4779   Lambda : -0.691D-02
Largest |displ|/coords:  0.2042 (  18)  0.1513 (  20)  0.1429 (   1)
................................................................................
.............................. CYCLE    6 ......................................
................................................................................
   1    -50.6607402 -0.506607E+02  0.365E-01    8.83       0.0  T
   2    -50.6613235 -0.583318E-03  0.256E-01    8.87       1.0  T
   3    -50.6615552 -0.231712E-03  0.101E-01    8.94       1.0  T
   4    -50.6615739 -0.186584E-04  0.224E-02    8.94       1.0  T
   5    -50.6615748 -0.921836E-06  0.693E-03    8.94       2.8  T
   6    -50.6615749 -0.971455E-07  0.366E-03    8.94       5.4  T
   7    -50.6615749 -0.253030E-07  0.128E-03    8.94      15.3  T
speedup  1.06
cpu  time for SCC    0.01 s
wall time for SCC    0.01 s
speedup  1.01
cpu  time for grad    0.01 s
wall time for grad    0.01 s
 E :    -50.41781140  G :  0.032146    pred/act E change: -0.310D-02 -0.465D-02
Maxdispl :   0.1875   ||displ|| :   0.4111   Lambda : -0.304D-02
Largest |displ|/coords:  0.1875 (  18)  0.1547 (  20)  0.1407 (  11)
................................................................................
.............................. CYCLE    7 ......................................
................................................................................
   1    -50.6628200 -0.506628E+02  0.315E-01    8.81       0.0  T
   2    -50.6631230 -0.303048E-03  0.223E-01    8.83       1.0  T
   3    -50.6632465 -0.123508E-03  0.789E-02    8.87       1.0  T
   4    -50.6632628 -0.162775E-04  0.162E-02    8.87       1.2  T
   5    -50.6632634 -0.635208E-06  0.620E-03    8.87       3.2  T
   6    -50.6632635 -0.910660E-07  0.347E-03    8.87       5.6  T
   7    -50.6632636 -0.181189E-07  0.111E-03    8.87      17.6  T
speedup  1.08
cpu  time for SCC    0.01 s
wall time for SCC    0.01 s
speedup  1.03
cpu  time for grad    0.01 s
wall time for grad    0.01 s
 E :    -50.41959312  G :  0.045778    pred/act E change: -0.424D-02 -0.178D-02
Maxdispl :   0.1668   ||displ|| :   0.4075   Lambda : -0.406D-02
Largest |displ|/coords:  0.1668 (   3)  0.1346 (   1)  0.1318 (   9)
................................................................................
.............................. CYCLE    8 ......................................
................................................................................
   1    -50.6759352 -0.506759E+02  0.253E-01    8.89       0.0  T
   2    -50.6761108 -0.175624E-03  0.186E-01    8.91       1.0  T
   3    -50.6761870 -0.761843E-04  0.615E-02    8.96       1.0  T
   4    -50.6762009 -0.139411E-04  0.144E-02    8.96       1.4  T
   5    -50.6762013 -0.332686E-06  0.456E-03    8.96       4.3  T
   6    -50.6762013 -0.205123E-07  0.231E-03    8.96       8.5  T
speedup  1.07
cpu  time for SCC    0.01 s
wall time for SCC    0.01 s
speedup  1.02
cpu  time for grad    0.01 s
wall time for grad    0.01 s
 E :    -50.42069329  G :  0.046985    pred/act E change: -0.178D-02 -0.110D-02
Maxdispl :   0.2114   ||displ|| :   0.3237   Lambda : -0.398D-02
Largest |displ|/coords:  0.2114 (  18)  0.0970 (  20)  0.0786 (  14)
................................................................................
.............................. CYCLE    9 ......................................
................................................................................
   1    -50.6700232 -0.506700E+02  0.299E-01    8.98       0.0  T
   2    -50.6701868 -0.163600E-03  0.217E-01    8.99       1.0  T
   3    -50.6702619 -0.751195E-04  0.657E-02    8.96       1.0  T
   4    -50.6702768 -0.149146E-04  0.136E-02    8.97       1.4  T
   5    -50.6702773 -0.469411E-06  0.526E-03    8.97       3.7  T
   6    -50.6702773 -0.612221E-07  0.301E-03    8.97       6.5  T
speedup  0.86
cpu  time for SCC    0.01 s
wall time for SCC    0.01 s
speedup  0.99
cpu  time for grad    0.01 s
wall time for grad    0.01 s
 E :    -50.42223757  G :  0.046332    pred/act E change: -0.237D-02 -0.154D-02
Maxdispl :   0.1512   ||displ|| :   0.2512   Lambda : -0.335D-02
Largest |displ|/coords:  0.1512 (  15)  0.0737 (  19)  0.0619 (   7)
................................................................................
.............................. CYCLE   10 ......................................
................................................................................
   1    -50.6716070 -0.506716E+02  0.271E-01    9.04       0.0  T
   2    -50.6717126 -0.105571E-03  0.203E-01    9.03       1.0  T
   3    -50.6717508 -0.382603E-04  0.576E-02    9.03       1.0  T
   4    -50.6717643 -0.135128E-04  0.151E-02    9.03       1.3  T
   5    -50.6717649 -0.514717E-06  0.422E-03    9.03       4.6  T
   6    -50.6717649 -0.225201E-07  0.225E-03    9.03       8.7  T
speedup  1.05
cpu  time for SCC    0.01 s
wall time for SCC    0.01 s
speedup  1.01
cpu  time for grad    0.01 s
wall time for grad    0.01 s
 E :    -50.42319406  G :  0.037437    pred/act E change: -0.220D-02 -0.956D-03
Maxdispl :   0.1088   ||displ|| :   0.2741   Lambda : -0.349D-02
Largest |displ|/coords:  0.1088 (  16)  0.1008 (  18)  0.0822 (  22)
................................................................................
.............................. CYCLE   11 ......................................
................................................................................
   1    -50.6728631 -0.506729E+02  0.287E-01    9.03       0.0  T
   2    -50.6729128 -0.497029E-04  0.218E-01    9.01       1.0  T
   3    -50.6729491 -0.363353E-04  0.375E-02    8.96       1.0  T
   4    -50.6729565 -0.732156E-05  0.145E-02    8.97       1.3  T
   5    -50.6729567 -0.241156E-06  0.402E-03    8.98       4.9  T
   6    -50.6729567 -0.206970E-07  0.217E-03    8.98       9.0  T
speedup  1.05
cpu  time for SCC    0.01 s
wall time for SCC    0.01 s
speedup  1.01
cpu  time for grad    0.01 s
wall time for grad    0.01 s
 E :    -50.42434325  G :  0.033415    pred/act E change: -0.178D-02 -0.115D-02
Maxdispl :   0.1279   ||displ|| :   0.2567   Lambda : -0.225D-02
Largest |displ|/coords:  0.1279 (  18)  0.0724 (   9)  0.0709 (   2)
................................................................................
.............................. CYCLE   12 ......................................
................................................................................
   1    -50.6804688 -0.506805E+02  0.172E-01    8.98       0.0  T
   2    -50.6805641 -0.953539E-04  0.125E-01    8.97       1.0  T
   3    -50.6806077 -0.436132E-04  0.462E-02    8.96       1.0  T
   4    -50.6806148 -0.706534E-05  0.830E-03    8.96       2.4  T
   5    -50.6806149 -0.143549E-06  0.396E-03    8.96       5.0  T
   6    -50.6806150 -0.108772E-07  0.158E-03    8.96      12.4  T
speedup  1.07
cpu  time for SCC    0.01 s
wall time for SCC    0.01 s
speedup  1.02
cpu  time for grad    0.01 s
wall time for grad    0.01 s
 E :    -50.42546822  G :  0.024813    pred/act E change: -0.188D-02 -0.112D-02
Maxdispl :   0.1369   ||displ|| :   0.3828   Lambda : -0.216D-02
Largest |displ|/coords:  0.1369 (  18)  0.1335 (   1)  0.1172 (  14)
................................................................................
.............................. CYCLE   13 ......................................
................................................................................
   1    -50.6812910 -0.506813E+02  0.258E-01    9.03       0.0  T
   2    -50.6814088 -0.117775E-03  0.190E-01    9.03       1.0  T
   3    -50.6814650 -0.562129E-04  0.543E-02    9.05       1.0  T
   4    -50.6814778 -0.127768E-04  0.114E-02    9.05       1.7  T
   5    -50.6814780 -0.210175E-06  0.480E-03    9.05       4.1  T
   6    -50.6814780 -0.277031E-07  0.221E-03    9.05       8.9  T
speedup  1.07
cpu  time for SCC    0.01 s
wall time for SCC    0.01 s
speedup  1.02
cpu  time for grad    0.01 s
wall time for grad    0.01 s
 E :    -50.42651853  G :  0.031946    pred/act E change: -0.120D-02 -0.105D-02
Maxdispl :   0.1288   ||displ|| :   0.3114   Lambda : -0.206D-02
Largest |displ|/coords:  0.1288 (  18)  0.0949 (   8)  0.0893 (  23)
................................................................................
.............................. CYCLE   14 ......................................
................................................................................
   1    -50.6814555 -0.506815E+02  0.195E-01    9.11       0.0  T
   2    -50.6815005 -0.450320E-04  0.147E-01    9.13       1.0  T
   3    -50.6815209 -0.204116E-04  0.364E-02    9.17       1.0  T
   4    -50.6815279 -0.693881E-05  0.120E-02    9.16       1.6  T
   5    -50.6815282 -0.309644E-06  0.353E-03    9.16       5.6  T
   6    -50.6815282 -0.142932E-07  0.191E-03    9.16      10.3  T
speedup  1.07
cpu  time for SCC    0.01 s
wall time for SCC    0.01 s
speedup  1.02
cpu  time for grad    0.01 s
wall time for grad    0.01 s
 E :    -50.42796019  G :  0.033847    pred/act E change: -0.124D-02 -0.144D-02
Maxdispl :   0.1550   ||displ|| :   0.4835   Lambda : -0.427D-02
Largest |displ|/coords:  0.1550 (   1)  0.1492 (  23)  0.1307 (  18)
................................................................................
.............................. CYCLE   15 ......................................
................................................................................
   1    -50.6897378 -0.506897E+02  0.338E-01    9.35       0.0  T
   2    -50.6900693 -0.331420E-03  0.251E-01    9.38       1.0  T
   3    -50.6902049 -0.135609E-03  0.940E-02    9.44       1.0  T
   4    -50.6902306 -0.256812E-04  0.267E-02    9.44       1.0  T
   5    -50.6902320 -0.148173E-05  0.723E-03    9.43       2.7  T
   6    -50.6902321 -0.608417E-07  0.406E-03    9.43       4.8  T
   7    -50.6902321 -0.214941E-07  0.123E-03    9.43      15.9  T
speedup  1.06
cpu  time for SCC    0.01 s
wall time for SCC    0.01 s
speedup  1.03
cpu  time for grad    0.01 s
wall time for grad    0.01 s
 E :    -50.43038210  G :  0.044103    pred/act E change: -0.113D-02 -0.242D-02
Maxdispl :   0.2757   ||displ|| :   0.5531   Lambda : -0.439D-02
Largest |displ|/coords:  0.2757 (  18)  0.1478 (   1)  0.1390 (  20)
................................................................................
.............................. CYCLE   16 ......................................
................................................................................
   1    -50.6939517 -0.506940E+02  0.399E-01    9.55       0.0  T
   2    -50.6942031 -0.251343E-03  0.299E-01    9.57       1.0  T
   3    -50.6943298 -0.126694E-03  0.837E-02    9.58       1.0  T
   4    -50.6943621 -0.323738E-04  0.222E-02    9.58       1.0  T
   5    -50.6943634 -0.126494E-05  0.792E-03    9.58       2.5  T
   6    -50.6943635 -0.542739E-07  0.451E-03    9.58       4.3  T
   7    -50.6943635 -0.299601E-07  0.944E-04    9.58      20.8  T
speedup  0.92
cpu  time for SCC    0.01 s
wall time for SCC    0.01 s
speedup  0.96
cpu  time for grad    0.01 s
wall time for grad    0.01 s
 E :    -50.43341683  G :  0.044692    pred/act E change: -0.264D-02 -0.303D-02
Maxdispl :   0.1320   ||displ|| :   0.4327   Lambda : -0.583D-02
Largest |displ|/coords:  0.1320 (   5)  0.1267 (   7)  0.1150 (  28)
................................................................................
.............................. CYCLE   17 ......................................
................................................................................
   1    -50.7104099 -0.507104E+02  0.364E-01    9.66       0.0  T
   2    -50.7106974 -0.287509E-03  0.264E-01    9.65       1.0  T
   3    -50.7108419 -0.144438E-03  0.856E-02    9.65       1.0  T
   4    -50.7108620 -0.201743E-04  0.194E-02    9.65       1.0  T
   5    -50.7108630 -0.990492E-06  0.749E-03    9.65       2.6  T
   6    -50.7108631 -0.437012E-07  0.384E-03    9.65       5.1  T
   7    -50.7108631 -0.215263E-07  0.102E-03    9.65      19.2  T
speedup  0.91
cpu  time for SCC    0.01 s
wall time for SCC    0.01 s
speedup  1.02
cpu  time for grad    0.01 s
wall time for grad    0.01 s
 E :    -50.43543719  G :  0.043438    pred/act E change: -0.287D-02 -0.202D-02
Maxdispl :   0.1589   ||displ|| :   0.3872   Lambda : -0.404D-02
Largest |displ|/coords:  0.1589 (   1)  0.1237 (  23)  0.1203 (  18)
................................................................................
.............................. CYCLE   18 ......................................
................................................................................
   1    -50.7028909 -0.507029E+02  0.252E-01    9.50       0.0  T
   2    -50.7029497 -0.587518E-04  0.183E-01    9.50       1.0  T
   3    -50.7029804 -0.307392E-04  0.448E-02    9.48       1.0  T
   4    -50.7029863 -0.588654E-05  0.128E-02    9.48       1.5  T
   5    -50.7029866 -0.339522E-06  0.422E-03    9.48       4.7  T
   6    -50.7029867 -0.307626E-07  0.233E-03    9.48       8.4  T
speedup  1.05
cpu  time for SCC    0.01 s
wall time for SCC    0.01 s
speedup  1.01
cpu  time for grad    0.01 s
wall time for grad    0.01 s
 E :    -50.43768801  G :  0.035388    pred/act E change: -0.346D-02 -0.225D-02
Maxdispl :   0.1552   ||displ|| :   0.3313   Lambda : -0.364D-02
Largest |displ|/coords:  0.1552 (  10)  0.1392 (   7)  0.0876 (   1)
................................................................................
.............................. CYCLE   19 ......................................
................................................................................
   1    -50.7019133 -0.507019E+02  0.237E-01    9.33       0.0  T
   2    -50.7020467 -0.133334E-03  0.170E-01    9.33       1.0  T
   3    -50.7021044 -0.577322E-04  0.580E-02    9.34       1.0  T
   4    -50.7021144 -0.998084E-05  0.190E-02    9.34       1.0  T
   5    -50.7021150 -0.578484E-06  0.462E-03    9.34       4.2  T
   6    -50.7021150 -0.262537E-07  0.254E-03    9.34       7.7  T
speedup  1.03
cpu  time for SCC    0.01 s
wall time for SCC    0.01 s
speedup  1.01
cpu  time for grad    0.01 s
wall time for grad    0.01 s
 E :    -50.43818735  G :  0.031838    pred/act E change: -0.232D-02 -0.499D-03
Maxdispl :   0.2028   ||displ|| :   0.4223   Lambda : -0.313D-02
Largest |displ|/coords:  0.2028 (   7)  0.1465 (  18)  0.1278 (   1)
................................................................................
.............................. CYCLE   20 ......................................
................................................................................
   1    -50.7051113 -0.507051E+02  0.266E-01    9.30       0.0  T
   2    -50.7052290 -0.117712E-03  0.198E-01    9.29       1.0  T
   3    -50.7052833 -0.543035E-04  0.580E-02    9.26       1.0  T
   4    -50.7052975 -0.141985E-04  0.134E-02    9.25       1.5  T
   5    -50.7052980 -0.482883E-06  0.514E-03    9.25       3.8  T
   6    -50.7052980 -0.183195E-07  0.278E-03    9.25       7.1  T
speedup  0.86
cpu  time for SCC    0.01 s
wall time for SCC    0.01 s
speedup  1.01
cpu  time for grad    0.01 s
wall time for grad    0.01 s
 E :    -50.43983748  G :  0.034442    pred/act E change: -0.202D-02 -0.165D-02
Maxdispl :   0.1488   ||displ|| :   0.3067   Lambda : -0.274D-02
Largest |displ|/coords:  0.1488 (   6)  0.1280 (   1)  0.0995 (  18)
................................................................................
.............................. CYCLE   21 ......................................
................................................................................
   1    -50.7175624 -0.507176E+02  0.218E-01    9.27       0.0  T
   2    -50.7176572 -0.948251E-04  0.160E-01    9.22       1.0  T
   3    -50.7177107 -0.534548E-04  0.519E-02    9.12       1.0  T
   4    -50.7177189 -0.820447E-05  0.173E-02    9.14       1.1  T
   5    -50.7177195 -0.635252E-06  0.518E-03    9.15       3.8  T
   6    -50.7177195 -0.273125E-07  0.263E-03    9.15       7.5  T
speedup  1.03
cpu  time for SCC    0.01 s
wall time for SCC    0.01 s
speedup  0.99
cpu  time for grad    0.01 s
wall time for grad    0.01 s
 E :    -50.43893257  G :  0.046795    pred/act E change: -0.184D-02  0.905D-03
Maxdispl :   0.0979   ||displ|| :   0.2018   Lambda : -0.407D-02
Largest |displ|/coords:  0.0979 (   7)  0.0812 (   8)  0.0733 (   6)
................................................................................
.............................. CYCLE   22 ......................................
................................................................................
   1    -50.7077093 -0.507077E+02  0.170E-01    9.14       0.0  T
   2    -50.7077599 -0.505145E-04  0.125E-01    9.17       1.0  T
   3    -50.7077857 -0.258664E-04  0.377E-02    9.23       1.0  T
   4    -50.7077906 -0.488953E-05  0.982E-03    9.22       2.0  T
   5    -50.7077909 -0.253562E-06  0.353E-03    9.22       5.6  T
   6    -50.7077909 -0.123286E-07  0.189E-03    9.22      10.4  T
speedup  1.05
cpu  time for SCC    0.01 s
wall time for SCC    0.01 s
speedup  1.01
cpu  time for grad    0.01 s
wall time for grad    0.01 s
 E :    -50.44098461  G :  0.018018    pred/act E change: -0.150D-02 -0.205D-02
Maxdispl :   0.1215   ||displ|| :   0.2518   Lambda : -0.907D-03
Largest |displ|/coords:  0.1215 (   1)  0.1053 (   7)  0.0970 (   3)
................................................................................
.............................. CYCLE   23 ......................................
................................................................................
   1    -50.7094457 -0.507094E+02  0.109E-01    9.20       0.0  T
   2    -50.7094558 -0.100490E-04  0.816E-02    9.18       1.0  T
   3    -50.7094631 -0.736540E-05  0.172E-02    9.14       1.1  T
   4    -50.7094643 -0.113555E-05  0.526E-03    9.15       3.7  T
   5    -50.7094643 -0.530391E-07  0.196E-03    9.15      10.0  T
   6    -50.7094643 -0.593649E-08  0.911E-04    9.15      21.5  T
speedup  1.03
cpu  time for SCC    0.01 s
wall time for SCC    0.01 s
speedup  1.00
cpu  time for grad    0.01 s
wall time for grad    0.01 s
 E :    -50.44119465  G :  0.020789    pred/act E change: -0.212D-02 -0.210D-03
Maxdispl :   0.0815   ||displ|| :   0.1909   Lambda : -0.861D-03
Largest |displ|/coords:  0.0815 (   1)  0.0726 (   7)  0.0588 (   8)
................................................................................
.............................. CYCLE   24 ......................................
................................................................................
   1    -50.7120436 -0.507120E+02  0.119E-01    9.27       0.0  T
   2    -50.7120505 -0.690177E-05  0.874E-02    9.28       1.0  T
   3    -50.7120544 -0.393254E-05  0.172E-02    9.31       1.1  T
   4    -50.7120551 -0.713476E-06  0.792E-03    9.31       2.5  T
   5    -50.7120552 -0.537391E-07  0.127E-03    9.31      15.4  T
   6    -50.7120552 -0.302985E-08  0.819E-04    9.31      24.0  T
speedup  0.88
cpu  time for SCC    0.00 s
wall time for SCC    0.01 s
speedup  0.94
cpu  time for grad    0.01 s
wall time for grad    0.01 s
 E :    -50.44170540  G :  0.015910    pred/act E change: -0.482D-03 -0.511D-03
Maxdispl :   0.1382   ||displ|| :   0.2391   Lambda : -0.812D-03
Largest |displ|/coords:  0.1382 (   8)  0.0783 (   1)  0.0687 (   7)
................................................................................
.............................. CYCLE   25 ......................................
................................................................................
   1    -50.7089918 -0.507090E+02  0.144E-01    9.29       0.0  T
   2    -50.7090039 -0.120787E-04  0.106E-01    9.28       1.0  T
   3    -50.7090095 -0.561991E-05  0.223E-02    9.25       1.0  T
   4    -50.7090110 -0.147036E-05  0.926E-03    9.26       2.1  T
   5    -50.7090110 -0.816877E-07  0.183E-03    9.26      10.7  T
   6    -50.7090111 -0.670047E-08  0.106E-03    9.26      18.4  T
speedup  0.86
cpu  time for SCC    0.00 s
wall time for SCC    0.01 s
speedup  0.94
cpu  time for grad    0.01 s
wall time for grad    0.01 s
 E :    -50.44194981  G :  0.014394    pred/act E change: -0.446D-03 -0.244D-03
Maxdispl :   0.1174   ||displ|| :   0.2016   Lambda : -0.617D-03
Largest |displ|/coords:  0.1174 (   7)  0.0767 (   9)  0.0669 (   1)

generating ANC from model Hessian ...
 Shifting diagonal of input Hessian by   4.901969189193302E-003
 Lowest  eigenvalues of input Hessian
   -0.000000   -0.000000   -0.000000   -0.000000   -0.000000    0.000000
    0.005000    0.005205    0.005705    0.005881    0.006285    0.006855
    0.007479    0.007877    0.008584    0.009563    0.010774    0.012008
 Highest eigenvalues
    1.384054    1.410186    1.421615    2.592915    3.463942    3.626230
 
cpu  time for ANC gen    0.02 s
wall time for ANC gen    0.02 s
................................................................................
.............................. CYCLE   26 ......................................
................................................................................
   1    -50.7115097 -0.507115E+02  0.107E-01    9.24       0.0  T
   2    -50.7115175 -0.780800E-05  0.794E-02    9.23       1.0  T
   3    -50.7115220 -0.443192E-05  0.161E-02    9.22       1.2  T
   4    -50.7115230 -0.106057E-05  0.444E-03    9.22       4.4  T
   5    -50.7115230 -0.283409E-07  0.158E-03    9.22      12.4  T
   6    -50.7115230 -0.346674E-08  0.799E-04    9.22      24.5  T
   7    -50.7115230 -0.104576E-08  0.252E-04    9.22      77.8  T
speedup  1.04
cpu  time for SCC    0.01 s
wall time for SCC    0.01 s
speedup  0.99
cpu  time for grad    0.01 s
wall time for grad    0.02 s
 E :    -50.44218337  G :  0.016206    pred/act E change:  0.000D+00 -0.234D-03
Maxdispl :   0.1010   ||displ|| :   0.2284   Lambda : -0.817D-03
Largest |displ|/coords:  0.1010 (   5)  0.0971 (  12)  0.0870 (   4)
................................................................................
.............................. CYCLE   27 ......................................
................................................................................
   1    -50.7121215 -0.507121E+02  0.198E-01    9.23       0.0  T
   2    -50.7121269 -0.533399E-05  0.150E-01    9.22       1.0  T
   3    -50.7121329 -0.604663E-05  0.110E-02    9.22       1.8  T
   4    -50.7121333 -0.449877E-06  0.397E-03    9.22       4.9  T
   5    -50.7121334 -0.139328E-07  0.191E-03    9.22      10.2  T
   6    -50.7121334 -0.586630E-08  0.725E-04    9.22      27.0  T
speedup  0.88
cpu  time for SCC    0.00 s
wall time for SCC    0.01 s
speedup  0.96
cpu  time for grad    0.01 s
wall time for grad    0.01 s
 E :    -50.44271008  G :  0.009966    pred/act E change:  0.000D+00 -0.527D-03
Maxdispl :   0.1321   ||displ|| :   0.2091   Lambda : -0.490D-03
Largest |displ|/coords:  0.1321 (   8)  0.0764 (  12)  0.0682 (   2)
................................................................................
.............................. CYCLE   28 ......................................
................................................................................
   1    -50.7129417 -0.507129E+02  0.151E-01    9.24       0.0  T
   2    -50.7129469 -0.520905E-05  0.114E-01    9.25       1.0  T
   3    -50.7129512 -0.427078E-05  0.120E-02    9.25       1.6  T
   4    -50.7129519 -0.757754E-06  0.452E-03    9.25       4.3  T
   5    -50.7129519 -0.280788E-07  0.165E-03    9.25      11.9  T
   6    -50.7129520 -0.309002E-08  0.898E-04    9.25      21.8  T
speedup  1.05
cpu  time for SCC    0.01 s
wall time for SCC    0.01 s
speedup  1.01
cpu  time for grad    0.01 s
wall time for grad    0.01 s
 E :    -50.44299447  G :  0.009228    pred/act E change: -0.430D-03 -0.284D-03
Maxdispl :   0.1029   ||displ|| :   0.1523   Lambda : -0.210D-03
Largest |displ|/coords:  0.1029 (   8)  0.0559 (   2)  0.0482 (   9)
................................................................................
.............................. CYCLE   29 ......................................
................................................................................
   1    -50.7136377 -0.507136E+02  0.997E-02    9.24       0.0  T
   2    -50.7136406 -0.296796E-05  0.752E-02    9.24       1.0  T
   3    -50.7136424 -0.176598E-05  0.906E-03    9.25       2.2  T
   4    -50.7136429 -0.537634E-06  0.267E-03    9.25       7.3  T
   5    -50.7136430 -0.107454E-07  0.102E-03    9.25      19.2  T
speedup  0.83
cpu  time for SCC    0.00 s
wall time for SCC    0.00 s
speedup  1.01
cpu  time for grad    0.01 s
wall time for grad    0.01 s
 E :    -50.44313693  G :  0.007681    pred/act E change: -0.256D-03 -0.142D-03
Maxdispl :   0.1373   ||displ|| :   0.2110   Lambda : -0.217D-03
Largest |displ|/coords:  0.1373 (   8)  0.1175 (   2)  0.0422 (   5)
................................................................................
.............................. CYCLE   30 ......................................
................................................................................
   1    -50.7137584 -0.507138E+02  0.116E-01    9.22       0.0  T
   2    -50.7137660 -0.767605E-05  0.870E-02    9.22       1.0  T
   3    -50.7137694 -0.338504E-05  0.151E-02    9.24       1.3  T
   4    -50.7137709 -0.144336E-05  0.369E-03    9.23       5.3  T
   5    -50.7137709 -0.238904E-07  0.148E-03    9.23      13.2  T
   6    -50.7137709 -0.235779E-08  0.738E-04    9.23      26.6  T
speedup  0.88
cpu  time for SCC    0.00 s
wall time for SCC    0.01 s
speedup  1.01
cpu  time for grad    0.01 s
wall time for grad    0.01 s
 E :    -50.44327999  G :  0.006912    pred/act E change: -0.108D-03 -0.143D-03
Maxdispl :   0.1151   ||displ|| :   0.1918   Lambda : -0.190D-03
Largest |displ|/coords:  0.1151 (   2)  0.0977 (   8)  0.0493 (  12)
................................................................................
.............................. CYCLE   31 ......................................
................................................................................
   1    -50.7145520 -0.507146E+02  0.112E-01    9.22       0.0  T
   2    -50.7145623 -0.102914E-04  0.837E-02    9.23       1.0  T
   3    -50.7145664 -0.410377E-05  0.176E-02    9.24       1.1  T
   4    -50.7145682 -0.181386E-05  0.391E-03    9.24       5.0  T
   5    -50.7145683 -0.258104E-07  0.147E-03    9.24      13.3  T
   6    -50.7145683 -0.159934E-08  0.689E-04    9.24      28.5  T
speedup  1.05
cpu  time for SCC    0.01 s
wall time for SCC    0.01 s
speedup  1.00
cpu  time for grad    0.01 s
wall time for grad    0.01 s
 E :    -50.44343785  G :  0.009251    pred/act E change: -0.114D-03 -0.158D-03
Maxdispl :   0.2626   ||displ|| :   0.4577   Lambda : -0.532D-03
Largest |displ|/coords:  0.2626 (   2)  0.1929 (   8)  0.1562 (  12)
................................................................................
.............................. CYCLE   32 ......................................
................................................................................
   1    -50.7171322 -0.507171E+02  0.276E-01    9.20       0.0  T
   2    -50.7172063 -0.740657E-04  0.207E-01    9.22       1.0  T
   3    -50.7172372 -0.308959E-04  0.482E-02    9.17       1.0  T
   4    -50.7172494 -0.121808E-04  0.109E-02    9.19       1.8  T
   5    -50.7172495 -0.182254E-06  0.387E-03    9.19       5.1  T
   6    -50.7172496 -0.886919E-08  0.185E-03    9.19      10.6  T
   7    -50.7172496 -0.667254E-08  0.465E-04    9.19      42.2  T
speedup  1.06
cpu  time for SCC    0.01 s
wall time for SCC    0.01 s
speedup  1.03
cpu  time for grad    0.01 s
wall time for grad    0.01 s
 E :    -50.44380894  G :  0.014643    pred/act E change: -0.983D-04 -0.371D-03
Maxdispl :   0.1444   ||displ|| :   0.3008   Lambda : -0.484D-03
Largest |displ|/coords:  0.1444 (   2)  0.1160 (   3)  0.1136 (  12)
................................................................................
.............................. CYCLE   33 ......................................
................................................................................
   1    -50.7212112 -0.507212E+02  0.165E-01    9.18       0.0  T
   2    -50.7212478 -0.365365E-04  0.124E-01    9.15       1.0  T
   3    -50.7212666 -0.188180E-04  0.345E-02    9.10       1.0  T
   4    -50.7212716 -0.502331E-05  0.882E-03    9.11       2.2  T
   5    -50.7212717 -0.101861E-06  0.277E-03    9.11       7.1  T
   6    -50.7212717 -0.512380E-08  0.135E-03    9.11      14.5  T
speedup  1.05
cpu  time for SCC    0.01 s
wall time for SCC    0.01 s
speedup  1.01
cpu  time for grad    0.01 s
wall time for grad    0.01 s
 E :    -50.44408039  G :  0.013158    pred/act E change: -0.322D-03 -0.271D-03
Maxdispl :   0.0490   ||displ|| :   0.1377   Lambda : -0.444D-03
Largest |displ|/coords:  0.0490 (   8)  0.0450 (   3)  0.0415 (  16)
................................................................................
.............................. CYCLE   34 ......................................
................................................................................
   1    -50.7229391 -0.507229E+02  0.752E-02    9.15       0.0  T
   2    -50.7229444 -0.532409E-05  0.568E-02    9.14       1.0  T
   3    -50.7229468 -0.233975E-05  0.154E-02    9.12       1.3  T
   4    -50.7229475 -0.687887E-06  0.502E-03    9.12       3.9  T
   5    -50.7229475 -0.441090E-07  0.117E-03    9.12      16.7  T
   6    -50.7229475 -0.185162E-08  0.622E-04    9.12      31.6  T
speedup  1.05
cpu  time for SCC    0.01 s
wall time for SCC    0.01 s
speedup  1.01
cpu  time for grad    0.01 s
wall time for grad    0.01 s
 E :    -50.44441524  G :  0.008782    pred/act E change: -0.264D-03 -0.335D-03
Maxdispl :   0.0882   ||displ|| :   0.2120   Lambda : -0.495D-03
Largest |displ|/coords:  0.0882 (   3)  0.0756 (  13)  0.0691 (  16)
................................................................................
.............................. CYCLE   35 ......................................
................................................................................
   1    -50.7228668 -0.507229E+02  0.136E-01    9.12       0.0  T
   2    -50.7228806 -0.137575E-04  0.102E-01    9.10       1.0  T
   3    -50.7228871 -0.656861E-05  0.231E-02    9.06       1.0  T
   4    -50.7228890 -0.187073E-05  0.857E-03    9.07       2.3  T
   5    -50.7228891 -0.120515E-06  0.206E-03    9.07       9.5  T
   6    -50.7228891 -0.539840E-08  0.116E-03    9.07      16.9  T
speedup  1.05
cpu  time for SCC    0.01 s
wall time for SCC    0.01 s
speedup  1.01
cpu  time for grad    0.01 s
wall time for grad    0.01 s
 E :    -50.44468034  G :  0.008815    pred/act E change: -0.226D-03 -0.265D-03
Maxdispl :   0.0765   ||displ|| :   0.1484   Lambda : -0.173D-03
Largest |displ|/coords:  0.0765 (   8)  0.0589 (  16)  0.0537 (   1)
................................................................................
.............................. CYCLE   36 ......................................
................................................................................
   1    -50.7231622 -0.507232E+02  0.109E-01    9.09       0.0  T
   2    -50.7231650 -0.281881E-05  0.825E-02    9.09       1.0  T
   3    -50.7231669 -0.192743E-05  0.952E-03    9.08       2.1  T
   4    -50.7231674 -0.437452E-06  0.374E-03    9.08       5.2  T
   5    -50.7231674 -0.213528E-07  0.106E-03    9.08      18.5  T
   6    -50.7231674 -0.858151E-09  0.578E-04    9.08      33.9  T
speedup  1.05
cpu  time for SCC    0.01 s
wall time for SCC    0.01 s
speedup  1.01
cpu  time for grad    0.01 s
wall time for grad    0.01 s
 E :    -50.44474486  G :  0.010309    pred/act E change: -0.258D-03 -0.645D-04
Maxdispl :   0.0338   ||displ|| :   0.0621   Lambda : -0.122D-03
Largest |displ|/coords:  0.0338 (   6)  0.0295 (   3)  0.0144 (  12)
................................................................................
.............................. CYCLE   37 ......................................
................................................................................
   1    -50.7228719 -0.507229E+02  0.398E-02    9.06       0.0  T
   2    -50.7228728 -0.960307E-06  0.298E-02    9.06       1.0  T
   3    -50.7228734 -0.615830E-06  0.536E-03    9.05       3.7  T
   4    -50.7228736 -0.128983E-06  0.160E-03    9.05      12.2  T
   5    -50.7228736 -0.353862E-08  0.633E-04    9.05      31.0  T
speedup  1.00
cpu  time for SCC    0.00 s
wall time for SCC    0.00 s
speedup  0.99
cpu  time for grad    0.01 s
wall time for grad    0.01 s
 E :    -50.44482746  G :  0.005578    pred/act E change: -0.884D-04 -0.826D-04
Maxdispl :   0.0706   ||displ|| :   0.1365   Lambda : -0.135D-03
Largest |displ|/coords:  0.0706 (   6)  0.0552 (   8)  0.0433 (   9)
................................................................................
.............................. CYCLE   38 ......................................
................................................................................
   1    -50.7239343 -0.507239E+02  0.991E-02    9.03       0.0  T
   2    -50.7239370 -0.262616E-05  0.750E-02    9.03       1.0  T
   3    -50.7239394 -0.238547E-05  0.841E-03    9.01       2.3  T
   4    -50.7239397 -0.338601E-06  0.273E-03    9.01       7.2  T
   5    -50.7239397 -0.947616E-08  0.121E-03    9.01      16.2  T
speedup  1.04
cpu  time for SCC    0.00 s
wall time for SCC    0.00 s
speedup  1.01
cpu  time for grad    0.01 s
wall time for grad    0.01 s
 E :    -50.44488946  G :  0.005527    pred/act E change: -0.612D-04 -0.620D-04
Maxdispl :   0.0356   ||displ|| :   0.0671   Lambda : -0.577D-04
Largest |displ|/coords:  0.0356 (   6)  0.0253 (   1)  0.0173 (   2)
................................................................................
.............................. CYCLE   39 ......................................
................................................................................
   1    -50.7228321 -0.507228E+02  0.472E-02    9.00       0.0  T
   2    -50.7228328 -0.723892E-06  0.355E-02    8.99       1.0  T
   3    -50.7228334 -0.611339E-06  0.467E-03    8.98       4.2  T
   4    -50.7228335 -0.902371E-07  0.148E-03    8.99      13.3  T
   5    -50.7228335 -0.238888E-08  0.587E-04    8.99      33.4  T
speedup  1.04
cpu  time for SCC    0.00 s
wall time for SCC    0.00 s
speedup  1.00
cpu  time for grad    0.01 s
wall time for grad    0.01 s
 E :    -50.44492653  G :  0.003482    pred/act E change: -0.689D-04 -0.371D-04
Maxdispl :   0.0465   ||displ|| :   0.0985   Lambda : -0.465D-04
Largest |displ|/coords:  0.0465 (   6)  0.0426 (   9)  0.0335 (   1)
................................................................................
.............................. CYCLE   40 ......................................
................................................................................
   1    -50.7217922 -0.507218E+02  0.714E-02    8.98       0.0  T
   2    -50.7217934 -0.115377E-05  0.537E-02    8.99       1.0  T
   3    -50.7217943 -0.955990E-06  0.679E-03    8.99       2.9  T
   4    -50.7217945 -0.152180E-06  0.244E-03    8.99       8.0  T
   5    -50.7217945 -0.596147E-08  0.773E-04    8.99      25.4  T
   6    -50.7217945 -0.878174E-09  0.417E-04    8.99      47.0  T
speedup  0.88
cpu  time for SCC    0.00 s
wall time for SCC    0.01 s
speedup  0.98
cpu  time for grad    0.01 s
wall time for grad    0.01 s
 E :    -50.44494913  G :  0.002696    pred/act E change: -0.290D-04 -0.226D-04
Maxdispl :   0.0271   ||displ|| :   0.0662   Lambda : -0.319D-04
Largest |displ|/coords:  0.0271 (   2)  0.0244 (  12)  0.0233 (   6)
................................................................................
.............................. CYCLE   41 ......................................
................................................................................
   1    -50.7225150 -0.507225E+02  0.274E-02    8.98       0.0  T
   2    -50.7225156 -0.593135E-06  0.206E-02    8.98       1.0  T
   3    -50.7225160 -0.397602E-06  0.494E-03    8.97       4.0  T
   4    -50.7225161 -0.790127E-07  0.173E-03    8.97      11.4  T
   5    -50.7225161 -0.312132E-08  0.467E-04    8.97      42.0  T
   6    -50.7225161 -0.285709E-09  0.234E-04    8.97      83.7  T
speedup  0.88
cpu  time for SCC    0.00 s
wall time for SCC    0.01 s
speedup  0.97
cpu  time for grad    0.01 s
wall time for grad    0.01 s
 E :    -50.44496032  G :  0.002870    pred/act E change: -0.235D-04 -0.112D-04
Maxdispl :   0.0153   ||displ|| :   0.0326   Lambda : -0.134D-04
Largest |displ|/coords:  0.0153 (   3)  0.0132 (   2)  0.0117 (   6)
................................................................................
.............................. CYCLE   42 ......................................
................................................................................
   1    -50.7223301 -0.507223E+02  0.247E-02    8.97       0.0  T
   2    -50.7223302 -0.139281E-06  0.186E-02    8.98       1.1  T
   3    -50.7223303 -0.921470E-07  0.215E-03    8.98       9.1  T
   4    -50.7223303 -0.215187E-07  0.752E-04    8.98      26.1  T
   5    -50.7223303 -0.877549E-09  0.216E-04    8.98      90.7  T
speedup  1.04
cpu  time for SCC    0.00 s
wall time for SCC    0.00 s
speedup  1.04
cpu  time for grad    0.01 s
wall time for grad    0.01 s
 E :    -50.44496845  G :  0.001612    pred/act E change: -0.160D-04 -0.814D-05
Maxdispl :   0.0136   ||displ|| :   0.0343   Lambda : -0.767D-05
Largest |displ|/coords:  0.0136 (   6)  0.0132 (   3)  0.0120 (   1)
................................................................................
.............................. CYCLE   43 ......................................
................................................................................
   1    -50.7226044 -0.507226E+02  0.199E-02    8.98       0.0  T
   2    -50.7226045 -0.896344E-07  0.149E-02    8.98       1.3  T
   3    -50.7226046 -0.543918E-07  0.204E-03    8.98       9.6  T
   4    -50.7226046 -0.143640E-07  0.671E-04    8.98      29.2  T
   5    -50.7226046 -0.767187E-09  0.174E-04    8.98     112.9  T
speedup  1.04
cpu  time for SCC    0.00 s
wall time for SCC    0.00 s
speedup  1.04
cpu  time for grad    0.01 s
wall time for grad    0.01 s
 E :    -50.44497333  G :  0.001051    pred/act E change: -0.671D-05 -0.488D-05
Maxdispl :   0.0201   ||displ|| :   0.0431   Lambda : -0.496D-05
Largest |displ|/coords:  0.0201 (   6)  0.0191 (   3)  0.0164 (   1)
................................................................................
.............................. CYCLE   44 ......................................
................................................................................
   1    -50.7226407 -0.507226E+02  0.240E-02    8.98       0.0  T
   2    -50.7226408 -0.110434E-06  0.180E-02    8.97       1.1  T
   3    -50.7226409 -0.708371E-07  0.241E-03    8.97       8.1  T
   4    -50.7226409 -0.179765E-07  0.782E-04    8.97      25.1  T
   5    -50.7226409 -0.756899E-09  0.211E-04    8.97      93.1  T
speedup  1.04
cpu  time for SCC    0.00 s
wall time for SCC    0.00 s
speedup  1.04
cpu  time for grad    0.01 s
wall time for grad    0.01 s
 E :    -50.44497692  G :  0.000922    pred/act E change: -0.384D-05 -0.359D-05
Maxdispl :   0.0212   ||displ|| :   0.0446   Lambda : -0.449D-05
Largest |displ|/coords:  0.0212 (   3)  0.0172 (   6)  0.0167 (   1)
................................................................................
.............................. CYCLE   45 ......................................
................................................................................
   1    -50.7227279 -0.507227E+02  0.226E-02    8.97       0.0  T
   2    -50.7227280 -0.125215E-06  0.169E-02    8.97       1.2  T
   3    -50.7227281 -0.697921E-07  0.258E-03    8.97       7.6  T
   4    -50.7227281 -0.201079E-07  0.835E-04    8.97      23.5  T
   5    -50.7227281 -0.955815E-09  0.202E-04    8.97      97.1  T
speedup  1.04
cpu  time for SCC    0.00 s
wall time for SCC    0.00 s
speedup  1.04
cpu  time for grad    0.01 s
wall time for grad    0.01 s
 E :    -50.44498002  G :  0.000702    pred/act E change: -0.248D-05 -0.310D-05
Maxdispl :   0.0162   ||displ|| :   0.0382   Lambda : -0.314D-05
Largest |displ|/coords:  0.0162 (   3)  0.0144 (   6)  0.0127 (   1)
................................................................................
.............................. CYCLE   46 ......................................
................................................................................
   1    -50.7226983 -0.507227E+02  0.221E-02    8.97       0.0  T
   2    -50.7226984 -0.955763E-07  0.165E-02    8.97       1.2  T
   3    -50.7226985 -0.616789E-07  0.236E-03    8.97       8.3  T
   4    -50.7226985 -0.147071E-07  0.803E-04    8.97      24.4  T
   5    -50.7226985 -0.643517E-09  0.178E-04    8.97     110.1  T
speedup  1.02
cpu  time for SCC    0.00 s
wall time for SCC    0.00 s
speedup  1.04
cpu  time for grad    0.01 s
wall time for grad    0.01 s
 E :    -50.44498231  G :  0.000750    pred/act E change: -0.225D-05 -0.229D-05
Maxdispl :   0.0180   ||displ|| :   0.0415   Lambda : -0.363D-05
Largest |displ|/coords:  0.0180 (   3)  0.0162 (   2)  0.0144 (   7)
................................................................................
.............................. CYCLE   47 ......................................
................................................................................
   1    -50.7227221 -0.507227E+02  0.232E-02    8.97       0.0  T
   2    -50.7227222 -0.121688E-06  0.171E-02    8.97       1.1  T
   3    -50.7227223 -0.699163E-07  0.284E-03    8.97       6.9  T
   4    -50.7227223 -0.169073E-07  0.931E-04    8.97      21.1  T
   5    -50.7227223 -0.922498E-09  0.181E-04    8.97     108.3  T
speedup  1.02
cpu  time for SCC    0.00 s
wall time for SCC    0.00 s
speedup  1.04
cpu  time for grad    0.01 s
wall time for grad    0.01 s
 E :    -50.44498480  G :  0.001060    pred/act E change: -0.157D-05 -0.249D-05
Maxdispl :   0.0225   ||displ|| :   0.0410   Lambda : -0.319D-05
Largest |displ|/coords:  0.0225 (   2)  0.0135 (   3)  0.0132 (  18)
................................................................................
.............................. CYCLE   48 ......................................
................................................................................
   1    -50.7226564 -0.507227E+02  0.249E-02    8.97       0.0  T
   2    -50.7226565 -0.116158E-06  0.184E-02    8.97       1.1  T
   3    -50.7226566 -0.725624E-07  0.284E-03    8.97       6.9  T
   4    -50.7226566 -0.163313E-07  0.895E-04    8.97      21.9  T
   5    -50.7226566 -0.794316E-09  0.204E-04    8.97      96.1  T
speedup  1.02
cpu  time for SCC    0.00 s
wall time for SCC    0.00 s
speedup  1.02
cpu  time for grad    0.01 s
wall time for grad    0.01 s
 E :    -50.44498705  G :  0.001008    pred/act E change: -0.182D-05 -0.224D-05
Maxdispl :   0.0237   ||displ|| :   0.0370   Lambda : -0.303D-05
Largest |displ|/coords:  0.0237 (   2)  0.0116 (  18)  0.0106 (   7)
................................................................................
.............................. CYCLE   49 ......................................
................................................................................
   1    -50.7227020 -0.507227E+02  0.223E-02    8.98       0.0  T
   2    -50.7227020 -0.852132E-07  0.164E-02    8.98       1.2  T
   3    -50.7227021 -0.511795E-07  0.252E-03    8.98       7.8  T
   4    -50.7227021 -0.116341E-07  0.779E-04    8.98      25.2  T
   5    -50.7227021 -0.683798E-09  0.181E-04    8.98     108.3  T
speedup  1.06
cpu  time for SCC    0.00 s
wall time for SCC    0.00 s
speedup  1.04
cpu  time for grad    0.01 s
wall time for grad    0.01 s
 E :    -50.44498917  G :  0.000823    pred/act E change: -0.160D-05 -0.212D-05
Maxdispl :   0.0201   ||displ|| :   0.0301   Lambda : -0.230D-05
Largest |displ|/coords:  0.0201 (   2)  0.0079 (   5)  0.0071 (  18)
................................................................................
.............................. CYCLE   50 ......................................
................................................................................
   1    -50.7227117 -0.507227E+02  0.179E-02    8.98       0.0  T
   2    -50.7227117 -0.552158E-07  0.132E-02    8.98       1.5  T
   3    -50.7227118 -0.329312E-07  0.194E-03    8.98      10.1  T
   4    -50.7227118 -0.846423E-08  0.596E-04    8.98      32.9  T
   5    -50.7227118 -0.422787E-09  0.156E-04    8.98     125.7  T
speedup  1.04
cpu  time for SCC    0.00 s
wall time for SCC    0.00 s
speedup  1.04
cpu  time for grad    0.01 s
wall time for grad    0.01 s
 E :    -50.44499080  G :  0.000510    pred/act E change: -0.151D-05 -0.163D-05
Maxdispl :   0.0161   ||displ|| :   0.0264   Lambda : -0.168D-05
Largest |displ|/coords:  0.0161 (   2)  0.0095 (   5)  0.0067 (   3)
................................................................................
.............................. CYCLE   51 ......................................
................................................................................
   1    -50.7227485 -0.507227E+02  0.149E-02    8.98       0.0  T
   2    -50.7227485 -0.409710E-07  0.111E-02    8.98       1.8  T
   3    -50.7227485 -0.252195E-07  0.155E-03    8.98      12.6  T
   4    -50.7227485 -0.670322E-08  0.455E-04    8.98      43.1  T
   5    -50.7227485 -0.305491E-09  0.135E-04    8.98     145.3  T
speedup  1.04
cpu  time for SCC    0.00 s
wall time for SCC    0.00 s
speedup  1.04
cpu  time for grad    0.01 s
wall time for grad    0.01 s
 E :    -50.44499200  G :  0.000490    pred/act E change: -0.115D-05 -0.120D-05
Maxdispl :   0.0139   ||displ|| :   0.0246   Lambda : -0.133D-05
Largest |displ|/coords:  0.0139 (   2)  0.0105 (   5)  0.0065 (   3)
................................................................................
.............................. CYCLE   52 ......................................
................................................................................
   1    -50.7227534 -0.507228E+02  0.136E-02    8.98       0.0  T
   2    -50.7227535 -0.375586E-07  0.102E-02    8.98       1.9  T
   3    -50.7227535 -0.252929E-07  0.146E-03    8.98      13.4  T
   4    -50.7227535 -0.576272E-08  0.452E-04    8.98      43.4  T
   5    -50.7227535 -0.284942E-09  0.126E-04    8.98     155.7  T
speedup  1.02
cpu  time for SCC    0.00 s
wall time for SCC    0.00 s
speedup  1.04
cpu  time for grad    0.01 s
wall time for grad    0.01 s
 E :    -50.44499298  G :  0.000542    pred/act E change: -0.838D-06 -0.986D-06
Maxdispl :   0.0154   ||displ|| :   0.0272   Lambda : -0.138D-05
Largest |displ|/coords:  0.0154 (   2)  0.0121 (   5)  0.0072 (   1)

generating ANC from model Hessian ...
 Shifting diagonal of input Hessian by   5.025783190066944E-003
 Lowest  eigenvalues of input Hessian
    0.005000   -0.000000   -0.000000   -0.000000    0.000000    0.000000
    0.000000    0.005059    0.005437    0.005614    0.005833    0.006244
    0.006709    0.007220    0.007771    0.007954    0.009273    0.010391
 Highest eigenvalues
    1.383107    1.395573    1.415435    2.577183    3.393722    3.709402
 
cpu  time for ANC gen    0.02 s
wall time for ANC gen    0.02 s
................................................................................
.............................. CYCLE   53 ......................................
................................................................................
   1    -50.7227575 -0.507228E+02  0.157E-02    8.98       0.0  T
   2    -50.7227576 -0.512955E-07  0.117E-02    8.98       1.7  T
   3    -50.7227576 -0.381432E-07  0.177E-03    8.98      11.1  T
   4    -50.7227576 -0.685556E-08  0.627E-04    8.98      31.3  T
   5    -50.7227576 -0.400199E-09  0.140E-04    8.98     139.8  T
speedup  1.02
cpu  time for SCC    0.00 s
wall time for SCC    0.00 s
speedup  0.96
cpu  time for grad    0.01 s
wall time for grad    0.01 s
 E :    -50.44499400  G :  0.000552    pred/act E change:  0.000D+00 -0.101D-05
Maxdispl :   0.0026   ||displ|| :   0.0055   Lambda : -0.717D-06
Largest |displ|/coords:  0.0026 (   9)  0.0020 (  14)  0.0016 (   4)
................................................................................
.............................. CYCLE   54 ......................................
................................................................................
   1    -50.7227663 -0.507228E+02  0.464E-03    8.98       0.0  T
   2    -50.7227664 -0.607299E-08  0.347E-03    8.98       5.7  T
   3    -50.7227664 -0.404173E-08  0.527E-04    8.98      37.2  T
   4    -50.7227664 -0.856332E-09  0.207E-04    8.98      94.9  T
speedup  1.03
cpu  time for SCC    0.00 s
wall time for SCC    0.00 s
speedup  0.96
cpu  time for grad    0.01 s
wall time for grad    0.01 s
 E :    -50.44499458  G :  0.000351    pred/act E change:  0.000D+00 -0.579D-06
Maxdispl :   0.0059   ||displ|| :   0.0135   Lambda : -0.108D-05
Largest |displ|/coords:  0.0059 (   9)  0.0046 (   1)  0.0039 (  14)
................................................................................
.............................. CYCLE   55 ......................................
................................................................................
   1    -50.7227665 -0.507228E+02  0.931E-03    8.98       0.0  T
   2    -50.7227665 -0.229218E-07  0.686E-03    8.98       2.9  T
   3    -50.7227665 -0.152889E-07  0.117E-03    8.98      16.8  T
   4    -50.7227666 -0.260477E-08  0.414E-04    8.98      47.4  T
   5    -50.7227666 -0.150408E-09  0.796E-05    8.98     246.3  T
speedup  1.04
cpu  time for SCC    0.00 s
wall time for SCC    0.00 s
speedup  0.97
cpu  time for grad    0.01 s
wall time for grad    0.01 s
 E :    -50.44499522  G :  0.000276    pred/act E change: -0.358D-06 -0.644D-06
Maxdispl :   0.0054   ||displ|| :   0.0102   Lambda : -0.416D-06
Largest |displ|/coords:  0.0054 (   9)  0.0032 (   1)  0.0029 (   3)
................................................................................
.............................. CYCLE   56 ......................................
................................................................................
   1    -50.7227606 -0.507228E+02  0.664E-03    8.98       0.0  T
   2    -50.7227606 -0.761110E-08  0.493E-03    8.98       4.0  T
   3    -50.7227606 -0.729710E-08  0.758E-04    8.98      25.9  T
   4    -50.7227606 -0.597751E-09  0.270E-04    8.98      72.6  T
speedup  1.00
cpu  time for SCC    0.00 s
wall time for SCC    0.00 s
speedup  1.03
cpu  time for grad    0.01 s
wall time for grad    0.01 s
 E :    -50.44499552  G :  0.000285    pred/act E change: -0.538D-06 -0.303D-06
Maxdispl :   0.0068   ||displ|| :   0.0165   Lambda : -0.580D-06
Largest |displ|/coords:  0.0068 (   9)  0.0059 (   1)  0.0056 (   3)
................................................................................
.............................. CYCLE   57 ......................................
................................................................................
   1    -50.7227539 -0.507228E+02  0.965E-03    8.98       0.0  T
   2    -50.7227539 -0.159696E-07  0.712E-03    8.98       2.8  T
   3    -50.7227539 -0.167182E-07  0.118E-03    8.98      16.6  T
   4    -50.7227539 -0.952703E-09  0.281E-04    8.98      69.9  T
   5    -50.7227539 -0.119698E-09  0.673E-05    8.98     291.5  T
speedup  1.04
cpu  time for SCC    0.00 s
wall time for SCC    0.00 s
speedup  1.04
cpu  time for grad    0.01 s
wall time for grad    0.01 s
 E :    -50.44499595  G :  0.000296    pred/act E change: -0.208D-06 -0.430D-06
Maxdispl :   0.0073   ||displ|| :   0.0189   Lambda : -0.558D-06
Largest |displ|/coords:  0.0073 (   9)  0.0067 (   3)  0.0067 (   1)
................................................................................
.............................. CYCLE   58 ......................................
................................................................................
   1    -50.7227563 -0.507228E+02  0.106E-02    8.98       0.0  T
   2    -50.7227563 -0.189662E-07  0.781E-03    8.98       2.5  T
   3    -50.7227563 -0.206392E-07  0.125E-03    8.98      15.7  T
   4    -50.7227563 -0.109191E-08  0.223E-04    8.98      88.0  T
   5    -50.7227563 -0.943814E-10  0.732E-05    8.98     268.1  T
speedup  1.04
cpu  time for SCC    0.00 s
wall time for SCC    0.00 s
speedup  1.04
cpu  time for grad    0.01 s
wall time for grad    0.01 s
 E :    -50.44499631  G :  0.000317    pred/act E change: -0.290D-06 -0.355D-06
Maxdispl :   0.0041   ||displ|| :   0.0095   Lambda : -0.268D-06
Largest |displ|/coords:  0.0041 (   3)  0.0037 (   2)  0.0035 (   1)
................................................................................
.............................. CYCLE   59 ......................................
................................................................................
   1    -50.7227650 -0.507228E+02  0.509E-03    8.98       0.0  T
   2    -50.7227650 -0.461623E-08  0.379E-03    8.98       5.2  T
   3    -50.7227650 -0.496572E-08  0.535E-04    8.98      36.7  T
   4    -50.7227650 -0.297923E-09  0.111E-04    8.98     177.0  T
speedup  1.03
cpu  time for SCC    0.00 s
wall time for SCC    0.00 s
speedup  1.04
cpu  time for grad    0.01 s
wall time for grad    0.01 s
 E :    -50.44499649  G :  0.000257    pred/act E change: -0.279D-06 -0.180D-06
Maxdispl :   0.0031   ||displ|| :   0.0082   Lambda : -0.240D-06
Largest |displ|/coords:  0.0031 (   3)  0.0028 (   5)  0.0027 (   2)
................................................................................
.............................. CYCLE   60 ......................................
................................................................................
   1    -50.7227767 -0.507228E+02  0.457E-03    8.98       0.0  T
   2    -50.7227767 -0.375728E-08  0.343E-03    8.98       5.7  T
   3    -50.7227767 -0.405794E-08  0.410E-04    8.98      47.8  T
   4    -50.7227767 -0.283066E-09  0.145E-04    8.98     134.9  T
speedup  1.03
cpu  time for SCC    0.00 s
wall time for SCC    0.00 s
speedup  1.04
cpu  time for grad    0.01 s
wall time for grad    0.01 s
 E :    -50.44499664  G :  0.000174    pred/act E change: -0.134D-06 -0.154D-06
Maxdispl :   0.0022   ||displ|| :   0.0051   Lambda : -0.159D-06
Largest |displ|/coords:  0.0022 (   5)  0.0021 (   2)  0.0015 (   3)
................................................................................
.............................. CYCLE   61 ......................................
................................................................................
   1    -50.7227784 -0.507228E+02  0.318E-03    8.98       0.0  T
   2    -50.7227784 -0.180546E-08  0.239E-03    8.98       8.2  T
   3    -50.7227784 -0.170682E-08  0.249E-04    8.98      78.8  T
   4    -50.7227784 -0.190461E-09  0.117E-04    8.98     166.9  T
speedup  1.03
cpu  time for SCC    0.00 s
wall time for SCC    0.00 s
speedup  1.04
cpu  time for grad    0.01 s
wall time for grad    0.01 s
 E :    -50.44499676  G :  0.000147    pred/act E change: -0.120D-06 -0.115D-06
Maxdispl :   0.0020   ||displ|| :   0.0057   Lambda : -0.166D-06
Largest |displ|/coords:  0.0020 (  12)  0.0020 (   2)  0.0019 (  37)
................................................................................
.............................. CYCLE   62 ......................................
................................................................................
   1    -50.7227708 -0.507228E+02  0.377E-03    8.98       0.0  T
   2    -50.7227708 -0.294092E-08  0.283E-03    8.98       6.9  T
   3    -50.7227708 -0.238070E-08  0.345E-04    8.98      56.9  T
   4    -50.7227708 -0.381696E-09  0.133E-04    8.98     147.4  T
speedup  1.03
cpu  time for SCC    0.00 s
wall time for SCC    0.00 s
speedup  1.04
cpu  time for grad    0.01 s
wall time for grad    0.01 s
 E :    -50.44499688  G :  0.000195    pred/act E change: -0.794D-07 -0.117D-06
Maxdispl :   0.0023   ||displ|| :   0.0056   Lambda : -0.155D-06
Largest |displ|/coords:  0.0023 (  37)  0.0021 (   2)  0.0020 (   4)
................................................................................
.............................. CYCLE   63 ......................................
................................................................................
   1    -50.7227625 -0.507228E+02  0.420E-03    8.98       0.0  T
   2    -50.7227625 -0.394454E-08  0.315E-03    8.98       6.2  T
   3    -50.7227626 -0.251752E-08  0.479E-04    8.98      40.9  T
   4    -50.7227626 -0.595975E-09  0.160E-04    8.98     122.3  T
speedup  1.03
cpu  time for SCC    0.00 s
wall time for SCC    0.00 s
speedup  1.04
cpu  time for grad    0.01 s
wall time for grad    0.01 s
 E :    -50.44499699  G :  0.000213    pred/act E change: -0.829D-07 -0.114D-06
Maxdispl :   0.0034   ||displ|| :   0.0072   Lambda : -0.192D-06
Largest |displ|/coords:  0.0034 (  37)  0.0028 (   2)  0.0027 (   4)
................................................................................
.............................. CYCLE   64 ......................................
................................................................................
   1    -50.7227572 -0.507228E+02  0.546E-03    8.98       0.0  T
   2    -50.7227572 -0.743948E-08  0.407E-03    8.98       4.8  T
   3    -50.7227572 -0.357139E-08  0.744E-04    8.98      26.4  T
   4    -50.7227572 -0.119184E-08  0.239E-04    8.98      82.2  T
speedup  1.03
cpu  time for SCC    0.00 s
wall time for SCC    0.00 s
speedup  1.04
cpu  time for grad    0.01 s
wall time for grad    0.01 s
 E :    -50.44499713  G :  0.000213    pred/act E change: -0.774D-07 -0.141D-06
Maxdispl :   0.0041   ||displ|| :   0.0084   Lambda : -0.216D-06
Largest |displ|/coords:  0.0041 (  37)  0.0026 (   4)  0.0023 (   2)
................................................................................
.............................. CYCLE   65 ......................................
................................................................................
   1    -50.7227621 -0.507228E+02  0.643E-03    8.98       0.0  T
   2    -50.7227621 -0.114232E-07  0.478E-03    8.98       4.1  T
   3    -50.7227621 -0.419151E-08  0.960E-04    8.98      20.4  T
   4    -50.7227621 -0.183572E-08  0.302E-04    8.98      65.0  T
speedup  1.03
cpu  time for SCC    0.00 s
wall time for SCC    0.00 s
speedup  1.04
cpu  time for grad    0.01 s
wall time for grad    0.01 s
 E :    -50.44499729  G :  0.000201    pred/act E change: -0.962D-07 -0.160D-06
Maxdispl :   0.0044   ||displ|| :   0.0094   Lambda : -0.226D-06
Largest |displ|/coords:  0.0044 (  37)  0.0028 (   5)  0.0026 (   2)
................................................................................
.............................. CYCLE   66 ......................................
................................................................................
   1    -50.7227754 -0.507228E+02  0.692E-03    8.98       0.0  T
   2    -50.7227755 -0.145300E-07  0.512E-03    8.98       3.8  T
   3    -50.7227755 -0.451681E-08  0.110E-03    8.98      17.9  T
   4    -50.7227755 -0.224743E-08  0.338E-04    8.98      58.0  T
   5    -50.7227755 -0.716938E-10  0.370E-05    8.98     529.4  T
speedup  0.85
cpu  time for SCC    0.00 s
wall time for SCC    0.00 s
speedup  0.98
cpu  time for grad    0.01 s
wall time for grad    0.01 s
 E :    -50.44499746  G :  0.000199    pred/act E change: -0.108D-06 -0.169D-06
Maxdispl :   0.0040   ||displ|| :   0.0091   Lambda : -0.198D-06
Largest |displ|/coords:  0.0040 (  37)  0.0031 (   6)  0.0028 (   5)
................................................................................
.............................. CYCLE   67 ......................................
................................................................................
   1    -50.7227899 -0.507228E+02  0.661E-03    8.98       0.0  T
   2    -50.7227899 -0.125229E-07  0.488E-03    8.98       4.0  T
   3    -50.7227899 -0.395811E-08  0.102E-03    8.98      19.3  T
   4    -50.7227899 -0.196231E-08  0.301E-04    8.98      65.2  T
   5    -50.7227899 -0.625278E-10  0.372E-05    8.98     527.6  T
speedup  1.04
cpu  time for SCC    0.00 s
wall time for SCC    0.00 s
speedup  1.04
cpu  time for grad    0.01 s
wall time for grad    0.01 s
 E :    -50.44499759  G :  0.000180    pred/act E change: -0.113D-06 -0.134D-06
Maxdispl :   0.0030   ||displ|| :   0.0061   Lambda : -0.119D-06
Largest |displ|/coords:  0.0030 (   5)  0.0022 (   6)  0.0020 (  37)
................................................................................
.............................. CYCLE   68 ......................................
................................................................................
   1    -50.7227950 -0.507228E+02  0.436E-03    8.98       0.0  T
   2    -50.7227950 -0.423910E-08  0.323E-03    8.98       6.1  T
   3    -50.7227950 -0.170576E-08  0.587E-04    8.98      33.4  T
   4    -50.7227950 -0.723162E-09  0.161E-04    8.98     121.9  T
speedup  1.05
cpu  time for SCC    0.00 s
wall time for SCC    0.00 s
speedup  1.05
cpu  time for grad    0.01 s
wall time for grad    0.01 s
 E :    -50.44499768  G :  0.000131    pred/act E change: -0.989D-07 -0.850D-07
Maxdispl :   0.0018   ||displ|| :   0.0044   Lambda : -0.713D-07
Largest |displ|/coords:  0.0018 (   5)  0.0018 (   6)  0.0017 (   4)

   *** GEOMETRY OPTIMIZATION CONVERGED AFTER 68 ITERATIONS ***

------------------------------------------------------------------------
 total energy gain (kcal):     -0.0023
------------------------------------------------------------------------
================
 final structure:
================
$coord
       -0.72816398502627        3.14991529507969        2.95518792252900      S 
       -1.00506148979340        3.48610662225427        0.19502187604935      O 
       -2.79159758595969        1.67469485178954        3.96392521361105      O 
        1.76100358462230        2.27538496130815        3.61877849820422      O 
       -1.00518831990013        5.90707196310150        4.09889116966910      O 
       -2.78169930803335        6.19462374181022        4.06068460934801      H 
       -0.94859346240963       -3.97733439173484       -0.42241759188365      O 
       -2.05013086045891       -5.41339846598101       -0.36513553978440      H 
       -0.33917332807002        0.08491225773232       -6.23002361424252      O 
       -0.80742519707615       -0.98542494098863       -7.61315868679827      H 
        4.00259605478180        2.07025025975869       -0.88778117929250      O 
        2.90229677879834        3.27163652903728       -1.69324499271310      H 
        3.46307363981327        2.08086433047820        0.87756734207393      H 
       -2.95940549328513        0.04853209406401       -2.22138050341386      O 
       -2.24848528625894       -1.56737708616504       -1.43199692453396      H 
       -2.21581859389190        1.59762379613914       -1.10980726783315      H 
       -2.06123629786697        0.20194023593760       -3.95190724850601      H 
        3.03956839781955       -2.14031337405003       -3.48952557358003      O 
        1.15414141371487       -0.73330226610850       -5.38435703442053      H 
        3.69661478546397       -0.69672892233464       -2.51518709169052      H 
        2.00563350681051       -3.09804146346177       -2.32717463255782      H 
        0.03462040996312       -2.73929917154394        4.15631229604838      N 
       -0.48320331852459       -3.56447152282651        1.43475310186548      H 
       -1.28732992501528       -1.35099519191403        4.40822129727489      H 
       -0.06468077899339       -3.95273631858470        5.63216957682063      H 
        1.71764465877147       -1.82413382279625        4.24158493995382      H 
$end
 
 Bond Distances (Angstroems)
 ---------------------------
S1-O2=1.4787         S1-O3=1.4445         S1-O4=1.4396         S1-O5=1.5864         O2-S1=1.4787         O3-S1=1.4445         
O4-S1=1.4396         O5-S1=1.5864         O5-H6=0.9525         H6-O5=0.9525         O7-H8=0.9582         O7-H23=1.0364        
H8-O7=0.9582         O9-H10=0.9581        O9-H19=1.0061        H10-O9=0.9581        O11-H12=0.9617       O11-H13=0.9769       
H12-O11=0.9617       H13-O11=0.9769       O14-H15=1.0233       O14-H16=1.0830       O14-H17=1.0349       H15-O14=1.0233       
H16-O14=1.0830       H17-O14=1.0349       O18-H20=0.9850       O18-H21=0.9667       H19-O9=1.0061        H20-O18=0.9850       
H21-O18=0.9667       N22-H24=1.0232       N22-H25=1.0124       N22-H26=1.0148       H23-O7=1.0364        H24-N22=1.0232       
H25-N22=1.0124       H26-N22=1.0148       
 N  H  Rav=1.0168 sigma=0.0046  Rmin=1.0124  Rmax=1.0232     3
 O  H  Rav=0.9952 sigma=0.0396  Rmin=0.9525  Rmax=1.0830    12
 S  O  Rav=1.4873 sigma=0.0591  Rmin=1.4396  Rmax=1.5864     4
 
 selected bond angles (degree)
 --------------------
O3-S1-O2=110.80                O4-S1-O2=111.73                O4-S1-O3=115.33                O5-S1-O2=104.89                
O5-S1-O3=106.63                O5-S1-O4=106.69                H6-O5-S1=103.30                H23-O7-H8=106.36               
H19-O9-H10=106.77              
 
 selected dihedral angles (degree)
 ---------------------------------
H6-O5-S1-O2= 77.90            H6-O5-S1-O3=320.32            H6-O5-S1-O4=196.57            
 
 CMA Distance (Angstroems)
 ---------------------------
R(CMA):  3.3845

========================================================================
 FINAL SINGLEPOINT CALCULATION ON OPTIMIZED GEOMETRY
========================================================================

 Ncao       : 65
 Nao        : 64
 Nshell     : 38
 Nel        : 80
 T(el)      :   300.0
 intcut     :    25.0
 scfconv/Eh :  0.100E-05
   qconv/e  :  0.100E-03
 intneglect :  0.100E-07
 broydamp   :      0.250
 iter      E             dE          RMSdq      gap      omega  full diag
   1    -50.7227950 -0.507228E+02  0.553E-05    8.98       0.0  T
   2    -50.7227950 -0.208900E-11  0.353E-05    8.98     554.8  T
   3    -50.7227950 -0.100187E-11  0.674E-06    8.98    2911.7  T
speedup  1.00
cpu  time for SCC    0.00 s
wall time for SCC    0.00 s

   *** convergence criteria satisfied after 3 iterations ***

          eigenvalues
 #    :          28         29         30         31         32         33         34         35
 occ. :        2.000      2.000      2.000      2.000      2.000      2.000      2.000      2.000
 eps  :       -13.470    -13.185    -12.758    -12.580    -12.408    -12.367    -12.175    -11.991
 #    :          36         37         38         39         40         41         42         43
 occ. :        2.000      2.000      2.000      2.000      2.000      0.000      0.000      0.000
 eps  :       -11.915    -11.851    -11.680    -11.584    -11.305     -2.326     -0.876     -0.459
 #    :          44         45         46         47         48         49         50         51
 occ. :        0.000      0.000      0.000      0.000      0.000      0.000      0.000      0.000
 eps  :         0.703      0.970      1.396      2.340      2.570      3.464      4.196      5.314


   #   Z            q   n(s)   n(p)   n(d)      C6AA      α(0)
   1  16 S      1.659  1.583  1.800  0.958    89.715    15.942
   2   8 O     -0.736  1.770  4.967  0.000    29.601     7.299
   3   8 O     -0.732  1.768  4.964  0.000    29.608     7.295
   4   8 O     -0.706  1.762  4.944  0.000    28.875     7.205
   5   8 O     -0.583  1.750  4.833  0.000    24.751     6.716
   6   1 H      0.344  0.656  0.000  0.000     0.595     1.208
   7   8 O     -0.634  1.753  4.881  0.000    26.021     6.884
   8   1 H      0.287  0.713  0.000  0.000     0.760     1.370
   9   8 O     -0.612  1.753  4.858  0.000    25.462     6.811
  10   1 H      0.289  0.711  0.000  0.000     0.753     1.363
  11   8 O     -0.613  1.742  4.871  0.000    25.498     6.815
  12   1 H      0.297  0.703  0.000  0.000     0.729     1.341
  13   1 H      0.317  0.683  0.000  0.000     0.672     1.288
  14   8 O     -0.519  1.733  4.786  0.000    23.233     6.510
  15   1 H      0.377  0.623  0.000  0.000     0.530     1.144
  16   1 H      0.394  0.606  0.000  0.000     0.488     1.092
  17   1 H      0.387  0.613  0.000  0.000     0.509     1.121
  18   8 O     -0.626  1.760  4.867  0.000    25.827     6.859
  19   1 H      0.349  0.651  0.000  0.000     0.591     1.208
  20   1 H      0.334  0.666  0.000  0.000     0.629     1.246
  21   1 H      0.309  0.691  0.000  0.000     0.694     1.308
  22   7 N     -0.459  1.364  4.095  0.000    32.050     8.408
  23   1 H      0.327  0.673  0.000  0.000     0.637     1.249
  24   1 H      0.201  0.799  0.000  0.000     1.100     1.643
  25   1 H      0.165  0.835  0.000  0.000     1.306     1.790
  26   1 H      0.184  0.816  0.000  0.000     1.190     1.709

 Mol. C6AA /au·bohr⁶  :       5464.255388
 Mol. C8AA /au·bohr⁸  :     118172.491393
 Mol. α(0) /au        :        106.823249

 
 Wiberg/Mayer (AO) data. WBOs > 0.1 written file <wbo>
 largest (>0.05) Wiberg bond orders for each atom
           total WBO             WBO to atom ...
     1  S   4.879    O    4 1.379    O    3 1.359    O    2 1.207    O    5 0.898
     2  O   1.772    S    1 1.207    H   16 0.214    O    3 0.108    O    4 0.106    O    5 0.065    O   14 0.058
     3  O   1.724    S    1 1.359    O    4 0.115    O    2 0.108    O    5 0.079
     4  O   1.762    S    1 1.379    O    3 0.115    O    2 0.106    O    5 0.065    H   13 0.052
     5  O   1.979    S    1 0.898    H    6 0.865    O    3 0.079    O    4 0.065    O    2 0.065
     6  H   0.882    O    5 0.865
     7  O   1.918    H    8 0.910    H   23 0.714    H   15 0.133    N   22 0.071
     8  H   0.917    O    7 0.910
     9  O   1.932    H   10 0.911    H   19 0.769    H   17 0.149    O   14 0.054
    10  H   0.916    O    9 0.911
    11  O   1.870    H   12 0.903    H   13 0.842    H   20 0.065
    12  H   0.912    O   11 0.903
    13  H   0.900    O   11 0.842    O    4 0.052
    14  O   2.229    H   15 0.722    H   17 0.699    H   16 0.621    O    2 0.058    O    9 0.054
    15  H   0.858    O   14 0.722    O    7 0.133
    16  H   0.845    O   14 0.621    O    2 0.214
    17  H   0.850    O   14 0.699    O    9 0.149
    18  O   1.904    H   21 0.878    H   20 0.823    H   19 0.108
    19  H   0.878    O    9 0.769    O   18 0.108
    20  H   0.889    O   18 0.823    O   11 0.065
    21  H   0.904    O   18 0.878
    22  N   3.121    H   25 0.967    H   26 0.955    H   24 0.917    H   23 0.177    O    7 0.071
    23  H   0.893    O    7 0.714    N   22 0.177
    24  H   0.960    N   22 0.917
    25  H   0.973    N   22 0.967
    26  H   0.966    N   22 0.955
 MOs/occ written to file <molden.input>
 
molecular dipole:
                 x           y           z       tot (Debye)
 q only:       -1.300      -1.676      -1.053
   full:       -1.526      -1.400      -0.252       5.303
molecular quadrupole (traceless):
                xx          xy          yy          xz          yz          zz
 q only:       -6.710      -1.133       5.256       3.790      -3.714       1.453
  q+dip:      -11.774      -1.133       7.995       4.106      -1.839       3.779
   full:      -12.020      -1.214       8.269       4.112      -1.735       3.751

SCC energy    :     -50.7227950
rep           :       0.2774589
ES            :       0.2490542
AES           :      -0.0637310
AXC           :      -0.0071815
disp          :      -0.0186794
XB            :       0.0000000
fix           :       0.0000000
total E       :     -50.4449977
atomizationE  :       4.9753018     3122.05
(atE without considering molecular charge,
 total energy contains solvation terms)
H-L gap (eV)  :          8.9791
optimized geometry written to: xtbopt.xyz


------------------------------------------------------------------------
 * finished run on 2019/09/16 at 12:07:56.718     
------------------------------------------------------------------------
 total:
 * wall-time:     0 d,  0 h,  0 min,  3.003 sec
 *  cpu-time:     0 d,  0 h,  0 min,  2.984 sec
 * ratio c/w:     0.993 speedup
 SCF:
 * wall-time:     0 d,  0 h,  0 min,  0.519 sec
 *  cpu-time:     0 d,  0 h,  0 min,  0.515 sec
 * ratio c/w:     0.991 speedup
 ANC optimizer:
 * wall-time:     0 d,  0 h,  0 min,  2.427 sec
 *  cpu-time:     0 d,  0 h,  0 min,  2.417 sec
 * ratio c/w:     0.996 speedup

