      -----------------------------------------------------------      
     |                   =====================                   |     
     |                           x T B                           |     
     |                   =====================                   |     
     |                         S. Grimme                         |     
     |          Mulliken Center for Theoretical Chemistry        |     
     |                    University of Bonn                     |     
     |                 Version 6.0.1 (SAW181210)                 |     
      -----------------------------------------------------------      

   This program is distributed in the hope that it will be useful,
   but WITHOUT ANY WARRANTY; without even the implied warranty of
   MERCHANTABILITY or FITNESS FOR A PARTICULAR PURPOSE.
   
   FOR NON-COMMERCIAL, ACADEMIA USE ONLY.
   
   Cite this work as:
   S. Grimme, C. Bannwarth, P. Shushkov, J. Comput. Theory Chem., 2017,
   13, 1989-2009.
   C. Bannwarth, S. Ehlert and S. Grimme., ChemRxiv, 2018, preprint.
   http://doi.org/10.26434/chemrxiv.7246238.v1
   
   for sTDA-xTB:
   S. Grimme and C. Bannwarth, J. Chem. Phys., 2016, 145, 054103.
   
   in the mass-spec context:
   V. Asgeirsson, C. Bauer and S. Grimme, Chem. Sci., 2017, 8, 4879.
   
   if GBSA is used:
   P. Shushkov, F. März and S. Grimme, unpublished.
   
   for ANC optimizer:
   S. Grimme, unpublished.
   Rational Function algorithm used in ANCopt:
   F. Eckert, P. Pulay, H.-J. Werner, J. Comput. Chem., 1997, 18, 1473.
   
   with help from (in alphabetical order)
   C. Bannwarth, F. Bohle, G. Brandenburg, E. Caldeweyher, M. Checinski,
   S. Dohm, S. Ehlert, S. Ehrlich, F. März, H. Neugebauer, J. Pisarek,
   P. Pracht, P. Shushkov, and S. Spicher.
   
 * started run on 2019/09/16 at 12:16:11.194     
========================================================================
 # omp threads = 1
========================================================================
number of atoms            : 26
number of electrons        : 80
charge                     : 0
spin                       : .0
first test random number   : .0399

########################################################################
# WARNING! Please study the warnings concerning your input carefully
#  - XTBPATH is not set, using XTBHOME instead
#  - the use of '-opt' is discouraged, please use '--opt' next time
#  - the use of '-chrg' is discouraged, please use '--chrg' next time
#  - the use of '-uhf' is discouraged, please use '--uhf' next time
########################################################################

           ------------------------------------------------- 
          |                 G F N 2 - x T B                 |
          | Geometry, Frequencies, Noncovalent interactions |
          |            JCTC 2018 parametrisation            |
           ------------------------------------------------- 
      method parameters     
 k(s)        :  1.8500
 k(p)        :  2.2300
 k(d)        :  2.2300
 k(f)        :  2.0000
 kEN (H0ij)  : -2.0000
 D4 a1       :  0.5200
 D4 a2       :  5.0000
 D4 s6       :  1.0000
 D4 s8       :  2.7000
 D4 s9       :  5.0000
 alphaj      :  2.0000


            Z     q(EN)     CN     RAES       Cart. coordinates
     1  S   6.0    0.65    4.25    4.15    -2.77492     4.02408     0.84570
     2  O   6.0   -0.32    1.22    1.80    -2.89970     2.94425    -1.75170
     3  O   6.0   -0.31    1.21    1.80    -3.26284     1.99114     2.73175
     4  O   6.0   -0.31    1.24    1.80    -0.21807     5.11829     1.28541
     5  O   6.0   -0.25    2.08    1.84    -4.69245     6.01502     1.11363
     6  H   1.0    0.15    1.21    1.47    -6.34019     5.31084     0.83048
     7  O   6.0   -0.36    1.51    1.80    -2.37229    -4.55050    -1.85996
     8  H   1.0    0.18    0.94    1.42    -3.16393    -6.10047    -2.53424
     9  O   6.0   -0.39    1.71    1.81     3.61514    -0.27655    -2.30887
    10  H   1.0    0.17    0.95    1.42     4.84015    -0.81213    -3.61128
    11  O   6.0   -0.30    2.03    1.83     3.64885    -2.21376     1.93760
    12  H   1.0    0.14    0.97    1.43     4.79663    -3.62672     1.91001
    13  H   1.0    0.18    1.14    1.45     3.58255    -1.61373     0.21999
    14  O   6.0   -0.22    2.90    2.55     4.16770     3.12153     0.63087
    15  H   1.0    0.12    0.96    1.43     4.61696     2.28971     2.24211
    16  H   1.0    0.16    1.21    1.47     4.03775     1.89924    -0.77595
    17  H   1.0    0.16    1.08    1.44     2.62903     4.16966     0.79028
    18  O   6.0   -0.23    2.94    2.63    -0.64215    -0.89822    -3.87666
    19  H   1.0    0.17    1.22    1.47    -1.37478    -2.49194    -3.23389
    20  H   1.0    0.16    1.05    1.44    -1.66074     0.58892    -3.38587
    21  H   1.0    0.16    1.19    1.46     1.15204    -0.70745    -3.39088
    22  N   5.0   -0.15    3.96    2.75    -1.53695    -2.83624     2.43829
    23  H   1.0    0.09    0.99    1.43    -2.15169    -4.01829     3.85579
    24  H   1.0    0.10    1.04    1.43     0.39549    -2.64153     2.54879
    25  H   1.0    0.13    1.19    1.46    -2.01479    -3.59224     0.71070
    26  H   1.0    0.12    1.07    1.44    -2.37681    -1.09290     2.63790

  Z AO/shell   Hii/eV     exponent
  1     Wed Apr 25 08:07:45 CEST 2018   EN: 2.200 GM2: 0.406  GM3: 0.0800  RAES: 1.40
     1s    -10.707211    1.230000
  7     Wed Apr 25 08:07:45 CEST 2018   EN: 3.040 GM2: 0.461  GM3:-0.0640  RAES: 1.90
     2s    -16.686243    2.339881
     2p    -12.523956    2.014332
  8     Wed Apr 25 08:07:45 CEST 2018   EN: 3.440 GM2: 0.452  GM3:-0.0517  RAES: 1.80
     2s    -20.229985    2.439742
     2p    -15.503117    2.137023
 16     Tue Apr 24 11:44:34 CEST 2018   EN: 2.580 GM2: 0.340  GM3:-0.0502  RAES: 3.10
     3s    -20.029654    1.981333
     3p    -11.377694    2.025643
     3d     -0.420282    1.702555
 no old-style atom pair restraining (fixing) potential

molecular fragmentation (1/2 indicates fragments):
11111122222222222222222222
# atoms in fragment 1/2:     6    20
 fragment masses (1/2) :       97.07      108.11
CMA distance (Bohr)    :   6.748
constraining FC (au)   :  0.0500
           ------------------------------------------------- 
          |        Self-Consistent Charge Iterations        |
           ------------------------------------------------- 

 Ncao       : 65
 Nao        : 64
 Nshell     : 38
 Nel        : 80
 T(el)      :   300.0
 intcut     :    25.0
 scfconv/Eh :  0.100E-05
   qconv/e  :  0.100E-03
 intneglect :  0.100E-07
 broydamp   :      0.250
 iter      E             dE          RMSdq      gap      omega  full diag
   1    -50.5309268 -0.505309E+02  0.708E+00   10.31       0.0  T
   2    -50.5827167 -0.517898E-01  0.511E+00    9.22       1.0  T
   3    -50.6244115 -0.416948E-01  0.134E+00    5.75       1.0  T
   4    -50.6294452 -0.503377E-02  0.598E-01    6.18       1.0  T
   5    -50.6301774 -0.732135E-03  0.305E-01    6.14       1.0  T
   6    -50.6305957 -0.418365E-03  0.136E-01    6.24       1.0  T
   7    -50.6307001 -0.104401E-03  0.474E-02    6.27       1.0  T
   8    -50.6307098 -0.967719E-05  0.305E-02    6.26       1.0  T
   9    -50.6307152 -0.534227E-05  0.120E-02    6.27       1.6  T
  10    -50.6307161 -0.911157E-06  0.231E-03    6.28       8.5  T
  11    -50.6307161 -0.168988E-07  0.127E-03    6.28      15.4  T
  12    -50.6307161 -0.682539E-08  0.375E-04    6.28      52.4  T
  13    -50.6307161 -0.653273E-09  0.126E-04    6.28     156.1  T
speedup  1.01
cpu  time for SCC    0.02 s
wall time for SCC    0.02 s

   *** convergence criteria satisfied after 13 iterations ***

          eigenvalues
 #    :          28         29         30         31         32         33         34         35
 occ. :        2.000      2.000      2.000      2.000      2.000      2.000      2.000      2.000
 eps  :       -12.821    -12.074    -11.983    -11.618    -11.602    -11.219    -11.124    -11.056
 #    :          36         37         38         39         40         41         42         43
 occ. :        2.000      2.000      2.000      2.000      2.000      0.000      0.000      0.000
 eps  :       -10.843    -10.704    -10.385     -8.729     -8.324     -2.046     -0.543     -0.116
 #    :          44         45         46         47         48         49         50         51
 occ. :        0.000      0.000      0.000      0.000      0.000      0.000      0.000      0.000
 eps  :         0.233      0.993      1.363      2.370      2.950      3.804      3.843      5.315


   #   Z            q   n(s)   n(p)   n(d)      C6AA      α(0)
   1  16 S      1.596  1.583  1.840  0.981    91.170    16.070
   2   8 O     -0.751  1.770  4.981  0.000    30.145     7.361
   3   8 O     -0.753  1.771  4.982  0.000    30.203     7.368
   4   8 O     -0.736  1.761  4.976  0.000    29.713     7.308
   5   8 O     -0.542  1.719  4.824  0.000    23.822     6.589
   6   1 H      0.361  0.639  0.000  0.000     0.556     1.167
   7   8 O     -0.892  1.816  5.075  0.000    34.432     7.870
   8   1 H      0.175  0.825  0.000  0.000     1.257     1.762
   9   8 O     -0.848  1.829  5.018  0.000    32.987     7.703
  10   1 H      0.217  0.783  0.000  0.000     1.036     1.599
  11   8 O     -0.654  1.751  4.903  0.000    26.524     6.951
  12   1 H      0.271  0.729  0.000  0.000     0.815     1.418
  13   1 H      0.344  0.656  0.000  0.000     0.599     1.215
  14   8 O     -0.429  1.654  4.775  0.000    21.364     6.243
  15   1 H      0.378  0.622  0.000  0.000     0.528     1.141
  16   1 H      0.415  0.585  0.000  0.000     0.452     1.053
  17   1 H      0.411  0.589  0.000  0.000     0.465     1.071
  18   8 O     -0.491  1.673  4.818  0.000    22.638     6.426
  19   1 H      0.396  0.604  0.000  0.000     0.484     1.088
  20   1 H      0.380  0.620  0.000  0.000     0.523     1.136
  21   1 H      0.385  0.615  0.000  0.000     0.507     1.115
  22   7 N     -0.324  1.268  4.056  0.000    28.323     7.904
  23   1 H      0.215  0.785  0.000  0.000     1.033     1.592
  24   1 H      0.274  0.726  0.000  0.000     0.796     1.398
  25   1 H      0.320  0.680  0.000  0.000     0.653     1.264
  26   1 H      0.282  0.718  0.000  0.000     0.768     1.373

 Mol. C6AA /au·bohr⁶  :       5528.079197
 Mol. C8AA /au·bohr⁸  :     119887.535016
 Mol. α(0) /au        :        107.186275

 
 Wiberg/Mayer (AO) data. WBOs > 0.1 written file <wbo>
 largest (>0.05) Wiberg bond orders for each atom
           total WBO             WBO to atom ...
     1  S   4.922    O    4 1.302    O    2 1.293    O    3 1.288    O    5 0.997
     2  O   1.687    S    1 1.293    O    3 0.116    O    4 0.112    O    5 0.071    H   20 0.069
     3  O   1.687    S    1 1.288    O    2 0.116    O    4 0.111    O    5 0.072    H   26 0.068
     4  O   1.716    S    1 1.302    O    2 0.112    O    3 0.111    H   17 0.095    O    5 0.052
     5  O   2.048    S    1 0.997    H    6 0.846    O    3 0.072    O    2 0.071    O    4 0.052
     6  H   0.869    O    5 0.846
     7  O   1.463    H    8 0.947    H   19 0.202    H   25 0.172    N   22 0.069    O   18 0.062
     8  H   0.969    O    7 0.947
     9  O   1.627    H   10 0.942    H   16 0.205    H   21 0.175    H   13 0.120    O   14 0.062    O   18 0.059
    10  H   0.953    O    9 0.942
    11  O   1.836    H   12 0.922    H   13 0.758    H   24 0.060
    12  H   0.927    O   11 0.922
    13  H   0.881    O   11 0.758    O    9 0.120
    14  O   2.301    H   15 0.845    H   17 0.727    H   16 0.618    O    9 0.062
    15  H   0.857    O   14 0.845
    16  H   0.828    O   14 0.618    O    9 0.205
    17  H   0.831    O   14 0.727    O    4 0.095
    18  O   2.250    H   20 0.776    H   21 0.671    H   19 0.635    O    7 0.062    O    9 0.059
    19  H   0.843    O   18 0.635    O    7 0.202
    20  H   0.855    O   18 0.776    O    2 0.069
    21  H   0.852    O   18 0.671    O    9 0.175
    22  N   3.528    H   23 0.949    H   24 0.861    H   26 0.846    H   25 0.718    O    7 0.069
    23  H   0.954    N   22 0.949
    24  H   0.925    N   22 0.861    O   11 0.060
    25  H   0.897    N   22 0.718    O    7 0.172
    26  H   0.920    N   22 0.846    O    3 0.068
 MOs/occ written to file <molden.input>
 
molecular dipole:
                 x           y           z       tot (Debye)
 q only:        1.443      -0.145       1.386
   full:        1.010      -0.200       1.377       4.370
molecular quadrupole (traceless):
                xx          xy          yy          xz          yz          zz
 q only:       12.375      -0.732     -10.972       0.250     -10.037      -1.403
  q+dip:       15.156      -6.912      -8.835      -1.611      -8.363      -6.321
   full:       15.250      -7.167      -8.737      -1.671      -8.292      -6.513

SCC energy    :     -50.6307161
rep           :       0.2817758
ES            :       0.3405618
AES           :      -0.0711234
AXC           :      -0.0090151
disp          :      -0.0177998
XB            :       0.0000000
fix           :       0.0000000
total E       :     -50.3485423
atomizationE  :       4.8788465     3061.52
(atE without considering molecular charge,
 total energy contains solvation terms)
H-L gap (eV)  :          6.2781
           ------------------------------------------------- 
          |                 ===============                 |
          |                   A N C O P T                   |
          |                 ===============                 |
          |          Approximate Normal Coordinate          |
          |           Rational Function Optimizer           |
           ------------------------------------------------- 
dumping coords to <xtbopt.coord> and <xtbopt.log>
 optlevel               2
 Maxcycle             520
 Maxmicro              25
 Econv         1.000000000000000E-007
 Gconv         2.000000000000000E-004
 Maxdispl       1.00000000000000     
 Hlow          5.000000000000000E-003
 S6             20.0000000000000     
 Nvar               72

generating ANC from model Hessian ...
 Shifting diagonal of input Hessian by   4.907211393456489E-003
 Lowest  eigenvalues of input Hessian
   -0.000000   -0.000000    0.000000    0.000000    0.000000    0.000000
    0.005000    0.005067    0.006227    0.006444    0.006867    0.007673
    0.007893    0.008193    0.008492    0.009885    0.010412    0.011157
 Highest eigenvalues
    1.576097    1.585412    1.601245    3.146920    3.217385    3.323009
 
cpu  time for ANC gen    0.02 s
wall time for ANC gen    0.02 s
................................................................................
.............................. CYCLE    1 ......................................
................................................................................
   1    -50.6307161 -0.506307E+02  0.695E-05    6.28       0.0  T
   2    -50.6307161 -0.108713E-10  0.519E-05    6.28     377.7  T
   3    -50.6307161 -0.101750E-10  0.219E-05    6.28     897.1  T
speedup  0.97
cpu  time for SCC    0.00 s
wall time for SCC    0.00 s
speedup  0.94
cpu  time for grad    0.01 s
wall time for grad    0.01 s
 E :    -50.34854229  G :  0.237171    pred/act E change:  0.000D+00  0.334D-07
Maxdispl :   0.1078   ||displ|| :   0.2745   Lambda : -0.413D-01
Largest |displ|/coords:  0.1078 (  27)  0.0857 (  55)  0.0845 (  56)
................................................................................
.............................. CYCLE    2 ......................................
................................................................................
   1    -50.6444128 -0.506444E+02  0.296E-01    6.41       0.0  T
   2    -50.6447556 -0.342838E-03  0.218E-01    6.55       1.0  T
   3    -50.6449110 -0.155398E-03  0.906E-02    6.77       1.0  T
   4    -50.6449250 -0.139121E-04  0.191E-02    6.79       1.0  T
   5    -50.6449259 -0.976461E-06  0.535E-03    6.77       3.7  T
   6    -50.6449260 -0.394275E-07  0.315E-03    6.77       6.2  T
speedup  1.03
cpu  time for SCC    0.01 s
wall time for SCC    0.01 s
speedup  0.94
cpu  time for grad    0.01 s
wall time for grad    0.01 s
 E :    -50.38087975  G :  0.144410    pred/act E change:  0.000D+00 -0.323D-01
Maxdispl :   0.1482   ||displ|| :   0.3035   Lambda : -0.196D-01
Largest |displ|/coords:  0.1482 (  27)  0.0860 (  22)  0.0688 (  55)
................................................................................
.............................. CYCLE    3 ......................................
................................................................................
   1    -50.6524998 -0.506525E+02  0.305E-01    6.91       0.0  T
   2    -50.6528863 -0.386436E-03  0.220E-01    7.06       1.0  T
   3    -50.6530496 -0.163296E-03  0.915E-02    7.30       1.0  T
   4    -50.6530624 -0.127874E-04  0.173E-02    7.31       1.1  T
   5    -50.6530634 -0.105286E-05  0.472E-03    7.30       4.2  T
   6    -50.6530635 -0.296795E-07  0.288E-03    7.30       6.8  T
speedup  1.03
cpu  time for SCC    0.01 s
wall time for SCC    0.01 s
speedup  1.01
cpu  time for grad    0.01 s
wall time for grad    0.01 s
 E :    -50.39713889  G :  0.097636    pred/act E change: -0.222D-01 -0.163D-01
Maxdispl :   0.1346   ||displ|| :   0.3392   Lambda : -0.117D-01
Largest |displ|/coords:  0.1346 (   6)  0.1056 (  22)  0.1038 (   9)
................................................................................
.............................. CYCLE    4 ......................................
................................................................................
   1    -50.6546351 -0.506546E+02  0.452E-01    7.36       0.0  T
   2    -50.6551182 -0.483088E-03  0.329E-01    7.54       1.0  T
   3    -50.6553122 -0.194035E-03  0.106E-01    7.87       1.0  T
   4    -50.6553477 -0.354842E-04  0.189E-02    7.84       1.0  T
   5    -50.6553491 -0.138839E-05  0.609E-03    7.82       3.2  T
   6    -50.6553492 -0.492134E-07  0.348E-03    7.82       5.6  T
   7    -50.6553492 -0.283624E-07  0.986E-04    7.82      19.9  T
speedup  1.01
cpu  time for SCC    0.01 s
wall time for SCC    0.01 s
speedup  1.01
cpu  time for grad    0.01 s
wall time for grad    0.01 s
 E :    -50.40695721  G :  0.074342    pred/act E change: -0.107D-01 -0.982D-02
Maxdispl :   0.0981   ||displ|| :   0.2485   Lambda : -0.779D-02
Largest |displ|/coords:  0.0981 (  22)  0.0763 (  13)  0.0709 (   4)
................................................................................
.............................. CYCLE    5 ......................................
................................................................................
   1    -50.6628482 -0.506628E+02  0.217E-01    7.95       0.0  T
   2    -50.6631163 -0.268079E-03  0.151E-01    8.07       1.0  T
   3    -50.6632349 -0.118573E-03  0.667E-02    8.24       1.0  T
   4    -50.6632422 -0.734547E-05  0.140E-02    8.26       1.4  T
   5    -50.6632427 -0.502488E-06  0.467E-03    8.26       4.2  T
   6    -50.6632427 -0.292412E-07  0.250E-03    8.26       7.9  T
speedup  1.03
cpu  time for SCC    0.01 s
wall time for SCC    0.01 s
speedup  1.01
cpu  time for grad    0.01 s
wall time for grad    0.01 s
 E :    -50.41330406  G :  0.055147    pred/act E change: -0.654D-02 -0.635D-02
Maxdispl :   0.1860   ||displ|| :   0.3939   Lambda : -0.766D-02
Largest |displ|/coords:  0.1860 (   9)  0.1846 (   6)  0.1106 (  11)
................................................................................
.............................. CYCLE    6 ......................................
................................................................................
   1    -50.6548400 -0.506548E+02  0.642E-01    8.12       0.0  T
   2    -50.6556930 -0.852960E-03  0.454E-01    8.34       1.0  T
   3    -50.6560325 -0.339495E-03  0.140E-01    8.68       1.0  T
   4    -50.6560915 -0.590104E-04  0.228E-02    8.64       1.0  T
   5    -50.6560928 -0.129947E-05  0.114E-02    8.62       1.7  T
   6    -50.6560933 -0.468622E-06  0.500E-03    8.62       3.9  T
   7    -50.6560933 -0.621504E-07  0.103E-03    8.63      19.0  T
speedup  1.06
cpu  time for SCC    0.01 s
wall time for SCC    0.01 s
speedup  1.02
cpu  time for grad    0.01 s
wall time for grad    0.01 s
 E :    -50.41523816  G :  0.092584    pred/act E change: -0.414D-02 -0.193D-02
Maxdispl :   0.1635   ||displ|| :   0.4502   Lambda : -0.209D-01
Largest |displ|/coords:  0.1635 (   8)  0.1584 (   6)  0.1532 (   9)
................................................................................
.............................. CYCLE    7 ......................................
................................................................................
   1    -50.6806963 -0.506807E+02  0.726E-01    8.96       0.0  T
   2    -50.6810600 -0.363660E-03  0.541E-01    8.93       1.0  T
   3    -50.6813180 -0.258064E-03  0.104E-01    8.87       1.0  T
   4    -50.6813593 -0.412606E-04  0.248E-02    8.93       1.0  T
   5    -50.6813603 -0.102597E-05  0.121E-02    8.93       1.6  T
   6    -50.6813604 -0.120312E-06  0.484E-03    8.93       4.1  T
   7    -50.6813605 -0.700489E-07  0.121E-03    8.92      16.2  T
speedup  1.04
cpu  time for SCC    0.01 s
wall time for SCC    0.01 s
speedup  1.01
cpu  time for grad    0.01 s
wall time for grad    0.01 s
 E :    -50.41912778  G :  0.082780    pred/act E change: -0.442D-02 -0.389D-02
Maxdispl :   0.1168   ||displ|| :   0.3036   Lambda : -0.102D-01
Largest |displ|/coords:  0.1168 (  11)  0.0936 (   4)  0.0878 (   9)
................................................................................
.............................. CYCLE    8 ......................................
................................................................................
   1    -50.6790039 -0.506790E+02  0.450E-01    8.82       0.0  T
   2    -50.6792855 -0.281611E-03  0.328E-01    8.93       1.0  T
   3    -50.6794245 -0.138969E-03  0.857E-02    9.12       1.0  T
   4    -50.6794528 -0.283233E-04  0.150E-02    9.08       1.3  T
   5    -50.6794531 -0.327981E-06  0.709E-03    9.08       2.8  T
   6    -50.6794533 -0.124382E-06  0.322E-03    9.08       6.1  T
   7    -50.6794533 -0.174801E-07  0.671E-04    9.08      29.2  T
speedup  1.04
cpu  time for SCC    0.01 s
wall time for SCC    0.01 s
speedup  1.01
cpu  time for grad    0.01 s
wall time for grad    0.01 s
 E :    -50.42647022  G :  0.053547    pred/act E change: -0.126D-01 -0.734D-02
Maxdispl :   0.1146   ||displ|| :   0.2121   Lambda : -0.485D-02
Largest |displ|/coords:  0.1146 (   4)  0.0525 (  49)  0.0485 (  27)
................................................................................
.............................. CYCLE    9 ......................................
................................................................................
   1    -50.6880126 -0.506880E+02  0.167E-01    9.15       0.0  T
   2    -50.6881475 -0.134883E-03  0.117E-01    9.17       1.0  T
   3    -50.6882162 -0.686781E-04  0.505E-02    9.17       1.0  T
   4    -50.6882227 -0.654255E-05  0.112E-02    9.16       1.7  T
   5    -50.6882230 -0.235600E-06  0.464E-03    9.16       4.2  T
   6    -50.6882230 -0.188211E-07  0.223E-03    9.16       8.8  T
speedup  1.03
cpu  time for SCC    0.01 s
wall time for SCC    0.01 s
speedup  0.99
cpu  time for grad    0.01 s
wall time for grad    0.01 s
 E :    -50.43101557  G :  0.052588    pred/act E change: -0.556D-02 -0.455D-02
Maxdispl :   0.1071   ||displ|| :   0.2332   Lambda : -0.530D-02
Largest |displ|/coords:  0.1071 (   4)  0.0679 (  27)  0.0578 (  68)
................................................................................
.............................. CYCLE   10 ......................................
................................................................................
   1    -50.6999816 -0.507000E+02  0.161E-01    9.15       0.0  T
   2    -50.7000959 -0.114326E-03  0.114E-01    9.15       1.0  T
   3    -50.7001578 -0.619285E-04  0.493E-02    9.15       1.0  T
   4    -50.7001645 -0.672273E-05  0.113E-02    9.14       1.7  T
   5    -50.7001648 -0.221717E-06  0.479E-03    9.14       4.1  T
   6    -50.7001648 -0.164728E-07  0.215E-03    9.14       9.1  T
speedup  0.86
cpu  time for SCC    0.00 s
wall time for SCC    0.01 s
speedup  0.94
cpu  time for grad    0.01 s
wall time for grad    0.01 s
 E :    -50.43581563  G :  0.047869    pred/act E change: -0.253D-02 -0.480D-02
Maxdispl :   0.2294   ||displ|| :   0.5807   Lambda : -0.149D-01
Largest |displ|/coords:  0.2294 (  27)  0.1738 (  49)  0.1705 (  68)
................................................................................
.............................. CYCLE   11 ......................................
................................................................................
   1    -50.7409471 -0.507409E+02  0.398E-01    9.10       0.0  T
   2    -50.7414359 -0.488885E-03  0.291E-01    9.09       1.0  T
   3    -50.7417296 -0.293703E-03  0.115E-01    9.07       1.0  T
   4    -50.7417677 -0.380690E-04  0.303E-02    9.07       1.0  T
   5    -50.7417698 -0.209168E-05  0.122E-02    9.07       1.6  T
   6    -50.7417699 -0.642394E-07  0.535E-03    9.07       3.7  T
   7    -50.7417699 -0.566309E-07  0.124E-03    9.07      15.8  T
speedup  1.03
cpu  time for SCC    0.01 s
wall time for SCC    0.01 s
speedup  0.95
cpu  time for grad    0.01 s
wall time for grad    0.01 s
 E :    -50.44283686  G :  0.066239    pred/act E change: -0.280D-02 -0.702D-02
Maxdispl :   0.1053   ||displ|| :   0.2926   Lambda : -0.104D-01
Largest |displ|/coords:  0.1053 (   5)  0.1048 (  30)  0.0847 (  18)
................................................................................
.............................. CYCLE   12 ......................................
................................................................................
   1    -50.7145583 -0.507146E+02  0.290E-01    9.08       0.0  T
   2    -50.7147477 -0.189451E-03  0.207E-01    9.08       1.0  T
   3    -50.7148577 -0.110026E-03  0.665E-02    9.07       1.0  T
   4    -50.7148704 -0.126392E-04  0.150E-02    9.08       1.3  T
   5    -50.7148707 -0.345644E-06  0.666E-03    9.08       2.9  T
   6    -50.7148708 -0.735677E-07  0.300E-03    9.08       6.5  T
   7    -50.7148708 -0.154163E-07  0.797E-04    9.08      24.6  T
speedup  0.88
cpu  time for SCC    0.01 s
wall time for SCC    0.01 s
speedup  0.95
cpu  time for grad    0.01 s
wall time for grad    0.01 s
 E :    -50.44358397  G :  0.058465    pred/act E change: -0.993D-02 -0.747D-03
Maxdispl :   0.1312   ||displ|| :   0.3282   Lambda : -0.106D-01
Largest |displ|/coords:  0.1312 (   5)  0.1139 (   3)  0.0918 (  22)
................................................................................
.............................. CYCLE   13 ......................................
................................................................................
   1    -50.7410445 -0.507410E+02  0.314E-01    9.09       0.0  T
   2    -50.7411774 -0.132890E-03  0.232E-01    9.09       1.0  T
   3    -50.7412689 -0.914669E-04  0.614E-02    9.08       1.0  T
   4    -50.7412812 -0.122694E-04  0.142E-02    9.08       1.4  T
   5    -50.7412816 -0.418804E-06  0.669E-03    9.08       2.9  T
   6    -50.7412816 -0.215677E-07  0.285E-03    9.08       6.9  T
   7    -50.7412816 -0.186532E-07  0.599E-04    9.08      32.7  T
speedup  0.74
cpu  time for SCC    0.00 s
wall time for SCC    0.01 s
speedup  0.88
cpu  time for grad    0.01 s
wall time for grad    0.01 s
 E :    -50.44666094  G :  0.050389    pred/act E change: -0.565D-02 -0.308D-02
Maxdispl :   0.0772   ||displ|| :   0.2292   Lambda : -0.487D-02
Largest |displ|/coords:  0.0772 (   5)  0.0687 (  18)  0.0684 (   4)
................................................................................
.............................. CYCLE   14 ......................................
................................................................................
   1    -50.7303382 -0.507303E+02  0.206E-01    9.10       0.0  T
   2    -50.7303933 -0.551368E-04  0.149E-01    9.09       1.0  T
   3    -50.7304241 -0.307788E-04  0.388E-02    9.09       1.0  T
   4    -50.7304287 -0.462611E-05  0.809E-03    9.09       2.4  T
   5    -50.7304288 -0.132027E-06  0.356E-03    9.09       5.5  T
   6    -50.7304289 -0.218407E-07  0.190E-03    9.09      10.3  T
speedup  1.03
cpu  time for SCC    0.01 s
wall time for SCC    0.01 s
speedup  1.02
cpu  time for grad    0.01 s
wall time for grad    0.01 s
 E :    -50.44835996  G :  0.032044    pred/act E change: -0.586D-02 -0.170D-02
Maxdispl :   0.0678   ||displ|| :   0.1402   Lambda : -0.144D-02
Largest |displ|/coords:  0.0678 (  14)  0.0521 (   3)  0.0431 (  22)
................................................................................
.............................. CYCLE   15 ......................................
................................................................................
   1    -50.7357693 -0.507358E+02  0.874E-02    9.11       0.0  T
   2    -50.7357800 -0.106486E-04  0.637E-02    9.11       1.0  T
   3    -50.7357862 -0.626383E-05  0.174E-02    9.11       1.1  T
   4    -50.7357872 -0.936115E-06  0.443E-03    9.11       4.4  T
   5    -50.7357872 -0.384816E-07  0.175E-03    9.11      11.2  T
speedup  1.02
cpu  time for SCC    0.01 s
wall time for SCC    0.00 s
speedup  0.94
cpu  time for grad    0.01 s
wall time for grad    0.01 s
 E :    -50.44935062  G :  0.015350    pred/act E change: -0.256D-02 -0.991D-03
Maxdispl :   0.1378   ||displ|| :   0.2967   Lambda : -0.162D-02
Largest |displ|/coords:  0.1378 (   3)  0.0995 (   2)  0.0923 (  14)
................................................................................
.............................. CYCLE   16 ......................................
................................................................................
   1    -50.7413017 -0.507413E+02  0.173E-01    9.14       0.0  T
   2    -50.7413223 -0.205569E-04  0.129E-01    9.14       1.0  T
   3    -50.7413404 -0.181802E-04  0.267E-02    9.13       1.0  T
   4    -50.7413427 -0.225400E-05  0.822E-03    9.13       2.4  T
   5    -50.7413428 -0.133317E-06  0.305E-03    9.13       6.4  T
   6    -50.7413428 -0.124309E-07  0.149E-03    9.13      13.2  T
   7    -50.7413428 -0.422305E-08  0.379E-04    9.13      51.7  T
speedup  0.88
cpu  time for SCC    0.01 s
wall time for SCC    0.01 s
speedup  0.95
cpu  time for grad    0.01 s
wall time for grad    0.01 s
 E :    -50.44994804  G :  0.024425    pred/act E change: -0.734D-03 -0.597D-03
Maxdispl :   0.0678   ||displ|| :   0.1478   Lambda : -0.923D-03
Largest |displ|/coords:  0.0678 (  11)  0.0553 (  30)  0.0528 (   5)
................................................................................
.............................. CYCLE   17 ......................................
................................................................................
   1    -50.7413686 -0.507414E+02  0.108E-01    9.16       0.0  T
   2    -50.7413796 -0.110347E-04  0.798E-02    9.16       1.0  T
   3    -50.7413867 -0.708459E-05  0.194E-02    9.16       1.0  T
   4    -50.7413878 -0.112653E-05  0.495E-03    9.16       4.0  T
   5    -50.7413879 -0.414435E-07  0.197E-03    9.16       9.9  T
speedup  1.04
cpu  time for SCC    0.01 s
wall time for SCC    0.00 s
speedup  1.02
cpu  time for grad    0.01 s
wall time for grad    0.01 s
 E :    -50.45042092  G :  0.013468    pred/act E change: -0.879D-03 -0.473D-03
Maxdispl :   0.0396   ||displ|| :   0.1048   Lambda : -0.449D-03
Largest |displ|/coords:  0.0396 (  11)  0.0300 (  25)  0.0294 (  12)
................................................................................
.............................. CYCLE   18 ......................................
................................................................................
   1    -50.7386179 -0.507386E+02  0.780E-02    9.17       0.0  T
   2    -50.7386215 -0.360301E-05  0.565E-02    9.17       1.0  T
   3    -50.7386234 -0.190284E-05  0.112E-02    9.17       1.7  T
   4    -50.7386237 -0.326933E-06  0.204E-03    9.17       9.6  T
   5    -50.7386237 -0.675357E-08  0.862E-04    9.17      22.7  T
speedup  1.02
cpu  time for SCC    0.00 s
wall time for SCC    0.00 s
speedup  1.02
cpu  time for grad    0.01 s
wall time for grad    0.01 s
 E :    -50.45060312  G :  0.012576    pred/act E change: -0.471D-03 -0.182D-03
Maxdispl :   0.0664   ||displ|| :   0.1204   Lambda : -0.379D-03
Largest |displ|/coords:  0.0664 (  11)  0.0491 (   2)  0.0331 (   7)
................................................................................
.............................. CYCLE   19 ......................................
................................................................................
   1    -50.7396320 -0.507396E+02  0.796E-02    9.18       0.0  T
   2    -50.7396348 -0.277257E-05  0.591E-02    9.18       1.0  T
   3    -50.7396368 -0.197948E-05  0.106E-02    9.18       1.9  T
   4    -50.7396371 -0.336233E-06  0.222E-03    9.18       8.8  T
   5    -50.7396371 -0.670974E-08  0.109E-03    9.18      18.0  T
speedup  1.02
cpu  time for SCC    0.00 s
wall time for SCC    0.00 s
speedup  1.02
cpu  time for grad    0.01 s
wall time for grad    0.01 s
 E :    -50.45086164  G :  0.007722    pred/act E change: -0.227D-03 -0.259D-03
Maxdispl :   0.1165   ||displ|| :   0.2076   Lambda : -0.355D-03
Largest |displ|/coords:  0.1165 (  11)  0.0955 (   2)  0.0662 (   7)
................................................................................
.............................. CYCLE   20 ......................................
................................................................................
   1    -50.7393550 -0.507394E+02  0.124E-01    9.19       0.0  T
   2    -50.7393573 -0.238555E-05  0.926E-02    9.19       1.0  T
   3    -50.7393595 -0.218116E-05  0.111E-02    9.19       1.8  T
   4    -50.7393598 -0.259444E-06  0.275E-03    9.19       7.1  T
   5    -50.7393598 -0.101867E-07  0.126E-03    9.19      15.5  T
speedup  1.02
cpu  time for SCC    0.01 s
wall time for SCC    0.00 s
speedup  1.02
cpu  time for grad    0.01 s
wall time for grad    0.01 s
 E :    -50.45108191  G :  0.010737    pred/act E change: -0.192D-03 -0.220D-03
Maxdispl :   0.1399   ||displ|| :   0.2446   Lambda : -0.373D-03
Largest |displ|/coords:  0.1399 (  11)  0.0963 (   2)  0.0648 (   5)
................................................................................
.............................. CYCLE   21 ......................................
................................................................................
   1    -50.7402868 -0.507403E+02  0.131E-01    9.20       0.0  T
   2    -50.7402894 -0.260933E-05  0.973E-02    9.20       1.0  T
   3    -50.7402912 -0.178033E-05  0.117E-02    9.21       1.7  T
   4    -50.7402915 -0.343927E-06  0.356E-03    9.21       5.5  T
   5    -50.7402915 -0.179699E-07  0.114E-03    9.21      17.2  T
   6    -50.7402915 -0.124071E-08  0.673E-04    9.21      29.2  T
speedup  0.85
cpu  time for SCC    0.00 s
wall time for SCC    0.01 s
speedup  0.95
cpu  time for grad    0.01 s
wall time for grad    0.01 s
 E :    -50.45129858  G :  0.010758    pred/act E change: -0.185D-03 -0.217D-03
Maxdispl :   0.0999   ||displ|| :   0.1857   Lambda : -0.293D-03
Largest |displ|/coords:  0.0999 (  11)  0.0769 (   2)  0.0684 (   5)
................................................................................
.............................. CYCLE   22 ......................................
................................................................................
   1    -50.7407716 -0.507408E+02  0.107E-01    9.21       0.0  T
   2    -50.7407747 -0.304623E-05  0.797E-02    9.21       1.0  T
   3    -50.7407759 -0.125539E-05  0.106E-02    9.21       1.9  T
   4    -50.7407765 -0.560311E-06  0.307E-03    9.21       6.4  T
   5    -50.7407765 -0.256397E-07  0.999E-04    9.21      19.6  T
   6    -50.7407765 -0.570310E-09  0.558E-04    9.21      35.1  T
speedup  1.03
cpu  time for SCC    0.01 s
wall time for SCC    0.01 s
speedup  1.02
cpu  time for grad    0.01 s
wall time for grad    0.01 s
 E :    -50.45149326  G :  0.008603    pred/act E change: -0.198D-03 -0.195D-03
Maxdispl :   0.0934   ||displ|| :   0.2072   Lambda : -0.324D-03
Largest |displ|/coords:  0.0934 (   2)  0.0643 (  11)  0.0634 (   5)
................................................................................
.............................. CYCLE   23 ......................................
................................................................................
   1    -50.7411517 -0.507412E+02  0.105E-01    9.20       0.0  T
   2    -50.7411568 -0.512338E-05  0.778E-02    9.20       1.0  T
   3    -50.7411591 -0.229234E-05  0.140E-02    9.20       1.4  T
   4    -50.7411598 -0.714315E-06  0.469E-03    9.20       4.2  T
   5    -50.7411598 -0.411006E-07  0.124E-03    9.20      15.8  T
   6    -50.7411598 -0.161797E-08  0.746E-04    9.20      26.3  T
speedup  1.03
cpu  time for SCC    0.01 s
wall time for SCC    0.01 s
speedup  1.02
cpu  time for grad    0.01 s
wall time for grad    0.01 s
 E :    -50.45161996  G :  0.011294    pred/act E change: -0.152D-03 -0.127D-03
Maxdispl :   0.0964   ||displ|| :   0.1998   Lambda : -0.323D-03
Largest |displ|/coords:  0.0964 (   3)  0.0828 (   2)  0.0603 (  11)
................................................................................
.............................. CYCLE   24 ......................................
................................................................................
   1    -50.7381744 -0.507382E+02  0.145E-01    9.19       0.0  T
   2    -50.7381815 -0.709510E-05  0.108E-01    9.19       1.0  T
   3    -50.7381865 -0.505555E-05  0.165E-02    9.19       1.2  T
   4    -50.7381874 -0.918456E-06  0.614E-03    9.19       3.2  T
   5    -50.7381875 -0.542969E-07  0.182E-03    9.19      10.8  T
   6    -50.7381875 -0.355082E-08  0.107E-03    9.19      18.3  T
speedup  1.03
cpu  time for SCC    0.01 s
wall time for SCC    0.01 s
speedup  1.02
cpu  time for grad    0.01 s
wall time for grad    0.01 s
 E :    -50.45164641  G :  0.015310    pred/act E change: -0.169D-03 -0.265D-04
Maxdispl :   0.0593   ||displ|| :   0.0912   Lambda : -0.354D-03
Largest |displ|/coords:  0.0593 (  11)  0.0286 (  15)  0.0222 (   2)
................................................................................
.............................. CYCLE   25 ......................................
................................................................................
   1    -50.7416903 -0.507417E+02  0.620E-02    9.19       0.0  T
   2    -50.7416925 -0.215446E-05  0.461E-02    9.19       1.0  T
   3    -50.7416940 -0.151660E-05  0.887E-03    9.19       2.2  T
   4    -50.7416943 -0.255114E-06  0.237E-03    9.19       8.3  T
   5    -50.7416943 -0.103994E-07  0.900E-04    9.19      21.8  T
speedup  1.04
cpu  time for SCC    0.00 s
wall time for SCC    0.00 s
speedup  1.02
cpu  time for grad    0.01 s
wall time for grad    0.01 s
 E :    -50.45184586  G :  0.006341    pred/act E change: -0.168D-03 -0.199D-03
Maxdispl :   0.0797   ||displ|| :   0.1247   Lambda : -0.162D-03
Largest |displ|/coords:  0.0797 (   3)  0.0579 (   2)  0.0359 (   5)

generating ANC from model Hessian ...
 Shifting diagonal of input Hessian by   4.929563054987916E-003
 Lowest  eigenvalues of input Hessian
   -0.000000   -0.000000   -0.000000    0.000000    0.000000    0.000000
    0.005000    0.005252    0.005509    0.005557    0.005884    0.006523
    0.006912    0.007677    0.008431    0.008935    0.010277    0.011741
 Highest eigenvalues
    1.407434    1.411448    1.413405    2.569359    3.417428    3.677660
 
cpu  time for ANC gen    0.02 s
wall time for ANC gen    0.02 s
................................................................................
.............................. CYCLE   26 ......................................
................................................................................
   1    -50.7414327 -0.507414E+02  0.548E-02    9.19       0.0  T
   2    -50.7414334 -0.637358E-06  0.409E-02    9.19       1.0  T
   3    -50.7414337 -0.379791E-06  0.508E-03    9.19       3.9  T
   4    -50.7414339 -0.109642E-06  0.160E-03    9.19      12.2  T
   5    -50.7414339 -0.355441E-08  0.506E-04    9.19      38.8  T
   6    -50.7414339 -0.387089E-09  0.293E-04    9.19      67.0  T
speedup  1.03
cpu  time for SCC    0.01 s
wall time for SCC    0.01 s
speedup  0.98
cpu  time for grad    0.01 s
wall time for grad    0.01 s
 E :    -50.45197612  G :  0.005745    pred/act E change:  0.000D+00 -0.130D-03
Maxdispl :   0.1296   ||displ|| :   0.1840   Lambda : -0.327D-03
Largest |displ|/coords:  0.1296 (   4)  0.0851 (   1)  0.0468 (   3)
................................................................................
.............................. CYCLE   27 ......................................
................................................................................
   1    -50.7416158 -0.507416E+02  0.129E-01    9.19       0.0  T
   2    -50.7416177 -0.181716E-05  0.975E-02    9.19       1.0  T
   3    -50.7416198 -0.217044E-05  0.619E-03    9.19       3.2  T
   4    -50.7416200 -0.132901E-06  0.233E-03    9.19       8.4  T
   5    -50.7416200 -0.560664E-08  0.114E-03    9.19      17.2  T
speedup  1.02
cpu  time for SCC    0.00 s
wall time for SCC    0.00 s
speedup  0.93
cpu  time for grad    0.01 s
wall time for grad    0.01 s
 E :    -50.45223516  G :  0.004123    pred/act E change:  0.000D+00 -0.259D-03
Maxdispl :   0.2794   ||displ|| :   0.4399   Lambda : -0.539D-03
Largest |displ|/coords:  0.2794 (   1)  0.2389 (   4)  0.1051 (   5)
................................................................................
.............................. CYCLE   28 ......................................
................................................................................
   1    -50.7401114 -0.507401E+02  0.252E-01    9.20       0.0  T
   2    -50.7401187 -0.729400E-05  0.191E-01    9.20       1.0  T
   3    -50.7401280 -0.936264E-05  0.131E-02    9.19       1.5  T
   4    -50.7401284 -0.324600E-06  0.462E-03    9.20       4.2  T
   5    -50.7401284 -0.185386E-07  0.202E-03    9.20       9.7  T
   6    -50.7401284 -0.668786E-08  0.827E-04    9.20      23.7  T
speedup  1.03
cpu  time for SCC    0.01 s
wall time for SCC    0.01 s
speedup  0.95
cpu  time for grad    0.01 s
wall time for grad    0.01 s
 E :    -50.45251310  G :  0.013415    pred/act E change: -0.169D-03 -0.278D-03
Maxdispl :   0.1216   ||displ|| :   0.2025   Lambda : -0.315D-03
Largest |displ|/coords:  0.1216 (   1)  0.1061 (   4)  0.0855 (   5)
................................................................................
.............................. CYCLE   29 ......................................
................................................................................
   1    -50.7409920 -0.507410E+02  0.864E-02    9.20       0.0  T
   2    -50.7409940 -0.199436E-05  0.648E-02    9.20       1.0  T
   3    -50.7409953 -0.129280E-05  0.777E-03    9.20       2.5  T
   4    -50.7409956 -0.312609E-06  0.186E-03    9.20      10.5  T
   5    -50.7409956 -0.421137E-08  0.965E-04    9.20      20.3  T
speedup  1.00
cpu  time for SCC    0.00 s
wall time for SCC    0.00 s
speedup  0.94
cpu  time for grad    0.01 s
wall time for grad    0.01 s
 E :    -50.45274498  G :  0.005963    pred/act E change: -0.322D-03 -0.232D-03
Maxdispl :   0.2700   ||displ|| :   0.4665   Lambda : -0.390D-03
Largest |displ|/coords:  0.2700 (   1)  0.2684 (   4)  0.1859 (   5)
................................................................................
.............................. CYCLE   30 ......................................
................................................................................
   1    -50.7397934 -0.507398E+02  0.198E-01    9.21       0.0  T
   2    -50.7397973 -0.383894E-05  0.149E-01    9.21       1.0  T
   3    -50.7398009 -0.360958E-05  0.104E-02    9.21       1.9  T
   4    -50.7398014 -0.489306E-06  0.381E-03    9.21       5.2  T
   5    -50.7398014 -0.176241E-07  0.176E-03    9.21      11.2  T
   6    -50.7398014 -0.549041E-08  0.632E-04    9.21      31.0  T
speedup  0.86
cpu  time for SCC    0.00 s
wall time for SCC    0.01 s
speedup  0.96
cpu  time for grad    0.01 s
wall time for grad    0.01 s
 E :    -50.45300672  G :  0.008822    pred/act E change: -0.164D-03 -0.262D-03
Maxdispl :   0.2664   ||displ|| :   0.4710   Lambda : -0.451D-03
Largest |displ|/coords:  0.2664 (   1)  0.2021 (   5)  0.1908 (   4)
................................................................................
.............................. CYCLE   31 ......................................
................................................................................
   1    -50.7406447 -0.507406E+02  0.186E-01    9.21       0.0  T
   2    -50.7406506 -0.592304E-05  0.140E-01    9.21       1.0  T
   3    -50.7406550 -0.445678E-05  0.134E-02    9.21       1.5  T
   4    -50.7406559 -0.892506E-06  0.412E-03    9.21       4.8  T
   5    -50.7406560 -0.256281E-07  0.187E-03    9.21      10.5  T
   6    -50.7406560 -0.298751E-08  0.785E-04    9.21      25.0  T
speedup  0.86
cpu  time for SCC    0.00 s
wall time for SCC    0.01 s
speedup  0.94
cpu  time for grad    0.01 s
wall time for grad    0.01 s
 E :    -50.45317202  G :  0.010888    pred/act E change: -0.237D-03 -0.165D-03
Maxdispl :   0.1889   ||displ|| :   0.2997   Lambda : -0.333D-03
Largest |displ|/coords:  0.1889 (   4)  0.1618 (   1)  0.0802 (   5)
................................................................................
.............................. CYCLE   32 ......................................
................................................................................
   1    -50.7386792 -0.507387E+02  0.155E-01    9.22       0.0  T
   2    -50.7386846 -0.536968E-05  0.117E-01    9.22       1.0  T
   3    -50.7386901 -0.547501E-05  0.125E-02    9.22       1.6  T
   4    -50.7386907 -0.601221E-06  0.423E-03    9.22       4.6  T
   5    -50.7386907 -0.196004E-07  0.192E-03    9.22      10.2  T
   6    -50.7386907 -0.528277E-08  0.722E-04    9.22      27.2  T
speedup  0.86
cpu  time for SCC    0.00 s
wall time for SCC    0.01 s
speedup  0.95
cpu  time for grad    0.01 s
wall time for grad    0.01 s
 E :    -50.45331888  G :  0.013110    pred/act E change: -0.276D-03 -0.147D-03
Maxdispl :   0.0676   ||displ|| :   0.1254   Lambda : -0.305D-03
Largest |displ|/coords:  0.0676 (   1)  0.0433 (   2)  0.0384 (  15)
................................................................................
.............................. CYCLE   33 ......................................
................................................................................
   1    -50.7442570 -0.507443E+02  0.871E-02    9.23       0.0  T
   2    -50.7442606 -0.355466E-05  0.651E-02    9.23       1.0  T
   3    -50.7442626 -0.201330E-05  0.108E-02    9.23       1.8  T
   4    -50.7442631 -0.514287E-06  0.272E-03    9.23       7.2  T
   5    -50.7442631 -0.137208E-07  0.106E-03    9.23      18.5  T
speedup  1.04
cpu  time for SCC    0.00 s
wall time for SCC    0.00 s
speedup  1.02
cpu  time for grad    0.01 s
wall time for grad    0.01 s
 E :    -50.45332987  G :  0.010544    pred/act E change: -0.181D-03 -0.110D-04
Maxdispl :   0.0835   ||displ|| :   0.1801   Lambda : -0.335D-03
Largest |displ|/coords:  0.0835 (   4)  0.0754 (   5)  0.0731 (   2)
................................................................................
.............................. CYCLE   34 ......................................
................................................................................
   1    -50.7421552 -0.507422E+02  0.116E-01    9.23       0.0  T
   2    -50.7421572 -0.197406E-05  0.875E-02    9.23       1.0  T
   3    -50.7421590 -0.184153E-05  0.759E-03    9.23       2.6  T
   4    -50.7421592 -0.230441E-06  0.251E-03    9.23       7.8  T
   5    -50.7421592 -0.851234E-08  0.117E-03    9.23      16.8  T
speedup  1.04
cpu  time for SCC    0.01 s
wall time for SCC    0.00 s
speedup  1.02
cpu  time for grad    0.01 s
wall time for grad    0.01 s
 E :    -50.45352480  G :  0.005152    pred/act E change: -0.155D-03 -0.195D-03
Maxdispl :   0.1651   ||displ|| :   0.3187   Lambda : -0.171D-03
Largest |displ|/coords:  0.1651 (   4)  0.1552 (   5)  0.1374 (   1)
................................................................................
.............................. CYCLE   35 ......................................
................................................................................
   1    -50.7399852 -0.507400E+02  0.147E-01    9.22       0.0  T
   2    -50.7399891 -0.388557E-05  0.110E-01    9.22       1.0  T
   3    -50.7399923 -0.320332E-05  0.114E-02    9.22       1.7  T
   4    -50.7399928 -0.521558E-06  0.374E-03    9.22       5.2  T
   5    -50.7399928 -0.231079E-07  0.156E-03    9.22      12.6  T
   6    -50.7399928 -0.218908E-08  0.788E-04    9.22      24.9  T
speedup  1.05
cpu  time for SCC    0.01 s
wall time for SCC    0.01 s
speedup  1.03
cpu  time for grad    0.01 s
wall time for grad    0.01 s
 E :    -50.45360557  G :  0.010695    pred/act E change: -0.173D-03 -0.808D-04
Maxdispl :   0.0696   ||displ|| :   0.1467   Lambda : -0.163D-03
Largest |displ|/coords:  0.0696 (   5)  0.0634 (   4)  0.0509 (  17)
................................................................................
.............................. CYCLE   36 ......................................
................................................................................
   1    -50.7415491 -0.507415E+02  0.741E-02    9.23       0.0  T
   2    -50.7415508 -0.169701E-05  0.557E-02    9.23       1.0  T
   3    -50.7415521 -0.133743E-05  0.768E-03    9.23       2.6  T
   4    -50.7415523 -0.227638E-06  0.286E-03    9.23       6.8  T
   5    -50.7415524 -0.134081E-07  0.951E-04    9.23      20.6  T
speedup  1.04
cpu  time for SCC    0.00 s
wall time for SCC    0.00 s
speedup  1.02
cpu  time for grad    0.01 s
wall time for grad    0.01 s
 E :    -50.45367821  G :  0.008710    pred/act E change: -0.944D-04 -0.726D-04
Maxdispl :   0.1505   ||displ|| :   0.2419   Lambda : -0.253D-03
Largest |displ|/coords:  0.1505 (   5)  0.1114 (   4)  0.0622 (   2)
................................................................................
.............................. CYCLE   37 ......................................
................................................................................
   1    -50.7434790 -0.507435E+02  0.124E-01    9.23       0.0  T
   2    -50.7434813 -0.232018E-05  0.934E-02    9.23       1.0  T
   3    -50.7434835 -0.219388E-05  0.895E-03    9.23       2.2  T
   4    -50.7434838 -0.259088E-06  0.348E-03    9.23       5.6  T
   5    -50.7434838 -0.141521E-07  0.107E-03    9.23      18.3  T
   6    -50.7434838 -0.114716E-08  0.582E-04    9.23      33.7  T
speedup  1.02
cpu  time for SCC    0.01 s
wall time for SCC    0.01 s
speedup  1.01
cpu  time for grad    0.01 s
wall time for grad    0.01 s
 E :    -50.45382987  G :  0.005483    pred/act E change: -0.831D-04 -0.152D-03
Maxdispl :   0.2331   ||displ|| :   0.4156   Lambda : -0.197D-03
Largest |displ|/coords:  0.2331 (   5)  0.2090 (   4)  0.1191 (   2)
................................................................................
.............................. CYCLE   38 ......................................
................................................................................
   1    -50.7418610 -0.507419E+02  0.198E-01    9.22       0.0  T
   2    -50.7418653 -0.429448E-05  0.149E-01    9.22       1.0  T
   3    -50.7418691 -0.382307E-05  0.134E-02    9.22       1.5  T
   4    -50.7418697 -0.539690E-06  0.489E-03    9.22       4.0  T
   5    -50.7418697 -0.327357E-07  0.174E-03    9.22      11.3  T
   6    -50.7418697 -0.331372E-08  0.921E-04    9.22      21.3  T
speedup  1.03
cpu  time for SCC    0.01 s
wall time for SCC    0.01 s
speedup  1.02
cpu  time for grad    0.01 s
wall time for grad    0.01 s
 E :    -50.45391022  G :  0.010173    pred/act E change: -0.134D-03 -0.804D-04
Maxdispl :   0.0516   ||displ|| :   0.0962   Lambda : -0.140D-03
Largest |displ|/coords:  0.0516 (   5)  0.0333 (  17)  0.0276 (  12)
................................................................................
.............................. CYCLE   39 ......................................
................................................................................
   1    -50.7436187 -0.507436E+02  0.485E-02    9.22       0.0  T
   2    -50.7436195 -0.865595E-06  0.361E-02    9.22       1.0  T
   3    -50.7436201 -0.583687E-06  0.595E-03    9.22       3.3  T
   4    -50.7436202 -0.116978E-06  0.180E-03    9.22      10.9  T
   5    -50.7436202 -0.662791E-08  0.646E-04    9.22      30.4  T
speedup  1.00
cpu  time for SCC    0.00 s
wall time for SCC    0.00 s
speedup  1.02
cpu  time for grad    0.01 s
wall time for grad    0.01 s
 E :    -50.45400440  G :  0.004715    pred/act E change: -0.116D-03 -0.942D-04
Maxdispl :   0.2386   ||displ|| :   0.4555   Lambda : -0.208D-03
Largest |displ|/coords:  0.2386 (   5)  0.2012 (   4)  0.1372 (   1)
................................................................................
.............................. CYCLE   40 ......................................
................................................................................
   1    -50.7401275 -0.507401E+02  0.224E-01    9.21       0.0  T
   2    -50.7401386 -0.111462E-04  0.169E-01    9.21       1.0  T
   3    -50.7401484 -0.979850E-05  0.196E-02    9.21       1.0  T
   4    -50.7401499 -0.146563E-05  0.672E-03    9.21       2.9  T
   5    -50.7401500 -0.735038E-07  0.282E-03    9.21       6.9  T
   6    -50.7401500 -0.815184E-08  0.137E-03    9.21      14.3  T
speedup  1.02
cpu  time for SCC    0.01 s
wall time for SCC    0.01 s
speedup  1.02
cpu  time for grad    0.01 s
wall time for grad    0.01 s
 E :    -50.45393795  G :  0.017517    pred/act E change: -0.706D-04  0.664D-04
Maxdispl :   0.0700   ||displ|| :   0.1156   Lambda : -0.456D-03
Largest |displ|/coords:  0.0700 (   1)  0.0445 (   3)  0.0313 (  31)
................................................................................
.............................. CYCLE   41 ......................................
................................................................................
   1    -50.7446111 -0.507446E+02  0.846E-02    9.22       0.0  T
   2    -50.7446161 -0.496271E-05  0.632E-02    9.22       1.0  T
   3    -50.7446199 -0.381600E-05  0.129E-02    9.22       1.5  T
   4    -50.7446205 -0.563371E-06  0.303E-03    9.22       6.5  T
   5    -50.7446205 -0.137385E-07  0.141E-03    9.22      14.0  T
   6    -50.7446205 -0.157200E-08  0.620E-04    9.22      31.6  T
speedup  1.03
cpu  time for SCC    0.01 s
wall time for SCC    0.01 s
speedup  1.03
cpu  time for grad    0.01 s
wall time for grad    0.01 s
 E :    -50.45411885  G :  0.006962    pred/act E change: -0.126D-03 -0.181D-03
Maxdispl :   0.1200   ||displ|| :   0.2149   Lambda : -0.221D-03
Largest |displ|/coords:  0.1200 (   5)  0.0992 (   4)  0.0655 (   8)
................................................................................
.............................. CYCLE   42 ......................................
................................................................................
   1    -50.7431936 -0.507432E+02  0.106E-01    9.20       0.0  T
   2    -50.7431961 -0.246155E-05  0.793E-02    9.20       1.0  T
   3    -50.7431984 -0.231147E-05  0.985E-03    9.20       2.0  T
   4    -50.7431986 -0.252876E-06  0.356E-03    9.20       5.5  T
   5    -50.7431986 -0.177258E-07  0.123E-03    9.20      15.9  T
   6    -50.7431987 -0.186434E-08  0.658E-04    9.20      29.8  T
speedup  1.03
cpu  time for SCC    0.01 s
wall time for SCC    0.01 s
speedup  1.03
cpu  time for grad    0.01 s
wall time for grad    0.01 s
 E :    -50.45407791  G :  0.012349    pred/act E change: -0.231D-03  0.409D-04
Maxdispl :   0.0318   ||displ|| :   0.0783   Lambda : -0.271D-03
Largest |displ|/coords:  0.0318 (  10)  0.0304 (   1)  0.0269 (   4)
................................................................................
.............................. CYCLE   43 ......................................
................................................................................
   1    -50.7433859 -0.507434E+02  0.542E-02    9.22       0.0  T
   2    -50.7433874 -0.148487E-05  0.409E-02    9.22       1.0  T
   3    -50.7433888 -0.136774E-05  0.692E-03    9.22       2.8  T
   4    -50.7433890 -0.173487E-06  0.227E-03    9.22       8.6  T
   5    -50.7433890 -0.661357E-08  0.891E-04    9.22      22.0  T
speedup  0.98
cpu  time for SCC    0.00 s
wall time for SCC    0.01 s
speedup  1.00
cpu  time for grad    0.01 s
wall time for grad    0.01 s
 E :    -50.45421059  G :  0.004279    pred/act E change: -0.115D-03 -0.133D-03
Maxdispl :   0.0916   ||displ|| :   0.1958   Lambda : -0.131D-03
Largest |displ|/coords:  0.0916 (   5)  0.0617 (   6)  0.0574 (   4)
................................................................................
.............................. CYCLE   44 ......................................
................................................................................
   1    -50.7431084 -0.507431E+02  0.112E-01    9.22       0.0  T
   2    -50.7431103 -0.194126E-05  0.842E-02    9.22       1.0  T
   3    -50.7431122 -0.185116E-05  0.854E-03    9.22       2.3  T
   4    -50.7431123 -0.190151E-06  0.251E-03    9.22       7.8  T
   5    -50.7431124 -0.893068E-08  0.108E-03    9.22      18.1  T
speedup  1.04
cpu  time for SCC    0.01 s
wall time for SCC    0.00 s
speedup  1.02
cpu  time for grad    0.01 s
wall time for grad    0.01 s
 E :    -50.45418695  G :  0.011144    pred/act E change: -0.136D-03  0.236D-04
Maxdispl :   0.0411   ||displ|| :   0.0759   Lambda : -0.171D-03
Largest |displ|/coords:  0.0411 (   3)  0.0399 (   4)  0.0267 (  17)
................................................................................
.............................. CYCLE   45 ......................................
................................................................................
   1    -50.7436752 -0.507437E+02  0.339E-02    9.23       0.0  T
   2    -50.7436759 -0.743405E-06  0.253E-02    9.23       1.0  T
   3    -50.7436765 -0.564388E-06  0.532E-03    9.23       3.7  T
   4    -50.7436766 -0.792353E-07  0.156E-03    9.23      12.5  T
   5    -50.7436766 -0.441500E-08  0.586E-04    9.23      33.5  T
speedup  1.02
cpu  time for SCC    0.00 s
wall time for SCC    0.00 s
speedup  1.02
cpu  time for grad    0.01 s
wall time for grad    0.01 s
 E :    -50.45428603  G :  0.003856    pred/act E change: -0.678D-04 -0.991D-04
Maxdispl :   0.0904   ||displ|| :   0.1828   Lambda : -0.815D-04
Largest |displ|/coords:  0.0904 (   4)  0.0729 (   5)  0.0613 (  17)
................................................................................
.............................. CYCLE   46 ......................................
................................................................................
   1    -50.7433314 -0.507433E+02  0.858E-02    9.24       0.0  T
   2    -50.7433321 -0.769908E-06  0.641E-02    9.24       1.0  T
   3    -50.7433328 -0.677615E-06  0.658E-03    9.24       3.0  T
   4    -50.7433329 -0.836508E-07  0.198E-03    9.24       9.9  T
   5    -50.7433329 -0.631771E-08  0.661E-04    9.24      29.7  T
   6    -50.7433329 -0.545320E-09  0.387E-04    9.24      50.6  T
speedup  0.86
cpu  time for SCC    0.00 s
wall time for SCC    0.01 s
speedup  0.97
cpu  time for grad    0.01 s
wall time for grad    0.01 s
 E :    -50.45432376  G :  0.005344    pred/act E change: -0.862D-04 -0.377D-04
Maxdispl :   0.1299   ||displ|| :   0.2913   Lambda : -0.907D-04
Largest |displ|/coords:  0.1299 (   4)  0.1085 (   5)  0.0977 (  17)
................................................................................
.............................. CYCLE   47 ......................................
................................................................................
   1    -50.7427541 -0.507428E+02  0.139E-01    9.24       0.0  T
   2    -50.7427565 -0.242947E-05  0.104E-01    9.24       1.0  T
   3    -50.7427590 -0.248729E-05  0.111E-02    9.24       1.8  T
   4    -50.7427593 -0.253816E-06  0.352E-03    9.24       5.6  T
   5    -50.7427593 -0.179871E-07  0.135E-03    9.24      14.6  T
   6    -50.7427593 -0.218652E-08  0.717E-04    9.24      27.4  T
speedup  1.02
cpu  time for SCC    0.01 s
wall time for SCC    0.01 s
speedup  1.01
cpu  time for grad    0.01 s
wall time for grad    0.01 s
 E :    -50.45438699  G :  0.005592    pred/act E change: -0.421D-04 -0.632D-04
Maxdispl :   0.1418   ||displ|| :   0.4038   Lambda : -0.242D-03
Largest |displ|/coords:  0.1418 (   4)  0.1345 (  10)  0.1290 (   8)
................................................................................
.............................. CYCLE   48 ......................................
................................................................................
   1    -50.7478183 -0.507478E+02  0.190E-01    9.27       0.0  T
   2    -50.7478258 -0.744962E-05  0.141E-01    9.27       1.0  T
   3    -50.7478325 -0.666277E-05  0.202E-02    9.27       1.0  T
   4    -50.7478332 -0.785169E-06  0.456E-03    9.27       4.3  T
   5    -50.7478333 -0.376939E-07  0.225E-03    9.27       8.7  T
   6    -50.7478333 -0.644583E-08  0.109E-03    9.27      18.0  T
speedup  1.02
cpu  time for SCC    0.01 s
wall time for SCC    0.01 s
speedup  1.01
cpu  time for grad    0.01 s
wall time for grad    0.01 s
 E :    -50.45433441  G :  0.014200    pred/act E change: -0.492D-04  0.526D-04
Maxdispl :   0.1178   ||displ|| :   0.2482   Lambda : -0.338D-03
Largest |displ|/coords:  0.1178 (   4)  0.1151 (   5)  0.0760 (  17)
................................................................................
.............................. CYCLE   49 ......................................
................................................................................
   1    -50.7429100 -0.507429E+02  0.125E-01    9.24       0.0  T
   2    -50.7429144 -0.433731E-05  0.933E-02    9.24       1.0  T
   3    -50.7429171 -0.271146E-05  0.121E-02    9.24       1.6  T
   4    -50.7429178 -0.658356E-06  0.357E-03    9.24       5.5  T
   5    -50.7429178 -0.270560E-07  0.145E-03    9.24      13.6  T
   6    -50.7429178 -0.171756E-08  0.779E-04    9.24      25.2  T
speedup  0.98
cpu  time for SCC    0.01 s
wall time for SCC    0.01 s
speedup  1.00
cpu  time for grad    0.01 s
wall time for grad    0.01 s
 E :    -50.45450011  G :  0.006672    pred/act E change: -0.141D-03 -0.166D-03
Maxdispl :   0.0589   ||displ|| :   0.1472   Lambda : -0.106D-03
Largest |displ|/coords:  0.0589 (   6)  0.0558 (   4)  0.0496 (   5)
................................................................................
.............................. CYCLE   50 ......................................
................................................................................
   1    -50.7453977 -0.507454E+02  0.771E-02    9.29       0.0  T
   2    -50.7453988 -0.107306E-05  0.580E-02    9.29       1.0  T
   3    -50.7454001 -0.127111E-05  0.570E-03    9.28       3.4  T
   4    -50.7454002 -0.669786E-07  0.171E-03    9.28      11.5  T
   5    -50.7454002 -0.510604E-08  0.833E-04    9.28      23.6  T
speedup  1.02
cpu  time for SCC    0.00 s
wall time for SCC    0.00 s
speedup  1.02
cpu  time for grad    0.01 s
wall time for grad    0.01 s
 E :    -50.45449560  G :  0.006599    pred/act E change: -0.179D-03  0.451D-05
Maxdispl :   0.0957   ||displ|| :   0.2214   Lambda : -0.105D-03
Largest |displ|/coords:  0.0957 (   4)  0.0778 (  17)  0.0633 (   5)
................................................................................
.............................. CYCLE   51 ......................................
................................................................................
   1    -50.7443054 -0.507443E+02  0.111E-01    9.26       0.0  T
   2    -50.7443069 -0.153330E-05  0.830E-02    9.26       1.0  T
   3    -50.7443086 -0.169406E-05  0.867E-03    9.26       2.3  T
   4    -50.7443088 -0.134498E-06  0.303E-03    9.26       6.5  T
   5    -50.7443088 -0.126251E-07  0.104E-03    9.26      18.8  T
   6    -50.7443088 -0.122395E-08  0.590E-04    9.26      33.2  T
speedup  1.03
cpu  time for SCC    0.01 s
wall time for SCC    0.01 s
speedup  1.02
cpu  time for grad    0.01 s
wall time for grad    0.01 s
 E :    -50.45456620  G :  0.003399    pred/act E change: -0.540D-04 -0.706D-04
Maxdispl :   0.1279   ||displ|| :   0.3111   Lambda : -0.681D-04
Largest |displ|/coords:  0.1279 (   4)  0.1140 (  17)  0.0835 (  10)
................................................................................
.............................. CYCLE   52 ......................................
................................................................................
   1    -50.7430186 -0.507430E+02  0.159E-01    9.22       0.0  T
   2    -50.7430217 -0.313833E-05  0.119E-01    9.23       1.0  T
   3    -50.7430251 -0.338747E-05  0.130E-02    9.23       1.5  T
   4    -50.7430254 -0.289678E-06  0.466E-03    9.23       4.2  T
   5    -50.7430254 -0.258073E-07  0.149E-03    9.23      13.2  T
   6    -50.7430254 -0.225902E-08  0.863E-04    9.23      22.7  T
   7    -50.7430254 -0.108732E-08  0.141E-04    9.23     139.6  T
speedup  1.00
cpu  time for SCC    0.01 s
wall time for SCC    0.01 s
speedup  0.97
cpu  time for grad    0.01 s
wall time for grad    0.02 s
 E :    -50.45460100  G :  0.005922    pred/act E change: -0.548D-04 -0.348D-04
Maxdispl :   0.0390   ||displ|| :   0.0997   Lambda : -0.703D-04
Largest |displ|/coords:  0.0390 (   4)  0.0327 (  17)  0.0304 (  31)

generating ANC from model Hessian ...
 Shifting diagonal of input Hessian by   4.903812307007806E-003
 Lowest  eigenvalues of input Hessian
   -0.000000   -0.000000    0.000000    0.000000    0.000000    0.000000
    0.005000    0.005081    0.005359    0.005648    0.005881    0.006945
    0.007896    0.008061    0.008731    0.009263    0.009472    0.010355
 Highest eigenvalues
    1.401934    1.409877    1.410218    2.571055    3.429168    3.641578
 
cpu  time for ANC gen    0.01 s
wall time for ANC gen    0.01 s
................................................................................
.............................. CYCLE   53 ......................................
................................................................................
   1    -50.7445633 -0.507446E+02  0.655E-02    9.25       0.0  T
   2    -50.7445644 -0.111301E-05  0.486E-02    9.25       1.0  T
   3    -50.7445652 -0.827661E-06  0.747E-03    9.25       2.6  T
   4    -50.7445653 -0.132350E-06  0.220E-03    9.25       8.9  T
   5    -50.7445654 -0.783353E-08  0.696E-04    9.25      28.2  T
   6    -50.7445654 -0.613333E-09  0.411E-04    9.25      47.8  T
speedup  1.02
cpu  time for SCC    0.01 s
wall time for SCC    0.01 s
speedup  1.02
cpu  time for grad    0.01 s
wall time for grad    0.01 s
 E :    -50.45464042  G :  0.005127    pred/act E change:  0.000D+00 -0.394D-04
Maxdispl :   0.0236   ||displ|| :   0.0477   Lambda : -0.583D-04
Largest |displ|/coords:  0.0236 (   5)  0.0171 (   8)  0.0141 (  10)
................................................................................
.............................. CYCLE   54 ......................................
................................................................................
   1    -50.7451183 -0.507451E+02  0.400E-02    9.26       0.0  T
   2    -50.7451186 -0.243861E-06  0.300E-02    9.26       1.0  T
   3    -50.7451188 -0.231780E-06  0.367E-03    9.26       5.3  T
   4    -50.7451188 -0.230884E-07  0.965E-04    9.26      20.3  T
   5    -50.7451188 -0.111983E-08  0.335E-04    9.26      58.6  T
speedup  1.02
cpu  time for SCC    0.00 s
wall time for SCC    0.00 s
speedup  1.01
cpu  time for grad    0.01 s
wall time for grad    0.01 s
 E :    -50.45467930  G :  0.002079    pred/act E change:  0.000D+00 -0.389D-04
Maxdispl :   0.0501   ||displ|| :   0.1054   Lambda : -0.600D-04
Largest |displ|/coords:  0.0501 (   1)  0.0474 (   8)  0.0324 (   5)
................................................................................
.............................. CYCLE   55 ......................................
................................................................................
   1    -50.7457513 -0.507458E+02  0.836E-02    9.30       0.0  T
   2    -50.7457520 -0.681737E-06  0.623E-02    9.29       1.0  T
   3    -50.7457527 -0.644499E-06  0.708E-03    9.29       2.8  T
   4    -50.7457527 -0.647765E-07  0.161E-03    9.29      12.2  T
   5    -50.7457527 -0.376257E-08  0.643E-04    9.29      30.5  T
   6    -50.7457527 -0.502617E-09  0.347E-04    9.29      56.6  T
speedup  0.85
cpu  time for SCC    0.00 s
wall time for SCC    0.01 s
speedup  0.97
cpu  time for grad    0.01 s
wall time for grad    0.01 s
 E :    -50.45470310  G :  0.003418    pred/act E change: -0.292D-04 -0.238D-04
Maxdispl :   0.0271   ||displ|| :   0.0527   Lambda : -0.276D-04
Largest |displ|/coords:  0.0271 (   5)  0.0200 (  13)  0.0169 (   8)
................................................................................
.............................. CYCLE   56 ......................................
................................................................................
   1    -50.7458121 -0.507458E+02  0.389E-02    9.30       0.0  T
   2    -50.7458123 -0.214213E-06  0.289E-02    9.30       1.0  T
   3    -50.7458125 -0.225699E-06  0.420E-03    9.30       4.7  T
   4    -50.7458125 -0.160661E-07  0.946E-04    9.30      20.7  T
   5    -50.7458125 -0.134632E-08  0.319E-04    9.30      61.4  T
speedup  0.98
cpu  time for SCC    0.00 s
wall time for SCC    0.01 s
speedup  0.96
cpu  time for grad    0.01 s
wall time for grad    0.01 s
 E :    -50.45472261  G :  0.002632    pred/act E change: -0.303D-04 -0.195D-04
Maxdispl :   0.0630   ||displ|| :   0.1160   Lambda : -0.380D-04
Largest |displ|/coords:  0.0630 (   5)  0.0396 (   3)  0.0362 (   9)
................................................................................
.............................. CYCLE   57 ......................................
................................................................................
   1    -50.7456751 -0.507457E+02  0.767E-02    9.31       0.0  T
   2    -50.7456759 -0.803246E-06  0.567E-02    9.31       1.0  T
   3    -50.7456768 -0.916770E-06  0.838E-03    9.31       2.3  T
   4    -50.7456769 -0.557807E-07  0.139E-03    9.31      14.1  T
   5    -50.7456769 -0.357958E-08  0.715E-04    9.31      27.4  T
   6    -50.7456769 -0.763606E-09  0.374E-04    9.31      52.5  T
speedup  1.02
cpu  time for SCC    0.01 s
wall time for SCC    0.01 s
speedup  0.97
cpu  time for grad    0.01 s
wall time for grad    0.01 s
 E :    -50.45475294  G :  0.001534    pred/act E change: -0.139D-04 -0.303D-04
Maxdispl :   0.1476   ||displ|| :   0.2916   Lambda : -0.725D-04
Largest |displ|/coords:  0.1476 (   5)  0.1014 (   9)  0.0947 (   3)
................................................................................
.............................. CYCLE   58 ......................................
................................................................................
   1    -50.7446353 -0.507446E+02  0.186E-01    9.28       0.0  T
   2    -50.7446400 -0.468414E-05  0.137E-01    9.28       1.0  T
   3    -50.7446455 -0.554919E-05  0.202E-02    9.28       1.0  T
   4    -50.7446458 -0.312641E-06  0.397E-03    9.28       4.9  T
   5    -50.7446459 -0.277738E-07  0.187E-03    9.28      10.5  T
   6    -50.7446459 -0.493098E-08  0.104E-03    9.28      18.9  T
   7    -50.7446459 -0.163016E-08  0.192E-04    9.28     101.9  T
   8    -50.7446459 -0.103881E-09  0.595E-05    9.28     329.8  T
speedup  1.04
cpu  time for SCC    0.01 s
wall time for SCC    0.01 s
speedup  0.99
cpu  time for grad    0.02 s
wall time for grad    0.02 s
 E :    -50.45480178  G :  0.003948    pred/act E change: -0.193D-04 -0.488D-04
Maxdispl :   0.0951   ||displ|| :   0.1938   Lambda : -0.506D-04
Largest |displ|/coords:  0.0951 (   5)  0.0798 (   9)  0.0548 (   3)
................................................................................
.............................. CYCLE   59 ......................................
................................................................................
   1    -50.7444154 -0.507444E+02  0.113E-01    9.25       0.0  T
   2    -50.7444177 -0.225276E-05  0.830E-02    9.25       1.0  T
   3    -50.7444202 -0.250034E-05  0.132E-02    9.25       1.5  T
   4    -50.7444203 -0.178691E-06  0.401E-03    9.25       4.9  T
   5    -50.7444204 -0.240103E-07  0.115E-03    9.25      17.0  T
   6    -50.7444204 -0.145259E-08  0.767E-04    9.25      25.6  T
   7    -50.7444204 -0.914284E-09  0.121E-04    9.25     162.3  T
speedup  1.04
cpu  time for SCC    0.01 s
wall time for SCC    0.01 s
speedup  0.98
cpu  time for grad    0.01 s
wall time for grad    0.02 s
 E :    -50.45483767  G :  0.005822    pred/act E change: -0.393D-04 -0.359D-04
Maxdispl :   0.0727   ||displ|| :   0.1644   Lambda : -0.731D-04
Largest |displ|/coords:  0.0727 (   9)  0.0676 (   5)  0.0456 (   7)
................................................................................
.............................. CYCLE   60 ......................................
................................................................................
   1    -50.7453681 -0.507454E+02  0.878E-02    9.24       0.0  T
   2    -50.7453698 -0.169694E-05  0.647E-02    9.24       1.0  T
   3    -50.7453716 -0.180574E-05  0.107E-02    9.24       1.8  T
   4    -50.7453717 -0.152803E-06  0.402E-03    9.24       4.9  T
   5    -50.7453718 -0.216302E-07  0.103E-03    9.24      19.1  T
   6    -50.7453718 -0.110587E-08  0.694E-04    9.24      28.3  T
speedup  0.85
cpu  time for SCC    0.00 s
wall time for SCC    0.01 s
speedup  0.94
cpu  time for grad    0.01 s
wall time for grad    0.01 s
 E :    -50.45488857  G :  0.005755    pred/act E change: -0.263D-04 -0.509D-04
Maxdispl :   0.1042   ||displ|| :   0.2376   Lambda : -0.715D-04
Largest |displ|/coords:  0.1042 (   5)  0.1024 (   9)  0.0642 (   7)
................................................................................
.............................. CYCLE   61 ......................................
................................................................................
   1    -50.7450981 -0.507451E+02  0.135E-01    9.22       0.0  T
   2    -50.7451013 -0.320970E-05  0.998E-02    9.22       1.0  T
   3    -50.7451049 -0.357557E-05  0.147E-02    9.23       1.3  T
   4    -50.7451051 -0.262718E-06  0.547E-03    9.23       3.6  T
   5    -50.7451052 -0.403304E-07  0.148E-03    9.23      13.3  T
   6    -50.7451052 -0.216814E-08  0.100E-03    9.23      19.5  T
speedup  1.03
cpu  time for SCC    0.01 s
wall time for SCC    0.01 s
speedup  1.01
cpu  time for grad    0.01 s
wall time for grad    0.01 s
 E :    -50.45493587  G :  0.005954    pred/act E change: -0.376D-04 -0.473D-04
Maxdispl :   0.0779   ||displ|| :   0.1938   Lambda : -0.131D-03
Largest |displ|/coords:  0.0779 (   4)  0.0731 (   9)  0.0638 (  13)
................................................................................
.............................. CYCLE   62 ......................................
................................................................................
   1    -50.7480663 -0.507481E+02  0.108E-01    9.31       0.0  T
   2    -50.7480693 -0.302291E-05  0.801E-02    9.31       1.0  T
   3    -50.7480721 -0.279645E-05  0.146E-02    9.31       1.3  T
   4    -50.7480725 -0.329481E-06  0.537E-03    9.31       3.7  T
   5    -50.7480725 -0.391589E-07  0.141E-03    9.31      13.9  T
   6    -50.7480725 -0.215065E-08  0.949E-04    9.31      20.7  T
speedup  1.03
cpu  time for SCC    0.01 s
wall time for SCC    0.01 s
speedup  1.01
cpu  time for grad    0.01 s
wall time for grad    0.01 s
 E :    -50.45497717  G :  0.006590    pred/act E change: -0.378D-04 -0.413D-04
Maxdispl :   0.1246   ||displ|| :   0.2920   Lambda : -0.113D-03
Largest |displ|/coords:  0.1246 (   9)  0.1179 (   5)  0.0845 (  13)
................................................................................
.............................. CYCLE   63 ......................................
................................................................................
   1    -50.7456192 -0.507456E+02  0.169E-01    9.23       0.0  T
   2    -50.7456251 -0.585077E-05  0.125E-01    9.23       1.0  T
   3    -50.7456312 -0.613459E-05  0.194E-02    9.23       1.0  T
   4    -50.7456317 -0.541679E-06  0.756E-03    9.23       2.6  T
   5    -50.7456318 -0.658354E-07  0.191E-03    9.23      10.3  T
   6    -50.7456318 -0.364179E-08  0.128E-03    9.23      15.3  T
speedup  1.00
cpu  time for SCC    0.01 s
wall time for SCC    0.01 s
speedup  1.00
cpu  time for grad    0.01 s
wall time for grad    0.01 s
 E :    -50.45504773  G :  0.006990    pred/act E change: -0.678D-04 -0.706D-04
Maxdispl :   0.0527   ||displ|| :   0.1180   Lambda : -0.132D-03
Largest |displ|/coords:  0.0527 (   9)  0.0453 (   3)  0.0318 (   4)
................................................................................
.............................. CYCLE   64 ......................................
................................................................................
   1    -50.7449297 -0.507449E+02  0.831E-02    9.27       0.0  T
   2    -50.7449314 -0.167930E-05  0.618E-02    9.27       1.0  T
   3    -50.7449329 -0.147499E-05  0.102E-02    9.27       1.9  T
   4    -50.7449331 -0.173358E-06  0.259E-03    9.27       7.6  T
   5    -50.7449331 -0.113619E-07  0.980E-04    9.27      20.0  T
speedup  0.82
cpu  time for SCC    0.00 s
wall time for SCC    0.00 s
speedup  0.99
cpu  time for grad    0.01 s
wall time for grad    0.01 s
 E :    -50.45510408  G :  0.008313    pred/act E change: -0.615D-04 -0.564D-04
Maxdispl :   0.0782   ||displ|| :   0.1886   Lambda : -0.114D-03
Largest |displ|/coords:  0.0782 (  13)  0.0768 (   9)  0.0578 (   7)
................................................................................
.............................. CYCLE   65 ......................................
................................................................................
   1    -50.7448969 -0.507449E+02  0.109E-01    9.26       0.0  T
   2    -50.7448995 -0.255550E-05  0.804E-02    9.26       1.0  T
   3    -50.7449020 -0.259266E-05  0.147E-02    9.27       1.3  T
   4    -50.7449023 -0.249938E-06  0.438E-03    9.27       4.5  T
   5    -50.7449023 -0.272059E-07  0.127E-03    9.27      15.4  T
   6    -50.7449023 -0.181787E-08  0.836E-04    9.27      23.5  T
speedup  1.03
cpu  time for SCC    0.01 s
wall time for SCC    0.01 s
speedup  1.01
cpu  time for grad    0.01 s
wall time for grad    0.01 s
 E :    -50.45518492  G :  0.005468    pred/act E change: -0.670D-04 -0.808D-04
Maxdispl :   0.1067   ||displ|| :   0.2539   Lambda : -0.144D-03
Largest |displ|/coords:  0.1067 (   3)  0.0928 (  13)  0.0843 (   7)
................................................................................
.............................. CYCLE   66 ......................................
................................................................................
   1    -50.7460388 -0.507460E+02  0.140E-01    9.31       0.0  T
[...]
 E :    -50.46712612  G :  0.000713    pred/act E change: -0.384D-05 -0.394D-05
Maxdispl :   0.0760   ||displ|| :   0.0921   Lambda : -0.632D-05
Largest |displ|/coords:  0.0760 (   2)  0.0326 (   1)  0.0162 (  19)
................................................................................
.............................. CYCLE  132 ......................................
................................................................................
   1    -50.7584402 -0.507584E+02  0.490E-02    9.17       0.0  T
   2    -50.7584404 -0.240242E-06  0.371E-02    9.17       1.0  T
   3    -50.7584407 -0.306838E-06  0.260E-03    9.17       7.6  T
   4    -50.7584408 -0.107631E-07  0.978E-04    9.17      20.0  T
   5    -50.7584408 -0.989807E-09  0.369E-04    9.17      53.2  T
speedup  1.02
cpu  time for SCC    0.00 s
wall time for SCC    0.00 s
speedup  1.02
cpu  time for grad    0.01 s
wall time for grad    0.01 s
 E :    -50.46712983  G :  0.000716    pred/act E change: -0.256D-05 -0.371D-05
Maxdispl :   0.0189   ||displ|| :   0.0259   Lambda : -0.160D-05
Largest |displ|/coords:  0.0189 (   2)  0.0100 (   1)  0.0069 (   4)
................................................................................
.............................. CYCLE  133 ......................................
................................................................................
   1    -50.7585443 -0.507585E+02  0.139E-02    9.17       0.0  T
   2    -50.7585443 -0.217867E-07  0.105E-02    9.17       1.9  T
   3    -50.7585443 -0.240341E-07  0.914E-04    9.17      21.5  T
   4    -50.7585443 -0.178379E-08  0.295E-04    9.17      66.6  T
speedup  1.03
cpu  time for SCC    0.00 s
wall time for SCC    0.00 s
speedup  1.02
cpu  time for grad    0.01 s
wall time for grad    0.01 s
 E :    -50.46713101  G :  0.000515    pred/act E change: -0.319D-05 -0.118D-05
Maxdispl :   0.0210   ||displ|| :   0.0278   Lambda : -0.139D-05
Largest |displ|/coords:  0.0210 (   2)  0.0089 (   4)  0.0071 (   1)
................................................................................
.............................. CYCLE  134 ......................................
................................................................................
   1    -50.7586830 -0.507587E+02  0.172E-02    9.17       0.0  T
   2    -50.7586831 -0.291155E-07  0.129E-02    9.17       1.5  T
   3    -50.7586831 -0.298860E-07  0.119E-03    9.17      16.5  T
   4    -50.7586831 -0.295807E-08  0.372E-04    9.17      52.7  T
   5    -50.7586831 -0.162544E-09  0.122E-04    9.17     161.3  T
speedup  1.02
cpu  time for SCC    0.00 s
wall time for SCC    0.00 s
speedup  0.95
cpu  time for grad    0.01 s
wall time for grad    0.01 s
 E :    -50.46713191  G :  0.000360    pred/act E change: -0.801D-06 -0.901D-06
Maxdispl :   0.0054   ||displ|| :   0.0099   Lambda : -0.518D-06
Largest |displ|/coords:  0.0054 (   4)  0.0037 (   2)  0.0036 (   5)
................................................................................
.............................. CYCLE  135 ......................................
................................................................................
   1    -50.7587651 -0.507588E+02  0.599E-03    9.17       0.0  T
   2    -50.7587651 -0.434964E-08  0.445E-03    9.17       4.4  T
   3    -50.7587651 -0.332595E-08  0.628E-04    9.17      31.2  T
   4    -50.7587651 -0.578730E-09  0.142E-04    9.17     138.5  T
speedup  0.98
cpu  time for SCC    0.00 s
wall time for SCC    0.00 s
speedup  1.01
cpu  time for grad    0.01 s
wall time for grad    0.01 s
 E :    -50.46713228  G :  0.000285    pred/act E change: -0.698D-06 -0.377D-06
Maxdispl :   0.0058   ||displ|| :   0.0134   Lambda : -0.554D-06
Largest |displ|/coords:  0.0058 (   4)  0.0057 (   2)  0.0051 (   1)
................................................................................
.............................. CYCLE  136 ......................................
................................................................................
   1    -50.7587511 -0.507588E+02  0.101E-02    9.17       0.0  T
   2    -50.7587511 -0.826618E-08  0.753E-03    9.17       2.6  T
   3    -50.7587511 -0.643552E-08  0.779E-04    9.17      25.2  T
   4    -50.7587511 -0.111442E-08  0.192E-04    9.17     102.3  T
speedup  1.00
cpu  time for SCC    0.00 s
wall time for SCC    0.00 s
speedup  0.94
cpu  time for grad    0.01 s
wall time for grad    0.01 s
 E :    -50.46713265  G :  0.000309    pred/act E change: -0.259D-06 -0.370D-06
Maxdispl :   0.0073   ||displ|| :   0.0140   Lambda : -0.498D-06
Largest |displ|/coords:  0.0073 (   1)  0.0071 (   5)  0.0055 (   4)
................................................................................
.............................. CYCLE  137 ......................................
................................................................................
   1    -50.7587548 -0.507588E+02  0.644E-03    9.17       0.0  T
   2    -50.7587548 -0.669394E-08  0.481E-03    9.17       4.1  T
   3    -50.7587548 -0.460462E-08  0.600E-04    9.17      32.7  T
   4    -50.7587548 -0.932637E-09  0.176E-04    9.17     111.3  T
speedup  1.00
cpu  time for SCC    0.00 s
wall time for SCC    0.00 s
speedup  1.02
cpu  time for grad    0.01 s
wall time for grad    0.01 s
 E :    -50.46713296  G :  0.000304    pred/act E change: -0.277D-06 -0.303D-06
Maxdispl :   0.0062   ||displ|| :   0.0122   Lambda : -0.360D-06
Largest |displ|/coords:  0.0062 (   1)  0.0053 (   2)  0.0040 (  14)
................................................................................
.............................. CYCLE  138 ......................................
................................................................................
   1    -50.7586603 -0.507587E+02  0.969E-03    9.17       0.0  T
   2    -50.7586603 -0.928387E-08  0.730E-03    9.17       2.7  T
   3    -50.7586603 -0.840432E-08  0.605E-04    9.17      32.4  T
   4    -50.7586603 -0.107188E-08  0.218E-04    9.17      90.1  T
speedup  1.00
cpu  time for SCC    0.00 s
wall time for SCC    0.00 s
speedup  1.02
cpu  time for grad    0.01 s
wall time for grad    0.01 s
 E :    -50.46713317  G :  0.000294    pred/act E change: -0.249D-06 -0.218D-06
Maxdispl :   0.0037   ||displ|| :   0.0065   Lambda : -0.223D-06
Largest |displ|/coords:  0.0037 (   5)  0.0033 (   1)  0.0023 (   8)
................................................................................
.............................. CYCLE  139 ......................................
................................................................................
   1    -50.7586271 -0.507586E+02  0.345E-03    9.17       0.0  T
   2    -50.7586272 -0.208988E-08  0.256E-03    9.17       7.7  T
   3    -50.7586272 -0.147180E-08  0.411E-04    9.17      47.7  T
   4    -50.7586272 -0.276124E-09  0.970E-05    9.17     202.1  T
speedup  0.98
cpu  time for SCC    0.00 s
wall time for SCC    0.00 s
speedup  1.01
cpu  time for grad    0.01 s
wall time for grad    0.01 s
 E :    -50.46713333  G :  0.000232    pred/act E change: -0.180D-06 -0.152D-06
Maxdispl :   0.0029   ||displ|| :   0.0054   Lambda : -0.161D-06
Largest |displ|/coords:  0.0029 (   8)  0.0026 (   5)  0.0014 (   1)
................................................................................
.............................. CYCLE  140 ......................................
................................................................................
   1    -50.7586198 -0.507586E+02  0.376E-03    9.17       0.0  T
   2    -50.7586198 -0.259858E-08  0.281E-03    9.17       7.0  T
   3    -50.7586199 -0.177286E-08  0.440E-04    9.17      44.6  T
   4    -50.7586199 -0.372026E-09  0.117E-04    9.17     168.0  T
speedup  0.98
cpu  time for SCC    0.00 s
wall time for SCC    0.00 s
speedup  1.02
cpu  time for grad    0.01 s
wall time for grad    0.01 s
 E :    -50.46713343  G :  0.000170    pred/act E change: -0.112D-06 -0.108D-06
Maxdispl :   0.0034   ||displ|| :   0.0069   Lambda : -0.136D-06
Largest |displ|/coords:  0.0034 (   5)  0.0031 (   1)  0.0025 (   2)
................................................................................
.............................. CYCLE  141 ......................................
................................................................................
   1    -50.7586646 -0.507587E+02  0.379E-03    9.17       0.0  T
   2    -50.7586646 -0.230759E-08  0.286E-03    9.17       6.9  T
   3    -50.7586646 -0.193477E-08  0.302E-04    9.17      64.8  T
   4    -50.7586646 -0.298023E-09  0.108E-04    9.17     182.4  T
speedup  1.00
cpu  time for SCC    0.00 s
wall time for SCC    0.00 s
speedup  1.02
cpu  time for grad    0.01 s
wall time for grad    0.01 s
 E :    -50.46713353  G :  0.000188    pred/act E change: -0.803D-07 -0.918D-07
Maxdispl :   0.0037   ||displ|| :   0.0077   Lambda : -0.145D-06
Largest |displ|/coords:  0.0037 (   8)  0.0035 (   4)  0.0032 (   5)

   *** GEOMETRY OPTIMIZATION CONVERGED AFTER 141 ITERATIONS ***

------------------------------------------------------------------------
 total energy gain (kcal):     -0.5774
------------------------------------------------------------------------
================
 final structure:
================
$coord
       -1.94855869890028        2.29336921015820        1.39770352309956      S 
       -2.06401359576558        1.22468817309153       -1.13377746798718      O 
       -3.89384108663087        1.21081583997793        3.01192599902048      O 
        0.55500564534458        2.15995271959165        2.49021283670926      O 
       -2.56630340062237        5.20751801349661        1.14010425074545      O 
       -4.22048689593166        5.23836154758613        0.43382455884207      H 
       -3.37652969807979       -3.59463245685916       -2.27830405550406      O 
       -3.35350101564879       -1.75299055891279       -2.18733577731509      H 
        5.41121167650015        1.19090200287250       -3.80841234086117      O 
        5.19776035554179        1.74497029079429       -5.51921846708620      H 
        2.03922235607300       -2.71893294119078        2.69156597420417      O 
        2.29898699795057       -2.78288076006581        0.84405281203216      H 
        1.89313016546828       -0.91714122929723        3.03813643157028      H 
        3.12025969415862        4.74128856734505       -0.93440403090410      O 
        4.04050171624644        5.98862689494730        0.00408779328260      H 
        4.71775751873924        2.54068478109565       -2.74599059309139      H 
        2.13064770702342        3.80009880271510        0.31171732420405      H 
        1.75466200617603       -2.02124929993387       -2.25972460453959      O 
       -1.72876760237009       -4.01932793740391       -2.93907513321665      H 
        0.53731276574272       -0.66404782423929       -1.98630695655126      H 
        3.27059443936296       -1.16845429606914       -2.88834191400252      H 
       -2.79595268494640       -3.59774507572951        2.70129371001190      N 
       -3.59334785463038       -4.87392683034951        3.88706131762924      H 
       -0.76862892906799       -3.51023482759342        2.89028854676386      H 
       -3.20740551290229       -3.97712604889497        0.78420936133010      H 
       -3.44971605000021       -1.74258675715866        3.05470692049658      H 
$end
 
 Bond Distances (Angstroems)
 ---------------------------
S1-O2=1.4554         S1-O3=1.4552         S1-O4=1.4472         S1-O5=1.5823         O2-S1=1.4554         O3-S1=1.4552         
O4-S1=1.4472         O5-S1=1.5823         O5-H6=0.9519         H6-O5=0.9519         O7-H8=0.9758         O7-H19=0.9660        
H8-O7=0.9758         O9-H10=0.9583        O9-H16=0.9803        H10-O9=0.9583        O11-H12=0.9879       O11-H13=0.9740       
H12-O11=0.9879       H13-O11=0.9740       O14-H15=0.9589       O14-H17=0.9783       H15-O14=0.9589       H16-O9=0.9803        
H17-O14=0.9783       O18-H20=0.9756       O18-H21=0.9787       H19-O7=0.9660        H20-O18=0.9756       H21-O18=0.9787       
N22-H23=1.0138       N22-H24=1.0785       N22-H25=1.0568       N22-H26=1.0575       H23-N22=1.0138       H24-N22=1.0785       
H25-N22=1.0568       H26-N22=1.0575       
 N  H  Rav=1.0517 sigma=0.0235  Rmin=1.0138  Rmax=1.0785     4
 O  H  Rav=0.9714 sigma=0.0106  Rmin=0.9519  Rmax=0.9879    11
 S  O  Rav=1.4850 sigma=0.0562  Rmin=1.4472  Rmax=1.5823     4
 
 selected bond angles (degree)
 --------------------
O3-S1-O2=110.96                O4-S1-O2=112.78                O4-S1-O3=113.20                O5-S1-O2=106.90                
O5-S1-O3=106.74                O5-S1-O4=105.73                H6-O5-S1=103.92                H19-O7-H8=103.82               
H16-O9-H10=105.95              
 
 selected dihedral angles (degree)
 ---------------------------------
H6-O5-S1-O2= 60.08            H6-O5-S1-O3=301.28            H6-O5-S1-O4=180.48            
 
 CMA Distance (Angstroems)
 ---------------------------
R(CMA):  2.6251

========================================================================
 FINAL SINGLEPOINT CALCULATION ON OPTIMIZED GEOMETRY
========================================================================

 Ncao       : 65
 Nao        : 64
 Nshell     : 38
 Nel        : 80
 T(el)      :   300.0
 intcut     :    25.0
 scfconv/Eh :  0.100E-05
   qconv/e  :  0.100E-03
 intneglect :  0.100E-07
 broydamp   :      0.250
 iter      E             dE          RMSdq      gap      omega  full diag
   1    -50.7586646 -0.507587E+02  0.375E-05    9.17       0.0  T
   2    -50.7586646 -0.105871E-11  0.239E-05    9.17     821.1  T
   3    -50.7586646 -0.554223E-12  0.410E-06    9.17    4786.9  T
speedup  0.97
cpu  time for SCC    0.00 s
wall time for SCC    0.00 s

   *** convergence criteria satisfied after 3 iterations ***

          eigenvalues
 #    :          28         29         30         31         32         33         34         35
 occ. :        2.000      2.000      2.000      2.000      2.000      2.000      2.000      2.000
 eps  :       -13.552    -13.327    -12.619    -12.546    -12.428    -12.278    -12.217    -12.094
 #    :          36         37         38         39         40         41         42         43
 occ. :        2.000      2.000      2.000      2.000      2.000      0.000      0.000      0.000
 eps  :       -12.011    -11.901    -11.884    -11.699    -11.646     -2.480     -0.711     -0.505
 #    :          44         45         46         47         48         49         50         51
 occ. :        0.000      0.000      0.000      0.000      0.000      0.000      0.000      0.000
 eps  :         0.818      0.937      1.467      2.519      2.782      3.780      3.951      5.164


   #   Z            q   n(s)   n(p)   n(d)      C6AA      α(0)
   1  16 S      1.687  1.583  1.779  0.950    89.057    15.883
   2   8 O     -0.761  1.771  4.990  0.000    30.428     7.396
   3   8 O     -0.737  1.768  4.969  0.000    29.748     7.313
   4   8 O     -0.730  1.767  4.963  0.000    29.535     7.286
   5   8 O     -0.584  1.749  4.836  0.000    24.780     6.720
   6   1 H      0.345  0.655  0.000  0.000     0.592     1.205
   7   8 O     -0.598  1.747  4.851  0.000    25.132     6.766
   8   1 H      0.326  0.674  0.000  0.000     0.647     1.264
   9   8 O     -0.608  1.749  4.858  0.000    25.370     6.798
  10   1 H      0.280  0.720  0.000  0.000     0.785     1.392
  11   8 O     -0.617  1.757  4.859  0.000    25.583     6.827
  12   1 H      0.334  0.666  0.000  0.000     0.629     1.246
  13   1 H      0.318  0.682  0.000  0.000     0.669     1.285
  14   8 O     -0.614  1.741  4.873  0.000    25.523     6.818
  15   1 H      0.288  0.712  0.000  0.000     0.757     1.367
  16   1 H      0.328  0.672  0.000  0.000     0.644     1.260
  17   1 H      0.317  0.683  0.000  0.000     0.672     1.288
  18   8 O     -0.652  1.758  4.894  0.000    26.469     6.944
  19   1 H      0.319  0.681  0.000  0.000     0.668     1.283
  20   1 H      0.312  0.688  0.000  0.000     0.685     1.300
  21   1 H      0.324  0.676  0.000  0.000     0.654     1.270
  22   7 N     -0.364  1.282  4.082  0.000    29.364     8.048
  23   1 H      0.228  0.772  0.000  0.000     0.976     1.547
  24   1 H      0.293  0.707  0.000  0.000     0.734     1.342
  25   1 H      0.285  0.715  0.000  0.000     0.759     1.365
  26   1 H      0.280  0.720  0.000  0.000     0.775     1.379

 Mol. C6AA /au·bohr⁶  :       5448.718426
 Mol. C8AA /au·bohr⁸  :     117883.515309
 Mol. α(0) /au        :        106.592295

 
 Wiberg/Mayer (AO) data. WBOs > 0.1 written file <wbo>
 largest (>0.05) Wiberg bond orders for each atom
           total WBO             WBO to atom ...
     1  S   4.846    O    4 1.322    O    3 1.297    O    2 1.292    O    5 0.899
     2  O   1.700    S    1 1.292    O    3 0.111    O    4 0.110    O    5 0.074
     3  O   1.739    S    1 1.297    O    2 0.111    O    4 0.107    H   26 0.101    O    5 0.073
     4  O   1.749    S    1 1.322    O    2 0.110    O    3 0.107    O    5 0.061    H   17 0.061
     5  O   1.979    S    1 0.899    H    6 0.864    O    2 0.074    O    3 0.073    O    4 0.061
     6  H   0.881    O    5 0.864
     7  O   1.926    H   19 0.885    H    8 0.852    H   25 0.104    N   22 0.054
     8  H   0.893    O    7 0.852
     9  O   1.866    H   10 0.919    H   16 0.835    H   21 0.055
    10  H   0.922    O    9 0.919
    11  O   1.949    H   13 0.858    H   12 0.818    H   24 0.147    N   22 0.070
    12  H   0.889    O   11 0.818    O   18 0.069
    13  H   0.899    O   11 0.858
    14  O   1.860    H   15 0.913    H   17 0.835    H   16 0.056
    15  H   0.917    O   14 0.913
    16  H   0.893    O    9 0.835    O   14 0.056
    17  H   0.900    O   14 0.835    O    4 0.061
    18  O   1.860    H   20 0.852    H   21 0.836    H   12 0.069
    19  H   0.898    O    7 0.885
    20  H   0.902    O   18 0.852
    21  H   0.895    O   18 0.836    O    9 0.055
    22  N   3.511    H   23 0.944    H   26 0.812    H   25 0.810    H   24 0.763    O   11 0.070    O    7 0.054
    23  H   0.948    N   22 0.944
    24  H   0.914    N   22 0.763    O   11 0.147
    25  H   0.919    N   22 0.810    O    7 0.104
    26  H   0.921    N   22 0.812    O    3 0.101
 MOs/occ written to file <molden.input>
 
molecular dipole:
                 x           y           z       tot (Debye)
 q only:       -0.910      -1.117       0.256
   full:       -1.041       0.005       0.163       2.679
molecular quadrupole (traceless):
                xx          xy          yy          xz          yz          zz
 q only:       -3.998       7.781       6.330      -3.683      -9.898      -2.332
  q+dip:       -5.137       6.979       6.549      -4.474      -9.110      -1.412
   full:       -5.297       6.819       7.047      -4.734      -9.144      -1.749

SCC energy    :     -50.7586646
rep           :       0.2912356
ES            :       0.2619486
AES           :      -0.0733872
AXC           :      -0.0087139
disp          :      -0.0195854
XB            :       0.0000000
fix           :       0.0000000
total E       :     -50.4671335
atomizationE  :       4.9974377     3135.94
(atE without considering molecular charge,
 total energy contains solvation terms)
H-L gap (eV)  :          9.1660
optimized geometry written to: xtbopt.xyz


------------------------------------------------------------------------
 * finished run on 2019/09/16 at 12:16:15.908     
------------------------------------------------------------------------
 total:
 * wall-time:     0 d,  0 h,  0 min,  4.711 sec
 *  cpu-time:     0 d,  0 h,  0 min,  4.671 sec
 * ratio c/w:     0.992 speedup
 SCF:
 * wall-time:     0 d,  0 h,  0 min,  0.517 sec
 *  cpu-time:     0 d,  0 h,  0 min,  0.513 sec
 * ratio c/w:     0.993 speedup
 ANC optimizer:
 * wall-time:     0 d,  0 h,  0 min,  4.139 sec
 *  cpu-time:     0 d,  0 h,  0 min,  4.107 sec
 * ratio c/w:     0.992 speedup

