      -----------------------------------------------------------      
     |                   =====================                   |     
     |                           x T B                           |     
     |                   =====================                   |     
     |                         S. Grimme                         |     
     |          Mulliken Center for Theoretical Chemistry        |     
     |                    University of Bonn                     |     
     |                 Version 6.0.1 (SAW181210)                 |     
      -----------------------------------------------------------      

   This program is distributed in the hope that it will be useful,
   but WITHOUT ANY WARRANTY; without even the implied warranty of
   MERCHANTABILITY or FITNESS FOR A PARTICULAR PURPOSE.
   
   FOR NON-COMMERCIAL, ACADEMIA USE ONLY.
   
   Cite this work as:
   S. Grimme, C. Bannwarth, P. Shushkov, J. Comput. Theory Chem., 2017,
   13, 1989-2009.
   C. Bannwarth, S. Ehlert and S. Grimme., ChemRxiv, 2018, preprint.
   http://doi.org/10.26434/chemrxiv.7246238.v1
   
   for sTDA-xTB:
   S. Grimme and C. Bannwarth, J. Chem. Phys., 2016, 145, 054103.
   
   in the mass-spec context:
   V. Asgeirsson, C. Bauer and S. Grimme, Chem. Sci., 2017, 8, 4879.
   
   if GBSA is used:
   P. Shushkov, F. März and S. Grimme, unpublished.
   
   for ANC optimizer:
   S. Grimme, unpublished.
   Rational Function algorithm used in ANCopt:
   F. Eckert, P. Pulay, H.-J. Werner, J. Comput. Chem., 1997, 18, 1473.
   
   with help from (in alphabetical order)
   C. Bannwarth, F. Bohle, G. Brandenburg, E. Caldeweyher, M. Checinski,
   S. Dohm, S. Ehlert, S. Ehrlich, F. März, H. Neugebauer, J. Pisarek,
   P. Pracht, P. Shushkov, and S. Spicher.
   
 * started run on 2019/09/16 at 12:28:07.083     
========================================================================
 # omp threads = 1
========================================================================
number of atoms            : 26
number of electrons        : 80
charge                     : 0
spin                       : .0
first test random number   : .6348

########################################################################
# WARNING! Please study the warnings concerning your input carefully
#  - XTBPATH is not set, using XTBHOME instead
#  - the use of '-opt' is discouraged, please use '--opt' next time
#  - the use of '-chrg' is discouraged, please use '--chrg' next time
#  - the use of '-uhf' is discouraged, please use '--uhf' next time
########################################################################

           ------------------------------------------------- 
          |                 G F N 2 - x T B                 |
          | Geometry, Frequencies, Noncovalent interactions |
          |            JCTC 2018 parametrisation            |
           ------------------------------------------------- 
      method parameters     
 k(s)        :  1.8500
 k(p)        :  2.2300
 k(d)        :  2.2300
 k(f)        :  2.0000
 kEN (H0ij)  : -2.0000
 D4 a1       :  0.5200
 D4 a2       :  5.0000
 D4 s6       :  1.0000
 D4 s8       :  2.7000
 D4 s9       :  5.0000
 alphaj      :  2.0000


            Z     q(EN)     CN     RAES       Cart. coordinates
     1  S   6.0    0.64    4.27    4.18     2.08460     1.72324    -3.97593
     2  O   6.0   -0.31    1.22    1.80     0.40756     3.92685    -4.48559
     3  O   6.0   -0.32    1.23    1.80     3.20221     1.96953    -1.40330
     4  O   6.0   -0.31    1.22    1.80     0.58206    -0.65350    -4.12289
     5  O   6.0   -0.25    2.08    1.84     4.11833     1.65107    -5.86570
     6  H   1.0    0.15    1.21    1.47     5.08695     3.18210    -5.77168
     7  O   6.0   -0.36    1.52    1.80     1.26716    -5.27798     2.16602
     8  H   1.0    0.17    0.94    1.42     1.95965    -7.00974     2.09354
     9  O   6.0   -0.39    1.70    1.81    -3.03474     0.57939     1.64703
    10  H   1.0    0.17    0.95    1.42    -4.32436     0.35728     2.97793
    11  O   6.0   -0.30    2.09    1.84     2.94553    -2.66981     5.55086
    12  H   1.0    0.15    0.97    1.43     3.69134    -3.77226     6.79302
    13  H   1.0    0.18    1.18    1.46     2.31054    -3.77194     4.24829
    14  O   6.0   -0.22    2.92    2.58     1.28044     1.18270     3.05441
    15  H   1.0    0.14    1.07    1.44     1.94210    -0.25509     4.04678
    16  H   1.0    0.16    1.06    1.44     2.30185     1.50650     1.52409
    17  H   1.0    0.16    1.19    1.46    -0.53341     0.98009     2.65392
    18  O   6.0   -0.23    2.94    2.64    -1.65211    -3.19955    -0.54761
    19  H   1.0    0.17    1.24    1.48    -0.52422    -4.22739     0.53002
    20  H   1.0    0.16    1.18    1.46    -2.42579    -1.78549     0.39677
    21  H   1.0    0.16    1.05    1.44    -0.79370    -2.61552    -2.10117
    22  N   5.0   -0.15    3.94    2.72    -3.97840     3.63591    -1.88176
    23  H   1.0    0.13    1.17    1.46    -3.60134     2.41183    -0.41756
    24  H   1.0    0.12    1.09    1.44    -2.36379     3.90696    -2.93249
    25  H   1.0    0.09    0.99    1.43    -5.37012     2.88360    -3.01385
    26  H   1.0    0.08    0.99    1.43    -4.57834     5.34123    -1.16316

  Z AO/shell   Hii/eV     exponent
  1     Wed Apr 25 08:07:45 CEST 2018   EN: 2.200 GM2: 0.406  GM3: 0.0800  RAES: 1.40
     1s    -10.707211    1.230000
  7     Wed Apr 25 08:07:45 CEST 2018   EN: 3.040 GM2: 0.461  GM3:-0.0640  RAES: 1.90
     2s    -16.686243    2.339881
     2p    -12.523956    2.014332
  8     Wed Apr 25 08:07:45 CEST 2018   EN: 3.440 GM2: 0.452  GM3:-0.0517  RAES: 1.80
     2s    -20.229985    2.439742
     2p    -15.503117    2.137023
 16     Tue Apr 24 11:44:34 CEST 2018   EN: 2.580 GM2: 0.340  GM3:-0.0502  RAES: 3.10
     3s    -20.029654    1.981333
     3p    -11.377694    2.025643
     3d     -0.420282    1.702555
 no old-style atom pair restraining (fixing) potential

molecular fragmentation (1/2 indicates fragments):
11111122222222222222222222
# atoms in fragment 1/2:     6    20
 fragment masses (1/2) :       97.07      108.11
CMA distance (Bohr)    :   6.793
constraining FC (au)   :  0.0500
           ------------------------------------------------- 
          |        Self-Consistent Charge Iterations        |
           ------------------------------------------------- 

 Ncao       : 65
 Nao        : 64
 Nshell     : 38
 Nel        : 80
 T(el)      :   300.0
 intcut     :    25.0
 scfconv/Eh :  0.100E-05
   qconv/e  :  0.100E-03
 intneglect :  0.100E-07
 broydamp   :      0.250
 iter      E             dE          RMSdq      gap      omega  full diag
   1    -50.5290232 -0.505290E+02  0.707E+00   10.36       0.0  T
   2    -50.5800962 -0.510729E-01  0.510E+00    9.17       1.0  T
   3    -50.6210899 -0.409937E-01  0.133E+00    5.51       1.0  T
   4    -50.6260514 -0.496157E-02  0.603E-01    5.85       1.0  T
   5    -50.6268110 -0.759512E-03  0.303E-01    5.78       1.0  T
   6    -50.6272178 -0.406851E-03  0.135E-01    5.87       1.0  T
   7    -50.6273196 -0.101745E-03  0.458E-02    5.90       1.0  T
   8    -50.6273284 -0.883235E-05  0.305E-02    5.89       1.0  T
   9    -50.6273344 -0.601692E-05  0.790E-03    5.91       2.5  T
  10    -50.6273347 -0.330164E-06  0.210E-03    5.91       9.3  T
  11    -50.6273348 -0.182603E-07  0.103E-03    5.91      19.0  T
  12    -50.6273348 -0.397041E-08  0.359E-04    5.91      54.7  T
  13    -50.6273348 -0.602810E-09  0.138E-04    5.91     142.5  T
speedup  0.97
cpu  time for SCC    0.02 s
wall time for SCC    0.02 s

   *** convergence criteria satisfied after 13 iterations ***

          eigenvalues
 #    :          28         29         30         31         32         33         34         35
 occ. :        2.000      2.000      2.000      2.000      2.000      2.000      2.000      2.000
 eps  :       -12.683    -12.006    -11.818    -11.766    -11.232    -11.188    -11.070    -10.979
 #    :          36         37         38         39         40         41         42         43
 occ. :        2.000      2.000      2.000      2.000      2.000      0.000      0.000      0.000
 eps  :       -10.948    -10.845    -10.711     -8.267     -7.952     -2.042     -1.251     -0.189
 #    :          44         45         46         47         48         49         50         51
 occ. :        0.000      0.000      0.000      0.000      0.000      0.000      0.000      0.000
 eps  :         0.354      0.823      1.375      2.448      2.857      3.349      3.764      5.030


   #   Z            q   n(s)   n(p)   n(d)      C6AA      α(0)
   1  16 S      1.592  1.584  1.843  0.981    91.254    16.078
   2   8 O     -0.760  1.774  4.986  0.000    30.408     7.393
   3   8 O     -0.754  1.769  4.985  0.000    30.222     7.371
   4   8 O     -0.724  1.764  4.960  0.000    29.363     7.265
   5   8 O     -0.538  1.719  4.819  0.000    23.713     6.574
   6   1 H      0.359  0.641  0.000  0.000     0.559     1.170
   7   8 O     -0.894  1.831  5.063  0.000    34.503     7.878
   8   1 H      0.168  0.832  0.000  0.000     1.297     1.790
   9   8 O     -0.836  1.826  5.010  0.000    32.646     7.663
  10   1 H      0.222  0.778  0.000  0.000     1.011     1.580
  11   8 O     -0.668  1.739  4.928  0.000    26.867     6.996
  12   1 H      0.268  0.732  0.000  0.000     0.824     1.426
  13   1 H      0.344  0.656  0.000  0.000     0.598     1.212
  14   8 O     -0.465  1.660  4.805  0.000    22.090     6.348
  15   1 H      0.416  0.584  0.000  0.000     0.456     1.060
  16   1 H      0.399  0.601  0.000  0.000     0.486     1.095
  17   1 H      0.399  0.601  0.000  0.000     0.481     1.087
  18   8 O     -0.492  1.673  4.819  0.000    22.659     6.429
  19   1 H      0.400  0.600  0.000  0.000     0.476     1.079
  20   1 H      0.382  0.618  0.000  0.000     0.513     1.123
  21   1 H      0.379  0.621  0.000  0.000     0.526     1.140
  22   7 N     -0.302  1.260  4.043  0.000    27.765     7.826
  23   1 H      0.319  0.681  0.000  0.000     0.658     1.270
  24   1 H      0.301  0.699  0.000  0.000     0.710     1.320
  25   1 H      0.244  0.756  0.000  0.000     0.907     1.492
  26   1 H      0.239  0.761  0.000  0.000     0.927     1.508

 Mol. C6AA /au·bohr⁶  :       5527.712593
 Mol. C8AA /au·bohr⁸  :     119897.990730
 Mol. α(0) /au        :        107.171391

 
 Wiberg/Mayer (AO) data. WBOs > 0.1 written file <wbo>
 largest (>0.05) Wiberg bond orders for each atom
           total WBO             WBO to atom ...
     1  S   4.924    O    4 1.331    O    3 1.283    O    2 1.269    O    5 1.002
     2  O   1.692    S    1 1.269    O    4 0.112    O    3 0.112    H   24 0.085    O    5 0.071
     3  O   1.688    S    1 1.283    O    4 0.115    O    2 0.112    H   16 0.079    O    5 0.071
     4  O   1.716    S    1 1.331    O    3 0.115    O    2 0.112    H   21 0.067    O    5 0.054
     5  O   2.053    S    1 1.002    H    6 0.847    O    2 0.071    O    3 0.071    O    4 0.054
     6  H   0.870    O    5 0.847
     7  O   1.455    H    8 0.959    H   19 0.214    H   13 0.149    O   18 0.064    O   11 0.057
     8  H   0.972    O    7 0.959
     9  O   1.663    H   10 0.943    H   17 0.183    H   23 0.168    H   20 0.167    N   22 0.071    O   14 0.060    O   18 0.058
    10  H   0.951    O    9 0.943
    11  O   1.808    H   12 0.908    H   13 0.729    H   15 0.080    O    7 0.057
    12  H   0.928    O   11 0.908
    13  H   0.882    O   11 0.729    O    7 0.149
    14  O   2.280    H   16 0.753    H   15 0.736    H   17 0.655    O    9 0.060
    15  H   0.827    O   14 0.736    O   11 0.080
    16  H   0.841    O   14 0.753    O    3 0.079
    17  H   0.841    O   14 0.655    O    9 0.183
    18  O   2.247    H   21 0.780    H   20 0.683    H   19 0.617    O    7 0.064    O    9 0.058
    19  H   0.840    O   18 0.617    O    7 0.214
    20  H   0.854    O   18 0.683    O    9 0.167
    21  H   0.857    O   18 0.780    O    4 0.067
    22  N   3.539    H   26 0.939    H   25 0.936    H   24 0.816    H   23 0.726    O    9 0.071
    23  H   0.898    N   22 0.726    O    9 0.168
    24  H   0.909    N   22 0.816    O    2 0.085
    25  H   0.940    N   22 0.936
    26  H   0.943    N   22 0.939
 MOs/occ written to file <molden.input>
 
molecular dipole:
                 x           y           z       tot (Debye)
 q only:       -2.390       2.982      -0.212
   full:       -1.881       2.681      -0.549       8.440
molecular quadrupole (traceless):
                xx          xy          yy          xz          yz          zz
 q only:       15.359      -6.478      -6.882       3.037       0.766      -8.478
  q+dip:       15.549      -8.651      -6.970      -1.336      -5.426      -8.579
   full:       15.516      -8.784      -6.948      -1.470      -5.464      -8.568

SCC energy    :     -50.6273348
rep           :       0.2818306
ES            :       0.3510313
AES           :      -0.0739217
AXC           :      -0.0086992
disp          :      -0.0175921
XB            :       0.0000000
fix           :       0.0000000
total E       :     -50.3452298
atomizationE  :       4.8755339     3059.44
(atE without considering molecular charge,
 total energy contains solvation terms)
H-L gap (eV)  :          5.9099
           ------------------------------------------------- 
          |                 ===============                 |
          |                   A N C O P T                   |
          |                 ===============                 |
          |          Approximate Normal Coordinate          |
          |           Rational Function Optimizer           |
           ------------------------------------------------- 
dumping coords to <xtbopt.coord> and <xtbopt.log>
 optlevel               2
 Maxcycle             520
 Maxmicro              25
 Econv         1.000000000000000E-007
 Gconv         2.000000000000000E-004
 Maxdispl       1.00000000000000     
 Hlow          5.000000000000000E-003
 S6             20.0000000000000     
 Nvar               72

generating ANC from model Hessian ...
 Shifting diagonal of input Hessian by   5.144065620228563E-003
 Lowest  eigenvalues of input Hessian
    0.005000    0.005120   -0.000000   -0.000000   -0.000000    0.000000
    0.000000    0.000000    0.005584    0.005847    0.006012    0.006829
    0.007557    0.007825    0.008346    0.008821    0.009547    0.011557
 Highest eigenvalues
    1.575449    1.589833    1.606879    3.144599    3.219755    3.318265
 
cpu  time for ANC gen    0.02 s
wall time for ANC gen    0.02 s
................................................................................
.............................. CYCLE    1 ......................................
................................................................................
   1    -50.6273348 -0.506273E+02  0.705E-05    5.91       0.0  T
   2    -50.6273348 -0.113758E-10  0.527E-05    5.91     372.2  T
   3    -50.6273348 -0.107860E-10  0.222E-05    5.91     882.8  T
speedup  0.97
cpu  time for SCC    0.00 s
wall time for SCC    0.00 s
speedup  1.05
cpu  time for grad    0.01 s
wall time for grad    0.01 s
 E :    -50.34522973  G :  0.232531    pred/act E change:  0.000D+00  0.382D-07
Maxdispl :   0.0942   ||displ|| :   0.2842   Lambda : -0.405D-01
Largest |displ|/coords:  0.0942 (  56)  0.0891 (  21)  0.0835 (  27)
................................................................................
.............................. CYCLE    2 ......................................
................................................................................
   1    -50.6388267 -0.506388E+02  0.286E-01    6.01       0.0  T
   2    -50.6391342 -0.307544E-03  0.210E-01    6.12       1.0  T
   3    -50.6392680 -0.133782E-03  0.930E-02    6.30       1.0  T
   4    -50.6392800 -0.120074E-04  0.184E-02    6.33       1.1  T
   5    -50.6392810 -0.945898E-06  0.622E-03    6.32       3.2  T
   6    -50.6392810 -0.485203E-07  0.316E-03    6.32       6.2  T
   7    -50.6392810 -0.228540E-07  0.107E-03    6.32      18.3  T
speedup  1.04
cpu  time for SCC    0.01 s
wall time for SCC    0.01 s
speedup  1.03
cpu  time for grad    0.01 s
wall time for grad    0.01 s
 E :    -50.37648590  G :  0.138839    pred/act E change:  0.000D+00 -0.313D-01
Maxdispl :   0.1087   ||displ|| :   0.2950   Lambda : -0.178D-01
Largest |displ|/coords:  0.1087 (  19)  0.1034 (  21)  0.0959 (  27)
................................................................................
.............................. CYCLE    3 ......................................
................................................................................
   1    -50.6450284 -0.506450E+02  0.250E-01    6.42       0.0  T
   2    -50.6453450 -0.316565E-03  0.179E-01    6.54       1.0  T
   3    -50.6454754 -0.130411E-03  0.849E-02    6.73       1.0  T
   4    -50.6454828 -0.736347E-05  0.159E-02    6.76       1.2  T
   5    -50.6454836 -0.838938E-06  0.507E-03    6.75       3.9  T
   6    -50.6454836 -0.360627E-07  0.281E-03    6.75       7.0  T
speedup  1.00
cpu  time for SCC    0.01 s
wall time for SCC    0.01 s
speedup  1.01
cpu  time for grad    0.01 s
wall time for grad    0.01 s
 E :    -50.39108586  G :  0.095201    pred/act E change: -0.219D-01 -0.146D-01
Maxdispl :   0.1037   ||displ|| :   0.2912   Lambda : -0.103D-01
Largest |displ|/coords:  0.1037 (   8)  0.1012 (  21)  0.0882 (   9)
................................................................................
.............................. CYCLE    4 ......................................
................................................................................
   1    -50.6488456 -0.506488E+02  0.247E-01    6.81       0.0  T
   2    -50.6491494 -0.303787E-03  0.176E-01    6.96       1.0  T
   3    -50.6492799 -0.130472E-03  0.787E-02    7.17       1.0  T
   4    -50.6492885 -0.863799E-05  0.152E-02    7.20       1.3  T
   5    -50.6492894 -0.853234E-06  0.501E-03    7.19       3.9  T
   6    -50.6492894 -0.369562E-07  0.290E-03    7.19       6.8  T
speedup  1.03
cpu  time for SCC    0.01 s
wall time for SCC    0.01 s
speedup  0.96
cpu  time for grad    0.01 s
wall time for grad    0.01 s
 E :    -50.39981456  G :  0.073461    pred/act E change: -0.969D-02 -0.873D-02
Maxdispl :   0.1211   ||displ|| :   0.3299   Lambda : -0.811D-02
Largest |displ|/coords:  0.1211 (   4)  0.1147 (   8)  0.1002 (   1)
................................................................................
.............................. CYCLE    5 ......................................
................................................................................
   1    -50.6536660 -0.506537E+02  0.290E-01    7.28       0.0  T
   2    -50.6539186 -0.252620E-03  0.213E-01    7.43       1.0  T
   3    -50.6540304 -0.111858E-03  0.771E-02    7.68       1.0  T
   4    -50.6540474 -0.169693E-04  0.147E-02    7.68       1.3  T
   5    -50.6540482 -0.793882E-06  0.554E-03    7.67       3.5  T
   6    -50.6540482 -0.359410E-07  0.302E-03    7.67       6.5  T
speedup  1.05
cpu  time for SCC    0.01 s
wall time for SCC    0.01 s
speedup  1.04
cpu  time for grad    0.01 s
wall time for grad    0.01 s
 E :    -50.40616601  G :  0.064334    pred/act E change: -0.557D-02 -0.635D-02
Maxdispl :   0.1364   ||displ|| :   0.3899   Lambda : -0.984D-02
Largest |displ|/coords:  0.1364 (   3)  0.1325 (   4)  0.1240 (   2)
................................................................................
.............................. CYCLE    6 ......................................
................................................................................
   1    -50.6607564 -0.506608E+02  0.384E-01    7.71       0.0  T
   2    -50.6610742 -0.317763E-03  0.282E-01    7.88       1.0  T
   3    -50.6612236 -0.149408E-03  0.889E-02    8.19       1.0  T
   4    -50.6612526 -0.289703E-04  0.154E-02    8.17       1.3  T
   5    -50.6612533 -0.677003E-06  0.656E-03    8.16       3.0  T
   6    -50.6612533 -0.393811E-07  0.348E-03    8.16       5.6  T
   7    -50.6612533 -0.204314E-07  0.820E-04    8.16      23.9  T
speedup  1.06
cpu  time for SCC    0.01 s
wall time for SCC    0.01 s
speedup  1.03
cpu  time for grad    0.01 s
wall time for grad    0.01 s
 E :    -50.41288434  G :  0.059833    pred/act E change: -0.450D-02 -0.672D-02
Maxdispl :   0.0921   ||displ|| :   0.3159   Lambda : -0.926D-02
Largest |displ|/coords:  0.0921 (   8)  0.0884 (  69)  0.0884 (   4)
................................................................................
.............................. CYCLE    7 ......................................
................................................................................
   1    -50.6760396 -0.506760E+02  0.278E-01    8.34       0.0  T
   2    -50.6762126 -0.173006E-03  0.207E-01    8.44       1.0  T
   3    -50.6763038 -0.912446E-04  0.657E-02    8.50       1.0  T
   4    -50.6763208 -0.170455E-04  0.140E-02    8.53       1.4  T
   5    -50.6763214 -0.522016E-06  0.603E-03    8.53       3.3  T
   6    -50.6763214 -0.326579E-07  0.296E-03    8.53       6.6  T
   7    -50.6763214 -0.144708E-07  0.738E-04    8.53      26.6  T
speedup  0.91
cpu  time for SCC    0.01 s
wall time for SCC    0.01 s
speedup  0.97
cpu  time for grad    0.01 s
wall time for grad    0.01 s
 E :    -50.41981556  G :  0.044351    pred/act E change: -0.567D-02 -0.693D-02
Maxdispl :   0.1772   ||displ|| :   0.5124   Lambda : -0.119D-01
Largest |displ|/coords:  0.1772 (  69)  0.1592 (  22)  0.1554 (  21)
................................................................................
.............................. CYCLE    8 ......................................
................................................................................
   1    -50.6928200 -0.506928E+02  0.455E-01    8.65       0.0  T
   2    -50.6932878 -0.467788E-03  0.334E-01    8.70       1.0  T
   3    -50.6935489 -0.261105E-03  0.110E-01    8.72       1.0  T
   4    -50.6935878 -0.389020E-04  0.256E-02    8.76       1.0  T
   5    -50.6935894 -0.157511E-05  0.960E-03    8.76       2.0  T
   6    -50.6935895 -0.608035E-07  0.540E-03    8.76       3.6  T
   7    -50.6935895 -0.390469E-07  0.105E-03    8.75      18.7  T
speedup  1.06
cpu  time for SCC    0.01 s
wall time for SCC    0.01 s
speedup  0.97
cpu  time for grad    0.01 s
wall time for grad    0.01 s
 E :    -50.42560584  G :  0.065346    pred/act E change: -0.509D-02 -0.579D-02
Maxdispl :   0.1243   ||displ|| :   0.3515   Lambda : -0.102D-01
Largest |displ|/coords:  0.1243 (   6)  0.1241 (  28)  0.1122 (  31)
................................................................................
.............................. CYCLE    9 ......................................
................................................................................
   1    -50.6917959 -0.506918E+02  0.353E-01    8.79       0.0  T
   2    -50.6920102 -0.214274E-03  0.264E-01    8.81       1.0  T
   3    -50.6921606 -0.150415E-03  0.791E-02    8.82       1.0  T
   4    -50.6921835 -0.229577E-04  0.199E-02    8.81       1.0  T
   5    -50.6921841 -0.607726E-06  0.819E-03    8.81       2.4  T
   6    -50.6921842 -0.777037E-07  0.364E-03    8.81       5.4  T
   7    -50.6921842 -0.248535E-07  0.967E-04    8.81      20.3  T
speedup  0.91
cpu  time for SCC    0.01 s
wall time for SCC    0.01 s
speedup  0.97
cpu  time for grad    0.01 s
wall time for grad    0.01 s
 E :    -50.42697221  G :  0.059721    pred/act E change: -0.754D-02 -0.137D-02
Maxdispl :   0.1436   ||displ|| :   0.3644   Lambda : -0.786D-02
Largest |displ|/coords:  0.1436 (   7)  0.1265 (  21)  0.1124 (   6)
................................................................................
.............................. CYCLE   10 ......................................
................................................................................
   1    -50.6926388 -0.506926E+02  0.419E-01    8.75       0.0  T
   2    -50.6928459 -0.207050E-03  0.314E-01    8.76       1.0  T
   3    -50.6929799 -0.134021E-03  0.780E-02    8.76       1.0  T
   4    -50.6930055 -0.256617E-04  0.168E-02    8.78       1.2  T
   5    -50.6930060 -0.446977E-06  0.750E-03    8.78       2.6  T
   6    -50.6930060 -0.673611E-07  0.336E-03    8.77       5.8  T
   7    -50.6930061 -0.310352E-07  0.735E-04    8.77      26.7  T
speedup  1.08
cpu  time for SCC    0.01 s
wall time for SCC    0.01 s
speedup  1.04
cpu  time for grad    0.01 s
wall time for grad    0.01 s
 E :    -50.43010901  G :  0.046689    pred/act E change: -0.573D-02 -0.314D-02
Maxdispl :   0.1176   ||displ|| :   0.2811   Lambda : -0.314D-02
Largest |displ|/coords:  0.1176 (   6)  0.1128 (   1)  0.0983 (   8)
................................................................................
.............................. CYCLE   11 ......................................
................................................................................
   1    -50.7033184 -0.507033E+02  0.305E-01    8.80       0.0  T
   2    -50.7033675 -0.491079E-04  0.231E-01    8.80       1.0  T
   3    -50.7034013 -0.337269E-04  0.379E-02    8.79       1.0  T
   4    -50.7034086 -0.730281E-05  0.873E-03    8.80       2.2  T
   5    -50.7034087 -0.130854E-06  0.434E-03    8.80       4.5  T
   6    -50.7034087 -0.139999E-07  0.196E-03    8.80      10.0  T
speedup  0.86
cpu  time for SCC    0.01 s
wall time for SCC    0.01 s
speedup  0.96
cpu  time for grad    0.01 s
wall time for grad    0.01 s
 E :    -50.43146783  G :  0.031067    pred/act E change: -0.445D-02 -0.136D-02
Maxdispl :   0.1159   ||displ|| :   0.2866   Lambda : -0.306D-02
Largest |displ|/coords:  0.1159 (   8)  0.1040 (  31)  0.0975 (  19)
................................................................................
.............................. CYCLE   12 ......................................
................................................................................
   1    -50.7002568 -0.507003E+02  0.163E-01    8.88       0.0  T
   2    -50.7002845 -0.277277E-04  0.121E-01    8.90       1.0  T
   3    -50.7003028 -0.182138E-04  0.287E-02    8.94       1.0  T
   4    -50.7003058 -0.309680E-05  0.968E-03    8.93       2.0  T
   5    -50.7003060 -0.120915E-06  0.262E-03    8.92       7.5  T
   6    -50.7003060 -0.848175E-08  0.147E-03    8.92      13.4  T
speedup  1.05
cpu  time for SCC    0.01 s
wall time for SCC    0.01 s
speedup  1.04
cpu  time for grad    0.01 s
wall time for grad    0.01 s
 E :    -50.43266724  G :  0.030398    pred/act E change: -0.169D-02 -0.120D-02
Maxdispl :   0.1511   ||displ|| :   0.2785   Lambda : -0.192D-02
Largest |displ|/coords:  0.1511 (   8)  0.0846 (  19)  0.0817 (  11)
................................................................................
.............................. CYCLE   13 ......................................
................................................................................
   1    -50.7024800 -0.507025E+02  0.212E-01    8.94       0.0  T
   2    -50.7025138 -0.338221E-04  0.159E-01    8.94       1.0  T
   3    -50.7025318 -0.180090E-04  0.314E-02    8.95       1.0  T
   4    -50.7025372 -0.532157E-05  0.680E-03    8.95       2.9  T
   5    -50.7025372 -0.555396E-07  0.279E-03    8.95       7.0  T
   6    -50.7025372 -0.743843E-08  0.126E-03    8.95      15.6  T
speedup  1.05
cpu  time for SCC    0.01 s
wall time for SCC    0.01 s
speedup  0.96
cpu  time for grad    0.01 s
wall time for grad    0.01 s
 E :    -50.43412508  G :  0.021070    pred/act E change: -0.166D-02 -0.146D-02
Maxdispl :   0.1762   ||displ|| :   0.3811   Lambda : -0.188D-02
Largest |displ|/coords:  0.1762 (   8)  0.1422 (  19)  0.1406 (   2)
................................................................................
.............................. CYCLE   14 ......................................
................................................................................
   1    -50.7082038 -0.507082E+02  0.267E-01    9.01       0.0  T
   2    -50.7082766 -0.728537E-04  0.199E-01    9.02       1.0  T
   3    -50.7083161 -0.394278E-04  0.462E-02    9.02       1.0  T
   4    -50.7083261 -0.100182E-04  0.125E-02    9.02       1.6  T
   5    -50.7083263 -0.185245E-06  0.437E-03    9.02       4.5  T
   6    -50.7083263 -0.205677E-07  0.221E-03    9.02       8.9  T
speedup  1.05
cpu  time for SCC    0.01 s
wall time for SCC    0.01 s
speedup  1.02
cpu  time for grad    0.01 s
wall time for grad    0.01 s
 E :    -50.43502248  G :  0.030796    pred/act E change: -0.104D-02 -0.897D-03
Maxdispl :   0.1395   ||displ|| :   0.2801   Lambda : -0.125D-02
Largest |displ|/coords:  0.1395 (   8)  0.0869 (  10)  0.0827 (  19)
................................................................................
.............................. CYCLE   15 ......................................
................................................................................
   1    -50.7087222 -0.507087E+02  0.195E-01    9.05       0.0  T
   2    -50.7087593 -0.370158E-04  0.143E-01    9.05       1.0  T
   3    -50.7087772 -0.179138E-04  0.343E-02    9.05       1.0  T
   4    -50.7087818 -0.464292E-05  0.912E-03    9.05       2.2  T
   5    -50.7087819 -0.989827E-07  0.275E-03    9.05       7.1  T
   6    -50.7087819 -0.808216E-08  0.144E-03    9.05      13.6  T
speedup  1.05
cpu  time for SCC    0.01 s
wall time for SCC    0.01 s
speedup  1.04
cpu  time for grad    0.01 s
wall time for grad    0.01 s
 E :    -50.43587153  G :  0.024800    pred/act E change: -0.108D-02 -0.849D-03
Maxdispl :   0.1281   ||displ|| :   0.2969   Lambda : -0.155D-02
Largest |displ|/coords:  0.1281 (   8)  0.1224 (   9)  0.0808 (  19)
................................................................................
.............................. CYCLE   16 ......................................
................................................................................
   1    -50.7141431 -0.507141E+02  0.212E-01    9.14       0.0  T
   2    -50.7142231 -0.799304E-04  0.153E-01    9.13       1.0  T
   3    -50.7142624 -0.393313E-04  0.489E-02    9.12       1.0  T
   4    -50.7142689 -0.653343E-05  0.143E-02    9.12       1.4  T
   5    -50.7142693 -0.323414E-06  0.414E-03    9.12       4.7  T
   6    -50.7142693 -0.215270E-07  0.208E-03    9.12       9.4  T
speedup  1.05
cpu  time for SCC    0.01 s
wall time for SCC    0.01 s
speedup  0.96
cpu  time for grad    0.01 s
wall time for grad    0.01 s
 E :    -50.43703020  G :  0.029137    pred/act E change: -0.673D-03 -0.116D-02
Maxdispl :   0.1978   ||displ|| :   0.5413   Lambda : -0.300D-02
Largest |displ|/coords:  0.1978 (   9)  0.1681 (  14)  0.1583 (   3)
................................................................................
.............................. CYCLE   17 ......................................
................................................................................
   1    -50.7170219 -0.507170E+02  0.442E-01    9.24       0.0  T
   2    -50.7172744 -0.252581E-03  0.321E-01    9.23       1.0  T
   3    -50.7174048 -0.130374E-03  0.935E-02    9.20       1.0  T
   4    -50.7174292 -0.243584E-04  0.253E-02    9.21       1.0  T
   5    -50.7174302 -0.105746E-05  0.806E-03    9.21       2.4  T
   6    -50.7174303 -0.696412E-07  0.398E-03    9.21       4.9  T
   7    -50.7174303 -0.244791E-07  0.126E-03    9.21      15.5  T
speedup  1.06
cpu  time for SCC    0.01 s
wall time for SCC    0.01 s
speedup  1.04
cpu  time for grad    0.01 s
wall time for grad    0.01 s
 E :    -50.43878295  G :  0.046597    pred/act E change: -0.845D-03 -0.175D-02
Maxdispl :   0.1165   ||displ|| :   0.3603   Lambda : -0.335D-02
Largest |displ|/coords:  0.1165 (  15)  0.1067 (   4)  0.1021 (  12)
................................................................................
.............................. CYCLE   18 ......................................
................................................................................
   1    -50.7283888 -0.507284E+02  0.277E-01    9.20       0.0  T
   2    -50.7284790 -0.902100E-04  0.201E-01    9.19       1.0  T
   3    -50.7285263 -0.473254E-04  0.565E-02    9.16       1.0  T
   4    -50.7285338 -0.750634E-05  0.163E-02    9.16       1.2  T
   5    -50.7285343 -0.480019E-06  0.461E-03    9.16       4.3  T
   6    -50.7285344 -0.254747E-07  0.254E-03    9.16       7.7  T
speedup  1.05
cpu  time for SCC    0.01 s
wall time for SCC    0.01 s
speedup  0.96
cpu  time for grad    0.01 s
wall time for grad    0.01 s
 E :    -50.44027541  G :  0.047886    pred/act E change: -0.194D-02 -0.149D-02
Maxdispl :   0.1211   ||displ|| :   0.3542   Lambda : -0.358D-02
Largest |displ|/coords:  0.1211 (   1)  0.1060 (  18)  0.1000 (   5)
................................................................................
.............................. CYCLE   19 ......................................
................................................................................
   1    -50.7263133 -0.507263E+02  0.313E-01    9.09       0.0  T
   2    -50.7263827 -0.693984E-04  0.236E-01    9.09       1.0  T
   3    -50.7264310 -0.483255E-04  0.465E-02    9.09       1.0  T
   4    -50.7264403 -0.927592E-05  0.166E-02    9.09       1.2  T
   5    -50.7264407 -0.408566E-06  0.462E-03    9.09       4.2  T
   6    -50.7264407 -0.190410E-07  0.258E-03    9.09       7.6  T
speedup  0.88
cpu  time for SCC    0.01 s
wall time for SCC    0.01 s
speedup  0.96
cpu  time for grad    0.01 s
wall time for grad    0.01 s
 E :    -50.44096977  G :  0.057542    pred/act E change: -0.189D-02 -0.694D-03
Maxdispl :   0.1138   ||displ|| :   0.2840   Lambda : -0.588D-02
Largest |displ|/coords:  0.1138 (  22)  0.1021 (  19)  0.0961 (   7)
................................................................................
.............................. CYCLE   20 ......................................
................................................................................
   1    -50.7256452 -0.507256E+02  0.333E-01    9.00       0.0  T
   2    -50.7258301 -0.184900E-03  0.242E-01    9.01       1.0  T
   3    -50.7259290 -0.988899E-04  0.736E-02    9.04       1.0  T
   4    -50.7259449 -0.159327E-04  0.181E-02    9.04       1.1  T
   5    -50.7259456 -0.704402E-06  0.664E-03    9.04       3.0  T
   6    -50.7259457 -0.743939E-07  0.369E-03    9.04       5.3  T
   7    -50.7259457 -0.168109E-07  0.901E-04    9.04      21.8  T
speedup  1.03
cpu  time for SCC    0.01 s
wall time for SCC    0.01 s
speedup  1.03
cpu  time for grad    0.01 s
wall time for grad    0.01 s
 E :    -50.44090325  G :  0.050239    pred/act E change: -0.202D-02  0.665D-04
Maxdispl :   0.1030   ||displ|| :   0.3111   Lambda : -0.614D-02
Largest |displ|/coords:  0.1030 (  15)  0.0908 (   5)  0.0890 (  19)
................................................................................
.............................. CYCLE   21 ......................................
................................................................................
   1    -50.7351569 -0.507352E+02  0.329E-01    9.19       0.0  T
   2    -50.7352903 -0.133411E-03  0.241E-01    9.17       1.0  T
   3    -50.7353686 -0.783683E-04  0.659E-02    9.14       1.0  T
   4    -50.7353803 -0.116318E-04  0.178E-02    9.14       1.1  T
   5    -50.7353811 -0.792779E-06  0.608E-03    9.14       3.2  T
   6    -50.7353811 -0.188943E-07  0.317E-03    9.14       6.2  T
   7    -50.7353811 -0.176283E-07  0.690E-04    9.14      28.4  T
speedup  0.91
cpu  time for SCC    0.01 s
wall time for SCC    0.01 s
speedup  0.98
cpu  time for grad    0.01 s
wall time for grad    0.01 s
 E :    -50.44186547  G :  0.049161    pred/act E change: -0.318D-02 -0.962D-03
Maxdispl :   0.0506   ||displ|| :   0.1221   Lambda : -0.267D-02
Largest |displ|/coords:  0.0506 (   3)  0.0341 (   1)  0.0341 (  15)
................................................................................
.............................. CYCLE   22 ......................................
................................................................................
   1    -50.7253832 -0.507254E+02  0.146E-01    9.02       0.0  T
   2    -50.7254113 -0.281556E-04  0.106E-01    9.03       1.0  T
   3    -50.7254275 -0.161968E-04  0.289E-02    9.05       1.0  T
   4    -50.7254296 -0.207381E-05  0.718E-03    9.05       2.7  T
   5    -50.7254297 -0.100418E-06  0.268E-03    9.05       7.3  T
   6    -50.7254297 -0.884708E-08  0.142E-03    9.05      13.8  T
speedup  1.07
cpu  time for SCC    0.01 s
wall time for SCC    0.01 s
speedup  0.98
cpu  time for grad    0.01 s
wall time for grad    0.01 s
 E :    -50.44298819  G :  0.020721    pred/act E change: -0.337D-02 -0.112D-02
Maxdispl :   0.0553   ||displ|| :   0.1393   Lambda : -0.836D-03
Largest |displ|/coords:  0.0553 (   8)  0.0550 (   9)  0.0410 (   6)
................................................................................
.............................. CYCLE   23 ......................................
................................................................................
   1    -50.7314716 -0.507315E+02  0.116E-01    9.04       0.0  T
   2    -50.7314884 -0.168230E-04  0.856E-02    9.04       1.0  T
   3    -50.7314992 -0.107708E-04  0.226E-02    9.04       1.0  T
   4    -50.7315009 -0.171779E-05  0.480E-03    9.04       4.1  T
   5    -50.7315010 -0.307066E-07  0.223E-03    9.04       8.8  T
speedup  1.06
cpu  time for SCC    0.00 s
wall time for SCC    0.00 s
speedup  1.05
cpu  time for grad    0.01 s
wall time for grad    0.01 s
 E :    -50.44324238  G :  0.014496    pred/act E change: -0.136D-02 -0.254D-03
Maxdispl :   0.0549   ||displ|| :   0.1111   Lambda : -0.447D-03
Largest |displ|/coords:  0.0549 (   5)  0.0504 (   9)  0.0367 (   7)
................................................................................
.............................. CYCLE   24 ......................................
................................................................................
   1    -50.7305134 -0.507305E+02  0.911E-02    9.06       0.0  T
   2    -50.7305174 -0.397634E-05  0.685E-02    9.06       1.0  T
   3    -50.7305197 -0.233004E-05  0.120E-02    9.06       1.6  T
   4    -50.7305203 -0.551697E-06  0.398E-03    9.06       4.9  T
   5    -50.7305203 -0.366197E-07  0.110E-03    9.06      17.9  T
   6    -50.7305203 -0.101993E-08  0.611E-04    9.06      32.1  T
speedup  0.88
cpu  time for SCC    0.00 s
wall time for SCC    0.01 s
speedup  0.96
cpu  time for grad    0.01 s
wall time for grad    0.01 s
 E :    -50.44357092  G :  0.010597    pred/act E change: -0.426D-03 -0.329D-03
Maxdispl :   0.1079   ||displ|| :   0.2585   Lambda : -0.788D-03
Largest |displ|/coords:  0.1079 (   5)  0.0871 (   8)  0.0759 (   2)
................................................................................
.............................. CYCLE   25 ......................................
................................................................................
   1    -50.7300069 -0.507300E+02  0.147E-01    9.04       0.0  T
   2    -50.7300151 -0.820819E-05  0.110E-01    9.05       1.0  T
   3    -50.7300222 -0.709061E-05  0.163E-02    9.06       1.2  T
   4    -50.7300231 -0.910245E-06  0.744E-03    9.06       2.6  T
   5    -50.7300232 -0.692032E-07  0.180E-03    9.06      10.9  T
   6    -50.7300232 -0.511262E-08  0.107E-03    9.06      18.3  T
speedup  1.05
cpu  time for SCC    0.01 s
wall time for SCC    0.01 s
speedup  1.04
cpu  time for grad    0.01 s
wall time for grad    0.01 s
 E :    -50.44388143  G :  0.020882    pred/act E change: -0.226D-03 -0.311D-03
Maxdispl :   0.1318   ||displ|| :   0.2369   Lambda : -0.596D-03
Largest |displ|/coords:  0.1318 (   9)  0.1154 (   5)  0.0732 (   4)

generating ANC from model Hessian ...
 Shifting diagonal of input Hessian by   5.087267992203307E-003
 Lowest  eigenvalues of input Hessian
    0.005000    0.005071   -0.000000   -0.000000   -0.000000   -0.000000
    0.000000    0.000000    0.005350    0.006106    0.006216    0.006390
    0.006947    0.008495    0.008697    0.009767    0.010506    0.010741
 Highest eigenvalues
    1.400716    1.401519    1.413894    2.540789    3.365437    3.711237
 
cpu  time for ANC gen    0.02 s
wall time for ANC gen    0.02 s
................................................................................
.............................. CYCLE   26 ......................................
................................................................................
   1    -50.7289170 -0.507289E+02  0.129E-01    9.05       0.0  T
   2    -50.7289280 -0.110147E-04  0.967E-02    9.05       1.0  T
   3    -50.7289343 -0.631275E-05  0.192E-02    9.06       1.0  T
   4    -50.7289358 -0.152857E-05  0.689E-03    9.05       2.8  T
   5    -50.7289359 -0.783353E-07  0.215E-03    9.05       9.1  T
   6    -50.7289359 -0.550786E-08  0.113E-03    9.05      17.4  T
   7    -50.7289359 -0.221136E-08  0.354E-04    9.05      55.4  T
   8    -50.7289359 -0.192820E-09  0.927E-05    9.05     211.6  T
speedup  0.92
cpu  time for SCC    0.01 s
wall time for SCC    0.01 s
speedup  1.00
cpu  time for grad    0.02 s
wall time for grad    0.02 s
 E :    -50.44423074  G :  0.018440    pred/act E change:  0.000D+00 -0.349D-03
Maxdispl :   0.1217   ||displ|| :   0.2442   Lambda : -0.953D-03
Largest |displ|/coords:  0.1217 (   3)  0.0901 (  12)  0.0842 (   7)
................................................................................
.............................. CYCLE   27 ......................................
................................................................................
   1    -50.7316692 -0.507317E+02  0.187E-01    9.09       0.0  T
   2    -50.7316729 -0.367767E-05  0.140E-01    9.08       1.0  T
   3    -50.7316762 -0.334392E-05  0.114E-02    9.08       1.7  T
   4    -50.7316766 -0.404805E-06  0.374E-03    9.08       5.2  T
   5    -50.7316767 -0.165113E-07  0.153E-03    9.08      12.8  T
   6    -50.7316767 -0.324577E-08  0.726E-04    9.08      27.0  T
speedup  0.86
cpu  time for SCC    0.00 s
wall time for SCC    0.01 s
speedup  0.96
cpu  time for grad    0.01 s
wall time for grad    0.01 s
 E :    -50.44491551  G :  0.008816    pred/act E change:  0.000D+00 -0.685D-03
Maxdispl :   0.2175   ||displ|| :   0.4376   Lambda : -0.114D-02
Largest |displ|/coords:  0.2175 (   5)  0.1601 (   1)  0.1247 (  14)
................................................................................
.............................. CYCLE   28 ......................................
................................................................................
   1    -50.7317901 -0.507318E+02  0.321E-01    9.09       0.0  T
   2    -50.7318055 -0.154085E-04  0.243E-01    9.09       1.0  T
   3    -50.7318238 -0.183595E-04  0.220E-02    9.10       1.0  T
   4    -50.7318246 -0.822663E-06  0.736E-03    9.10       2.7  T
   5    -50.7318247 -0.489032E-07  0.275E-03    9.10       7.1  T
   6    -50.7318247 -0.818768E-08  0.130E-03    9.10      15.1  T
speedup  1.05
cpu  time for SCC    0.01 s
wall time for SCC    0.01 s
speedup  1.04
cpu  time for grad    0.01 s
wall time for grad    0.01 s
 E :    -50.44565202  G :  0.012229    pred/act E change: -0.505D-03 -0.737D-03
Maxdispl :   0.2570   ||displ|| :   0.5237   Lambda : -0.995D-03
Largest |displ|/coords:  0.2570 (   5)  0.1994 (   3)  0.1526 (  13)
................................................................................
.............................. CYCLE   29 ......................................
................................................................................
   1    -50.7258856 -0.507259E+02  0.329E-01    9.04       0.0  T
   2    -50.7258987 -0.131454E-04  0.247E-01    9.04       1.0  T
   3    -50.7259133 -0.145694E-04  0.222E-02    9.04       1.0  T
   4    -50.7259141 -0.824703E-06  0.757E-03    9.04       2.6  T
   5    -50.7259141 -0.564091E-07  0.278E-03    9.04       7.1  T
   6    -50.7259142 -0.793283E-08  0.134E-03    9.04      14.7  T
speedup  1.05
cpu  time for SCC    0.01 s
wall time for SCC    0.01 s
speedup  0.96
cpu  time for grad    0.01 s
wall time for grad    0.01 s
 E :    -50.44618869  G :  0.023196    pred/act E change: -0.678D-03 -0.537D-03
Maxdispl :   0.1250   ||displ|| :   0.2053   Lambda : -0.787D-03
Largest |displ|/coords:  0.1250 (   5)  0.0695 (   4)  0.0595 (   8)
................................................................................
.............................. CYCLE   30 ......................................
................................................................................
   1    -50.7321681 -0.507322E+02  0.123E-01    9.06       0.0  T
   2    -50.7321769 -0.878731E-05  0.926E-02    9.05       1.0  T
   3    -50.7321827 -0.581822E-05  0.166E-02    9.05       1.2  T
   4    -50.7321838 -0.111147E-05  0.426E-03    9.05       4.6  T
   5    -50.7321839 -0.420835E-07  0.159E-03    9.05      12.3  T
speedup  1.04
cpu  time for SCC    0.00 s
wall time for SCC    0.00 s
speedup  1.02
cpu  time for grad    0.01 s
wall time for grad    0.01 s
 E :    -50.44661142  G :  0.017065    pred/act E change: -0.634D-03 -0.423D-03
Maxdispl :   0.2270   ||displ|| :   0.3971   Lambda : -0.951D-03
Largest |displ|/coords:  0.2270 (   3)  0.1611 (   1)  0.1504 (   5)
................................................................................
.............................. CYCLE   31 ......................................
................................................................................
   1    -50.7338246 -0.507338E+02  0.266E-01    9.09       0.0  T
   2    -50.7338485 -0.238585E-04  0.201E-01    9.10       1.0  T
   3    -50.7338654 -0.169911E-04  0.266E-02    9.13       1.0  T
   4    -50.7338690 -0.352447E-05  0.747E-03    9.12       2.6  T
   5    -50.7338691 -0.956307E-07  0.330E-03    9.12       5.9  T
   6    -50.7338691 -0.109141E-07  0.164E-03    9.12      11.9  T
   7    -50.7338691 -0.557533E-08  0.328E-04    9.12      59.8  T
speedup  1.04
cpu  time for SCC    0.01 s
wall time for SCC    0.01 s
speedup  1.03
cpu  time for grad    0.01 s
wall time for grad    0.01 s
 E :    -50.44677811  G :  0.025977    pred/act E change: -0.410D-03 -0.167D-03
Maxdispl :   0.1668   ||displ|| :   0.2872   Lambda : -0.112D-02
Largest |displ|/coords:  0.1668 (   5)  0.1168 (   9)  0.1014 (   1)
................................................................................
.............................. CYCLE   32 ......................................
................................................................................
   1    -50.7329540 -0.507330E+02  0.193E-01    9.14       0.0  T
   2    -50.7329689 -0.149657E-04  0.145E-01    9.14       1.0  T
   3    -50.7329801 -0.111953E-04  0.222E-02    9.14       1.0  T
   4    -50.7329821 -0.199692E-05  0.717E-03    9.14       2.7  T
   5    -50.7329822 -0.914203E-07  0.280E-03    9.14       7.0  T
   6    -50.7329822 -0.830370E-08  0.143E-03    9.14      13.7  T
speedup  1.03
cpu  time for SCC    0.01 s
wall time for SCC    0.01 s
speedup  1.03
cpu  time for grad    0.01 s
wall time for grad    0.01 s
 E :    -50.44721588  G :  0.020764    pred/act E change: -0.551D-03 -0.438D-03
Maxdispl :   0.1472   ||displ|| :   0.2686   Lambda : -0.100D-02
Largest |displ|/coords:  0.1472 (   5)  0.1192 (  13)  0.1162 (  10)
................................................................................
.............................. CYCLE   33 ......................................
................................................................................
   1    -50.7322062 -0.507322E+02  0.225E-01    9.12       0.0  T
   2    -50.7322308 -0.245836E-04  0.170E-01    9.12       1.0  T
   3    -50.7322504 -0.195460E-04  0.275E-02    9.11       1.0  T
   4    -50.7322535 -0.317635E-05  0.795E-03    9.12       2.5  T
   5    -50.7322536 -0.102168E-06  0.339E-03    9.12       5.8  T
   6    -50.7322537 -0.870510E-08  0.166E-03    9.12      11.8  T
speedup  0.88
cpu  time for SCC    0.00 s
wall time for SCC    0.01 s
speedup  0.96
cpu  time for grad    0.01 s
wall time for grad    0.01 s
 E :    -50.44696252  G :  0.029819    pred/act E change: -0.607D-03  0.253D-03
Maxdispl :   0.0753   ||displ|| :   0.1729   Lambda : -0.139D-02
Largest |displ|/coords:  0.0753 (  13)  0.0731 (  10)  0.0644 (   4)
................................................................................
.............................. CYCLE   34 ......................................
................................................................................
   1    -50.7384337 -0.507384E+02  0.108E-01    9.22       0.0  T
   2    -50.7384370 -0.327719E-05  0.809E-02    9.22       1.0  T
   3    -50.7384396 -0.261008E-05  0.103E-02    9.23       1.9  T
   4    -50.7384399 -0.357482E-06  0.366E-03    9.23       5.4  T
   5    -50.7384400 -0.212923E-07  0.124E-03    9.23      15.9  T
speedup  1.02
cpu  time for SCC    0.00 s
wall time for SCC    0.00 s
speedup  1.02
cpu  time for grad    0.01 s
wall time for grad    0.01 s
 E :    -50.44756476  G :  0.010340    pred/act E change: -0.538D-03 -0.602D-03
Maxdispl :   0.2069   ||displ|| :   0.4748   Lambda : -0.954D-03
Largest |displ|/coords:  0.2069 (   1)  0.1989 (   5)  0.1924 (   3)
................................................................................
.............................. CYCLE   35 ......................................
................................................................................
   1    -50.7269933 -0.507270E+02  0.339E-01    9.00       0.0  T
   2    -50.7270267 -0.334023E-04  0.256E-01    9.02       1.0  T
   3    -50.7270557 -0.290168E-04  0.321E-02    9.06       1.0  T
   4    -50.7270597 -0.394961E-05  0.871E-03    9.05       2.3  T
   5    -50.7270598 -0.940260E-07  0.393E-03    9.05       5.0  T
   6    -50.7270598 -0.170683E-07  0.189E-03    9.05      10.4  T
   7    -50.7270598 -0.717986E-08  0.403E-04    9.05      48.7  T
speedup  1.06
cpu  time for SCC    0.01 s
wall time for SCC    0.01 s
speedup  1.03
cpu  time for grad    0.01 s
wall time for grad    0.01 s
 E :    -50.44735772  G :  0.032610    pred/act E change: -0.717D-03  0.207D-03
Maxdispl :   0.0742   ||displ|| :   0.1560   Lambda : -0.133D-02
Largest |displ|/coords:  0.0742 (  12)  0.0509 (   1)  0.0504 (   7)
................................................................................
.............................. CYCLE   36 ......................................
................................................................................
   1    -50.7353763 -0.507354E+02  0.162E-01    9.19       0.0  T
   2    -50.7353921 -0.158622E-04  0.122E-01    9.18       1.0  T
   3    -50.7354029 -0.107498E-04  0.234E-02    9.16       1.0  T
   4    -50.7354049 -0.202288E-05  0.645E-03    9.17       3.0  T
   5    -50.7354050 -0.949638E-07  0.244E-03    9.17       8.0  T
   6    -50.7354050 -0.387710E-08  0.132E-03    9.17      14.9  T
speedup  0.88
cpu  time for SCC    0.01 s
wall time for SCC    0.01 s
speedup  0.96
cpu  time for grad    0.01 s
wall time for grad    0.01 s
 E :    -50.44800575  G :  0.004914    pred/act E change: -0.584D-03 -0.648D-03
Maxdispl :   0.1215   ||displ|| :   0.2286   Lambda : -0.227D-03
Largest |displ|/coords:  0.1215 (   5)  0.0980 (   1)  0.0874 (   3)
................................................................................
.............................. CYCLE   37 ......................................
................................................................................
   1    -50.7344226 -0.507344E+02  0.113E-01    9.15       0.0  T
   2    -50.7344245 -0.192356E-05  0.848E-02    9.15       1.0  T
   3    -50.7344266 -0.201009E-05  0.714E-03    9.15       2.7  T
   4    -50.7344267 -0.174082E-06  0.299E-03    9.15       6.6  T
   5    -50.7344267 -0.108372E-07  0.959E-04    9.15      20.5  T
speedup  1.02
cpu  time for SCC    0.00 s
wall time for SCC    0.00 s
speedup  1.02
cpu  time for grad    0.01 s
wall time for grad    0.01 s
 E :    -50.44817558  G :  0.006438    pred/act E change: -0.682D-03 -0.170D-03
Maxdispl :   0.2240   ||displ|| :   0.4918   Lambda : -0.443D-03
Largest |displ|/coords:  0.2240 (   5)  0.2191 (   8)  0.2083 (   1)
................................................................................
.............................. CYCLE   38 ......................................
................................................................................
   1    -50.7329865 -0.507330E+02  0.232E-01    9.11       0.0  T
   2    -50.7329949 -0.843124E-05  0.175E-01    9.11       1.0  T
   3    -50.7330028 -0.792088E-05  0.151E-02    9.11       1.3  T
   4    -50.7330038 -0.927099E-06  0.548E-03    9.11       3.6  T
   5    -50.7330038 -0.318223E-07  0.201E-03    9.11       9.7  T
   6    -50.7330038 -0.678000E-08  0.891E-04    9.11      22.0  T
speedup  1.05
cpu  time for SCC    0.01 s
wall time for SCC    0.01 s
speedup  1.02
cpu  time for grad    0.01 s
wall time for grad    0.01 s
 E :    -50.44847160  G :  0.011387    pred/act E change: -0.120D-03 -0.296D-03
Maxdispl :   0.1399   ||displ|| :   0.3100   Lambda : -0.316D-03
Largest |displ|/coords:  0.1399 (   1)  0.1385 (   8)  0.1112 (   2)
................................................................................
.............................. CYCLE   39 ......................................
................................................................................
   1    -50.7346383 -0.507346E+02  0.148E-01    9.09       0.0  T
   2    -50.7346419 -0.362825E-05  0.111E-01    9.09       1.0  T
   3    -50.7346450 -0.304801E-05  0.105E-02    9.09       1.9  T
   4    -50.7346455 -0.486822E-06  0.324E-03    9.09       6.0  T
   5    -50.7346455 -0.147386E-07  0.127E-03    9.09      15.5  T
   6    -50.7346455 -0.248429E-08  0.570E-04    9.09      34.4  T
speedup  1.05
cpu  time for SCC    0.01 s
wall time for SCC    0.01 s
speedup  1.03
cpu  time for grad    0.01 s
wall time for grad    0.01 s
 E :    -50.44867788  G :  0.009224    pred/act E change: -0.275D-03 -0.206D-03
Maxdispl :   0.1161   ||displ|| :   0.2591   Lambda : -0.209D-03
Largest |displ|/coords:  0.1161 (   2)  0.1097 (   8)  0.0897 (   1)
................................................................................
.............................. CYCLE   40 ......................................
................................................................................
   1    -50.7366544 -0.507367E+02  0.125E-01    9.11       0.0  T
   2    -50.7366569 -0.242557E-05  0.937E-02    9.11       1.0  T
   3    -50.7366590 -0.216556E-05  0.945E-03    9.11       2.1  T
   4    -50.7366593 -0.249154E-06  0.312E-03    9.11       6.3  T
   5    -50.7366593 -0.121628E-07  0.102E-03    9.11      19.2  T
   6    -50.7366593 -0.134433E-08  0.553E-04    9.11      35.5  T
speedup  1.03
cpu  time for SCC    0.01 s
wall time for SCC    0.01 s
speedup  1.01
cpu  time for grad    0.01 s
wall time for grad    0.01 s
 E :    -50.44881826  G :  0.007296    pred/act E change: -0.173D-03 -0.140D-03
Maxdispl :   0.1549   ||displ|| :   0.2799   Lambda : -0.213D-03
Largest |displ|/coords:  0.1549 (   2)  0.1242 (   1)  0.1014 (   8)
................................................................................
.............................. CYCLE   41 ......................................
................................................................................
   1    -50.7380054 -0.507380E+02  0.155E-01    9.08       0.0  T
   2    -50.7380096 -0.420487E-05  0.116E-01    9.08       1.0  T
   3    -50.7380128 -0.321354E-05  0.121E-02    9.07       1.6  T
   4    -50.7380134 -0.559926E-06  0.529E-03    9.07       3.7  T
   5    -50.7380134 -0.281221E-07  0.129E-03    9.07      15.2  T
   6    -50.7380134 -0.197159E-08  0.766E-04    9.07      25.6  T
speedup  0.88
cpu  time for SCC    0.00 s
wall time for SCC    0.01 s
speedup  0.88
cpu  time for grad    0.01 s
wall time for grad    0.01 s
 E :    -50.44894177  G :  0.006515    pred/act E change: -0.111D-03 -0.124D-03
Maxdispl :   0.1544   ||displ|| :   0.2417   Lambda : -0.203D-03
Largest |displ|/coords:  0.1544 (   2)  0.0822 (   1)  0.0609 (  14)
................................................................................
.............................. CYCLE   42 ......................................
................................................................................
   1    -50.7401651 -0.507402E+02  0.134E-01    9.14       0.0  T
   2    -50.7401680 -0.286684E-05  0.101E-01    9.15       1.0  T
   3    -50.7401709 -0.288295E-05  0.109E-02    9.15       1.8  T
   4    -50.7401711 -0.238986E-06  0.477E-03    9.15       4.1  T
   5    -50.7401711 -0.258434E-07  0.121E-03    9.15      16.2  T
   6    -50.7401711 -0.169324E-08  0.814E-04    9.15      24.1  T
speedup  0.86
cpu  time for SCC    0.01 s
wall time for SCC    0.01 s
speedup  1.01
cpu  time for grad    0.01 s
wall time for grad    0.01 s
 E :    -50.44903782  G :  0.008783    pred/act E change: -0.115D-03 -0.960D-04
Maxdispl :   0.1687   ||displ|| :   0.2612   Lambda : -0.193D-03
Largest |displ|/coords:  0.1687 (   2)  0.0831 (   1)  0.0805 (   8)
................................................................................
.............................. CYCLE   43 ......................................
................................................................................
   1    -50.7368330 -0.507368E+02  0.156E-01    9.04       0.0  T
   2    -50.7368406 -0.754503E-05  0.118E-01    9.03       1.0  T
   3    -50.7368441 -0.354011E-05  0.163E-02    9.03       1.2  T
   4    -50.7368455 -0.139935E-05  0.580E-03    9.03       3.4  T
   5    -50.7368455 -0.572129E-07  0.147E-03    9.03      13.3  T
   6    -50.7368456 -0.304894E-08  0.834E-04    9.03      23.5  T
speedup  0.86
cpu  time for SCC    0.00 s
wall time for SCC    0.01 s
speedup  0.94
cpu  time for grad    0.01 s
wall time for grad    0.01 s
 E :    -50.44908565  G :  0.011474    pred/act E change: -0.108D-03 -0.478D-04
Maxdispl :   0.1347   ||displ|| :   0.2387   Lambda : -0.298D-03
Largest |displ|/coords:  0.1347 (   5)  0.1223 (   3)  0.0964 (   8)
................................................................................
.............................. CYCLE   44 ......................................
................................................................................
   1    -50.7428633 -0.507429E+02  0.103E-01    9.11       0.0  T
   2    -50.7428682 -0.491954E-05  0.769E-02    9.11       1.0  T
   3    -50.7428714 -0.313092E-05  0.132E-02    9.10       1.5  T
   4    -50.7428720 -0.670462E-06  0.390E-03    9.11       5.0  T
   5    -50.7428721 -0.263865E-07  0.116E-03    9.11      16.9  T
   6    -50.7428721 -0.155447E-08  0.652E-04    9.11      30.1  T
speedup  0.88
cpu  time for SCC    0.01 s
wall time for SCC    0.01 s
speedup  0.95
cpu  time for grad    0.01 s
wall time for grad    0.01 s
 E :    -50.44916499  G :  0.012603    pred/act E change: -0.103D-03 -0.793D-04
Maxdispl :   0.1249   ||displ|| :   0.2286   Lambda : -0.380D-03
Largest |displ|/coords:  0.1249 (   1)  0.1205 (   2)  0.0551 (   7)
................................................................................
.............................. CYCLE   45 ......................................
................................................................................
   1    -50.7381624 -0.507382E+02  0.129E-01    9.09       0.0  T
   2    -50.7381681 -0.573041E-05  0.964E-02    9.10       1.0  T
   3    -50.7381724 -0.429620E-05  0.139E-02    9.11       1.4  T
   4    -50.7381732 -0.755385E-06  0.461E-03    9.11       4.3  T
   5    -50.7381732 -0.282638E-07  0.168E-03    9.11      11.7  T
   6    -50.7381732 -0.233877E-08  0.888E-04    9.11      22.1  T
speedup  0.86
cpu  time for SCC    0.00 s
wall time for SCC    0.01 s
speedup  0.94
cpu  time for grad    0.01 s
wall time for grad    0.01 s
 E :    -50.44912197  G :  0.014700    pred/act E change: -0.157D-03  0.430D-04
Maxdispl :   0.0732   ||displ|| :   0.1324   Lambda : -0.497D-03
Largest |displ|/coords:  0.0732 (   6)  0.0558 (   3)  0.0499 (   1)
................................................................................
.............................. CYCLE   46 ......................................
................................................................................
   1    -50.7391819 -0.507392E+02  0.756E-02    9.07       0.0  T
   2    -50.7391830 -0.110293E-05  0.566E-02    9.07       1.0  T
   3    -50.7391840 -0.105147E-05  0.595E-03    9.07       3.3  T
   4    -50.7391841 -0.895617E-07  0.190E-03    9.07      10.3  T
   5    -50.7391841 -0.388954E-08  0.780E-04    9.07      25.1  T
speedup  0.83
cpu  time for SCC    0.00 s
wall time for SCC    0.00 s
speedup  0.94
cpu  time for grad    0.01 s
wall time for grad    0.01 s
 E :    -50.44934091  G :  0.010644    pred/act E change: -0.200D-03 -0.219D-03
Maxdispl :   0.1426   ||displ|| :   0.1917   Lambda : -0.280D-03
Largest |displ|/coords:  0.1426 (   2)  0.0602 (   4)  0.0492 (  13)
................................................................................
.............................. CYCLE   47 ......................................
................................................................................
   1    -50.7384882 -0.507385E+02  0.106E-01    9.05       0.0  T
   2    -50.7384912 -0.294526E-05  0.798E-02    9.05       1.0  T
   3    -50.7384934 -0.227928E-05  0.940E-03    9.04       2.1  T
   4    -50.7384938 -0.311034E-06  0.363E-03    9.04       5.4  T
   5    -50.7384938 -0.215740E-07  0.898E-04    9.05      21.8  T
   6    -50.7384938 -0.104697E-08  0.502E-04    9.05      39.1  T
speedup  0.88
cpu  time for SCC    0.01 s
wall time for SCC    0.01 s
speedup  0.95
cpu  time for grad    0.01 s
wall time for grad    0.01 s
 E :    -50.44931571  G :  0.013314    pred/act E change: -0.253D-03  0.252D-04
Maxdispl :   0.0684   ||displ|| :   0.1209   Lambda : -0.321D-03
Largest |displ|/coords:  0.0684 (   2)  0.0479 (   3)  0.0371 (  14)
................................................................................
.............................. CYCLE   48 ......................................
................................................................................
   1    -50.7391307 -0.507391E+02  0.672E-02    9.03       0.0  T
   2    -50.7391324 -0.164481E-05  0.509E-02    9.04       1.0  T
   3    -50.7391339 -0.155374E-05  0.698E-03    9.05       2.8  T
   4    -50.7391341 -0.158766E-06  0.271E-03    9.05       7.2  T
   5    -50.7391341 -0.113075E-07  0.799E-04    9.04      24.5  T
speedup  1.00
cpu  time for SCC    0.00 s
wall time for SCC    0.01 s
speedup  1.00
cpu  time for grad    0.01 s
wall time for grad    0.01 s
 E :    -50.44950332  G :  0.006385    pred/act E change: -0.145D-03 -0.188D-03
Maxdispl :   0.1521   ||displ|| :   0.2241   Lambda : -0.161D-03
Largest |displ|/coords:  0.1521 (   2)  0.0629 (  11)  0.0616 (   1)
................................................................................
.............................. CYCLE   49 ......................................
................................................................................
   1    -50.7379299 -0.507379E+02  0.110E-01    9.01       0.0  T
   2    -50.7379331 -0.319958E-05  0.829E-02    9.01       1.0  T
   3    -50.7379359 -0.277219E-05  0.966E-03    9.02       2.0  T
   4    -50.7379363 -0.408234E-06  0.374E-03    9.02       5.2  T
   5    -50.7379363 -0.191461E-07  0.124E-03    9.02      15.8  T
   6    -50.7379363 -0.204899E-08  0.701E-04    9.02      28.0  T
speedup  0.88
cpu  time for SCC    0.00 s
wall time for SCC    0.01 s
speedup  0.95
cpu  time for grad    0.01 s
wall time for grad    0.01 s
 E :    -50.44956281  G :  0.009867    pred/act E change: -0.163D-03 -0.595D-04
Maxdispl :   0.2537   ||displ|| :   0.3420   Lambda : -0.248D-03
Largest |displ|/coords:  0.2537 (   2)  0.0747 (   6)  0.0734 (   4)
................................................................................
.............................. CYCLE   50 ......................................
................................................................................
   1    -50.7372766 -0.507373E+02  0.147E-01    8.98       0.0  T
   2    -50.7372811 -0.449683E-05  0.111E-01    8.99       1.0  T
   3    -50.7372854 -0.427915E-05  0.115E-02    9.00       1.7  T
   4    -50.7372859 -0.480307E-06  0.470E-03    9.00       4.2  T
   5    -50.7372859 -0.267100E-07  0.149E-03    9.00      13.2  T
   6    -50.7372859 -0.242196E-08  0.849E-04    9.00      23.1  T
speedup  1.03
cpu  time for SCC    0.01 s
wall time for SCC    0.01 s
speedup  1.01
cpu  time for grad    0.01 s
wall time for grad    0.01 s
 E :    -50.44966998  G :  0.014730    pred/act E change: -0.845D-04 -0.107D-03
Maxdispl :   0.1354   ||displ|| :   0.1951   Lambda : -0.248D-03
Largest |displ|/coords:  0.1354 (   2)  0.0772 (   4)  0.0507 (   7)
................................................................................
.............................. CYCLE   51 ......................................
................................................................................
   1    -50.7392022 -0.507392E+02  0.800E-02    8.98       0.0  T
   2    -50.7392042 -0.199912E-05  0.590E-02    8.98       1.0  T
   3    -50.7392056 -0.138300E-05  0.969E-03    8.97       2.0  T
   4    -50.7392058 -0.200852E-06  0.213E-03    8.97       9.2  T
   5    -50.7392058 -0.925514E-08  0.832E-04    8.97      23.6  T
speedup  1.04
cpu  time for SCC    0.00 s
wall time for SCC    0.00 s
speedup  1.02
cpu  time for grad    0.01 s
wall time for grad    0.01 s
 E :    -50.44980928  G :  0.008661    pred/act E change: -0.138D-03 -0.139D-03
Maxdispl :   0.2727   ||displ|| :   0.3633   Lambda : -0.185D-03
Largest |displ|/coords:  0.2727 (   2)  0.1266 (   4)  0.0946 (   1)
................................................................................
.............................. CYCLE   52 ......................................
................................................................................
   1    -50.7372086 -0.507372E+02  0.157E-01    8.89       0.0  T
   2    -50.7372129 -0.423769E-05  0.118E-01    8.89       1.0  T
   3    -50.7372163 -0.345617E-05  0.122E-02    8.89       1.6  T
   4    -50.7372169 -0.551337E-06  0.474E-03    8.89       4.1  T
   5    -50.7372169 -0.354958E-07  0.134E-03    8.89      14.6  T
   6    -50.7372169 -0.182877E-08  0.795E-04    8.89      24.7  T
speedup  1.05
cpu  time for SCC    0.01 s
wall time for SCC    0.01 s
speedup  1.02
cpu  time for grad    0.01 s
wall time for grad    0.01 s
 E :    -50.44992636  G :  0.007929    pred/act E change: -0.128D-03 -0.117D-03
Maxdispl :   0.2151   ||displ|| :   0.3135   Lambda : -0.261D-03
Largest |displ|/coords:  0.2151 (   2)  0.1376 (   4)  0.0827 (  18)

generating ANC from model Hessian ...
 Shifting diagonal of input Hessian by   5.120078770838768E-003
 Lowest  eigenvalues of input Hessian
    0.005000   -0.000000   -0.000000   -0.000000   -0.000000    0.000000
    0.000000    0.005171    0.005398    0.005741    0.006054    0.007016
    0.007418    0.008157    0.009006    0.010435    0.010542    0.012174
 Highest eigenvalues
    1.407269    1.410675    1.523115    2.518307    3.473610    3.626392
 
cpu  time for ANC gen    0.02 s
wall time for ANC gen    0.02 s
................................................................................
.............................. CYCLE   53 ......................................
................................................................................
   1    -50.7396515 -0.507397E+02  0.114E-01    8.93       0.0  T
   2    -50.7396554 -0.390642E-05  0.853E-02    8.92       1.0  T
   3    -50.7396581 -0.263696E-05  0.117E-02    8.91       1.7  T
   4    -50.7396586 -0.553190E-06  0.439E-03    8.92       4.5  T
   5    -50.7396586 -0.253634E-07  0.120E-03    8.92      16.3  T
   6    -50.7396586 -0.180147E-08  0.711E-04    8.92      27.6  T
   7    -50.7396586 -0.798650E-09  0.188E-04    8.92     104.4  T
speedup  1.01
cpu  time for SCC    0.01 s
wall time for SCC    0.01 s
speedup  1.04
cpu  time for grad    0.02 s
wall time for grad    0.02 s
 E :    -50.45004215  G :  0.011788    pred/act E change:  0.000D+00 -0.116D-03
Maxdispl :   0.1371   ||displ|| :   0.2360   Lambda : -0.677D-03
Largest |displ|/coords:  0.1371 (   3)  0.0882 (  10)  0.0876 (   1)
................................................................................
.............................. CYCLE   54 ......................................
................................................................................
   1    -50.7388488 -0.507388E+02  0.200E-01    8.88       0.0  T
   2    -50.7388552 -0.642006E-05  0.151E-01    8.89       1.0  T
   3    -50.7388629 -0.775453E-05  0.126E-02    8.90       1.6  T
   4    -50.7388634 -0.449954E-06  0.542E-03    8.90       3.6  T
   5    -50.7388634 -0.316000E-07  0.169E-03    8.90      11.6  T
   6    -50.7388634 -0.337054E-08  0.776E-04    8.90      25.3  T
speedup  1.05
cpu  time for SCC    0.01 s
wall time for SCC    0.01 s
speedup  1.02
cpu  time for grad    0.01 s
wall time for grad    0.01 s
 E :    -50.45060188  G :  0.008109    pred/act E change:  0.000D+00 -0.560D-03
Maxdispl :   0.3289   ||displ|| :   0.4979   Lambda : -0.946D-03
Largest |displ|/coords:  0.3289 (   3)  0.1933 (   1)  0.1560 (   9)
................................................................................
.............................. CYCLE   55 ......................................
................................................................................
   1    -50.7330968 -0.507331E+02  0.372E-01    8.76       0.0  T
   2    -50.7331267 -0.299277E-04  0.281E-01    8.78       1.0  T
   3    -50.7331548 -0.281403E-04  0.301E-02    8.84       1.0  T
   4    -50.7331585 -0.362610E-05  0.117E-02    8.83       1.7  T
   5    -50.7331587 -0.211210E-06  0.420E-03    8.82       4.7  T
   6    -50.7331587 -0.186266E-07  0.212E-03    8.82       9.2  T
   7    -50.7331587 -0.154544E-07  0.520E-04    8.82      37.7  T
speedup  0.91
cpu  time for SCC    0.01 s
wall time for SCC    0.01 s
speedup  0.96
cpu  time for grad    0.01 s
wall time for grad    0.01 s
 E :    -50.45031397  G :  0.043156    pred/act E change: -0.357D-03  0.288D-03
Maxdispl :   0.0759   ||displ|| :   0.1865   Lambda : -0.209D-02
Largest |displ|/coords:  0.0759 (   9)  0.0730 (   6)  0.0716 (   4)
................................................................................
.............................. CYCLE   56 ......................................
................................................................................
   1    -50.7386371 -0.507386E+02  0.216E-01    8.91       0.0  T
   2    -50.7386617 -0.245422E-04  0.164E-01    8.89       1.0  T
   3    -50.7386812 -0.195177E-04  0.276E-02    8.84       1.0  T
   4    -50.7386846 -0.339391E-05  0.753E-03    8.87       2.6  T
   5    -50.7386847 -0.937231E-07  0.354E-03    8.87       5.5  T
   6    -50.7386847 -0.107494E-07  0.161E-03    8.87      12.2  T
speedup  0.86
cpu  time for SCC    0.00 s
wall time for SCC    0.01 s
speedup  0.94
cpu  time for grad    0.01 s
wall time for grad    0.01 s
 E :    -50.45125218  G :  0.012433    pred/act E change: -0.590D-03 -0.938D-03
Maxdispl :   0.1853   ||displ|| :   0.2377   Lambda : -0.446D-03
Largest |displ|/coords:  0.1853 (   3)  0.0851 (   5)  0.0695 (   6)
................................................................................
.............................. CYCLE   57 ......................................
................................................................................
   1    -50.7390889 -0.507391E+02  0.108E-01    8.85       0.0  T
   2    -50.7390909 -0.191463E-05  0.812E-02    8.85       1.0  T
   3    -50.7390928 -0.197228E-05  0.747E-03    8.85       2.6  T
   4    -50.7390930 -0.184113E-06  0.305E-03    8.85       6.4  T
   5    -50.7390930 -0.127803E-07  0.875E-04    8.85      22.4  T
   6    -50.7390930 -0.908457E-09  0.487E-04    8.85      40.3  T
speedup  0.86
cpu  time for SCC    0.00 s
wall time for SCC    0.01 s
speedup  0.94
cpu  time for grad    0.01 s
wall time for grad    0.01 s
 E :    -50.45166859  G :  0.010060    pred/act E change: -0.108D-02 -0.416D-03
Maxdispl :   0.6646   ||displ|| :   0.8371   Lambda : -0.156D-02
Largest |displ|/coords:  0.6646 (   3)  0.2698 (   5)  0.2555 (   6)
................................................................................
.............................. CYCLE   58 ......................................
................................................................................
   1    -50.7361287 -0.507361E+02  0.379E-01    8.66       0.0  T
   2    -50.7361499 -0.211399E-04  0.286E-01    8.65       1.0  T
   3    -50.7361740 -0.241502E-04  0.245E-02    8.65       1.0  T
   4    -50.7361756 -0.159312E-05  0.109E-02    8.65       1.8  T
   5    -50.7361758 -0.145576E-06  0.350E-03    8.65       5.6  T
   6    -50.7361758 -0.145281E-07  0.183E-03    8.65      10.7  T
   7    -50.7361758 -0.663214E-08  0.473E-04    8.65      41.4  T
speedup  0.90
cpu  time for SCC    0.01 s
wall time for SCC    0.01 s
speedup  1.01
cpu  time for grad    0.01 s
wall time for grad    0.01 s
 E :    -50.45279853  G :  0.019900    pred/act E change: -0.236D-03 -0.113D-02
Maxdispl :   0.3090   ||displ|| :   0.3752   Lambda : -0.848D-03
Largest |displ|/coords:  0.3090 (   3)  0.0994 (   1)  0.0879 (   5)
................................................................................
.............................. CYCLE   59 ......................................
................................................................................
   1    -50.7396998 -0.507397E+02  0.165E-01    8.63       0.0  T
   2    -50.7397044 -0.457365E-05  0.124E-01    8.62       1.0  T
   3    -50.7397076 -0.321404E-05  0.122E-02    8.59       1.6  T
   4    -50.7397083 -0.662057E-06  0.381E-03    8.60       5.1  T
   5    -50.7397083 -0.303393E-07  0.159E-03    8.60      12.3  T
   6    -50.7397083 -0.200490E-08  0.846E-04    8.60      23.2  T
speedup  1.05
cpu  time for SCC    0.01 s
wall time for SCC    0.01 s
speedup  1.01
cpu  time for grad    0.01 s
wall time for grad    0.01 s
 E :    -50.45330551  G :  0.018029    pred/act E change: -0.133D-02 -0.507D-03
Maxdispl :   0.0785   ||displ|| :   0.1804   Lambda : -0.100D-02
Largest |displ|/coords:  0.0785 (  15)  0.0711 (  19)  0.0508 (  16)
................................................................................
.............................. CYCLE   60 ......................................
................................................................................
   1    -50.7481414 -0.507481E+02  0.138E-01    8.83       0.0  T
   2    -50.7481475 -0.610670E-05  0.102E-01    8.83       1.0  T
   3    -50.7481520 -0.448923E-05  0.162E-02    8.82       1.2  T
   4    -50.7481526 -0.637497E-06  0.439E-03    8.83       4.5  T
   5    -50.7481527 -0.333280E-07  0.156E-03    8.83      12.5  T
   6    -50.7481527 -0.222157E-08  0.823E-04    8.83      23.8  T
speedup  1.05
cpu  time for SCC    0.01 s
wall time for SCC    0.01 s
speedup  1.01
cpu  time for grad    0.01 s
wall time for grad    0.01 s
 E :    -50.45373039  G :  0.012006    pred/act E change: -0.484D-03 -0.425D-03
Maxdispl :   0.2738   ||displ|| :   0.4374   Lambda : -0.114D-02
Largest |displ|/coords:  0.2738 (   3)  0.1677 (   5)  0.0919 (  14)
................................................................................
.............................. CYCLE   61 ......................................
................................................................................
   1    -50.7417635 -0.507418E+02  0.283E-01    8.77       0.0  T
   2    -50.7417752 -0.116367E-04  0.213E-01    8.77       1.0  T
   3    -50.7417886 -0.134136E-04  0.186E-02    8.75       1.1  T
   4    -50.7417896 -0.983107E-06  0.888E-03    8.75       2.2  T
   5    -50.7417897 -0.108660E-06  0.295E-03    8.75       6.7  T
   6    -50.7417897 -0.101273E-07  0.149E-03    8.75      13.1  T
speedup  1.05
cpu  time for SCC    0.01 s
wall time for SCC    0.01 s
speedup  0.94
cpu  time for grad    0.01 s
wall time for grad    0.01 s
 E :    -50.45385278  G :  0.025758    pred/act E change: -0.517D-03 -0.122D-03
Maxdispl :   0.1139   ||displ|| :   0.1903   Lambda : -0.961D-03
Largest |displ|/coords:  0.1139 (   3)  0.0662 (   5)  0.0654 (  16)
................................................................................
.............................. CYCLE   62 ......................................
................................................................................
   1    -50.7450617 -0.507451E+02  0.115E-01    8.75       0.0  T
   2    -50.7450643 -0.262624E-05  0.859E-02    8.75       1.0  T
   3    -50.7450665 -0.219728E-05  0.977E-03    8.75       2.0  T
   4    -50.7450668 -0.311141E-06  0.325E-03    8.76       6.0  T
   5    -50.7450668 -0.138541E-07  0.134E-03    8.76      14.7  T
speedup  0.83
cpu  time for SCC    0.00 s
wall time for SCC    0.00 s
speedup  1.01
cpu  time for grad    0.01 s
wall time for grad    0.01 s
 E :    -50.45432810  G :  0.011665    pred/act E change: -0.680D-03 -0.475D-03
Maxdispl :   0.0550   ||displ|| :   0.1186   Lambda : -0.264D-03
Largest |displ|/coords:  0.0550 (   5)  0.0511 (   7)  0.0491 (   3)
................................................................................
.............................. CYCLE   63 ......................................
................................................................................
   1    -50.7440182 -0.507440E+02  0.798E-02    8.73       0.0  T
   2    -50.7440205 -0.225745E-05  0.599E-02    8.72       1.0  T
   3    -50.7440219 -0.145569E-05  0.881E-03    8.71       2.2  T
   4    -50.7440223 -0.332260E-06  0.256E-03    8.71       7.7  T
   5    -50.7440223 -0.129027E-07  0.963E-04    8.71      20.4  T
speedup  1.04
cpu  time for SCC    0.00 s
wall time for SCC    0.00 s
speedup  1.01
cpu  time for grad    0.01 s
wall time for grad    0.01 s
 E :    -50.45449903  G :  0.006739    pred/act E change: -0.498D-03 -0.171D-03
Maxdispl :   0.1931   ||displ|| :   0.3292   Lambda : -0.619D-03
Largest |displ|/coords:  0.1931 (   6)  0.1059 (   9)  0.0940 (   5)
................................................................................
.............................. CYCLE   64 ......................................
................................................................................
   1    -50.7432302 -0.507432E+02  0.237E-01    8.61       0.0  T
   2    -50.7432396 -0.939990E-05  0.180E-01    8.61       1.0  T
   3    -50.7432510 -0.113484E-04  0.170E-02    8.59       1.2  T
   4    -50.7432517 -0.694763E-06  0.793E-03    8.59       2.5  T
   5    -50.7432517 -0.747757E-07  0.227E-03    8.59       8.6  T
   6    -50.7432517 -0.638528E-08  0.133E-03    8.59      14.8  T
speedup  1.05
cpu  time for SCC    0.01 s
wall time for SCC    0.01 s
speedup  0.99
cpu  time for grad    0.01 s
wall time for grad    0.01 s
 E :    -50.45476036  G :  0.012702    pred/act E change: -0.134D-03 -0.261D-03
Maxdispl :   0.0571   ||displ|| :   0.1369   Lambda : -0.379D-03
Largest |displ|/coords:  0.0571 (   4)  0.0524 (  11)  0.0425 (  15)
................................................................................
.............................. CYCLE   65 ......................................
................................................................................
   1    -50.7415676 -0.507416E+02  0.959E-02    8.57       0.0  T
   2    -50.7415695 -0.190056E-05  0.720E-02    8.57       1.0  T
[...]
 E :    -50.45529071  G :  0.000831    pred/act E change:  0.000D+00 -0.181D-05
Maxdispl :   0.0052   ||displ|| :   0.0109   Lambda : -0.197D-05
Largest |displ|/coords:  0.0052 (   4)  0.0051 (   5)  0.0035 (  19)
................................................................................
.............................. CYCLE   83 ......................................
................................................................................
   1    -50.7442863 -0.507443E+02  0.100E-02    8.60       0.0  T
   2    -50.7442864 -0.262894E-07  0.764E-03    8.60       2.6  T
   3    -50.7442864 -0.267365E-07  0.881E-04    8.60      22.3  T
   4    -50.7442864 -0.307395E-08  0.330E-04    8.60      59.5  T
speedup  1.00
cpu  time for SCC    0.00 s
wall time for SCC    0.00 s
speedup  0.95
cpu  time for grad    0.01 s
wall time for grad    0.01 s
 E :    -50.45529194  G :  0.000588    pred/act E change:  0.000D+00 -0.123D-05
Maxdispl :   0.0064   ||displ|| :   0.0128   Lambda : -0.132D-05
Largest |displ|/coords:  0.0064 (   1)  0.0057 (   5)  0.0041 (   2)
................................................................................
.............................. CYCLE   84 ......................................
................................................................................
   1    -50.7443806 -0.507444E+02  0.796E-03    8.60       0.0  T
   2    -50.7443807 -0.208916E-07  0.598E-03    8.60       3.3  T
   3    -50.7443807 -0.121485E-07  0.100E-03    8.60      19.5  T
   4    -50.7443807 -0.326200E-08  0.369E-04    8.60      53.1  T
   5    -50.7443807 -0.183292E-09  0.810E-05    8.60     242.2  T
speedup  1.04
cpu  time for SCC    0.00 s
wall time for SCC    0.00 s
speedup  0.96
cpu  time for grad    0.01 s
wall time for grad    0.01 s
 E :    -50.45529288  G :  0.000331    pred/act E change: -0.986D-06 -0.940D-06
Maxdispl :   0.0120   ||displ|| :   0.0182   Lambda : -0.101D-05
Largest |displ|/coords:  0.0120 (   1)  0.0067 (   5)  0.0049 (   2)
................................................................................
.............................. CYCLE   85 ......................................
................................................................................
   1    -50.7444341 -0.507444E+02  0.106E-02    8.60       0.0  T
   2    -50.7444341 -0.222145E-07  0.798E-03    8.60       2.5  T
   3    -50.7444342 -0.131678E-07  0.108E-03    8.60      18.2  T
   4    -50.7444342 -0.374736E-08  0.419E-04    8.60      46.8  T
   5    -50.7444342 -0.164235E-09  0.866E-05    8.60     226.4  T
speedup  0.83
cpu  time for SCC    0.00 s
wall time for SCC    0.00 s
speedup  0.96
cpu  time for grad    0.01 s
wall time for grad    0.01 s
 E :    -50.45529338  G :  0.000261    pred/act E change: -0.659D-06 -0.494D-06
Maxdispl :   0.0078   ||displ|| :   0.0133   Lambda : -0.633D-06
Largest |displ|/coords:  0.0078 (   1)  0.0058 (   2)  0.0043 (   3)
................................................................................
.............................. CYCLE   86 ......................................
................................................................................
   1    -50.7444295 -0.507444E+02  0.821E-03    8.60       0.0  T
   2    -50.7444295 -0.150639E-07  0.619E-03    8.60       3.2  T
   3    -50.7444295 -0.931727E-08  0.871E-04    8.60      22.5  T
   4    -50.7444295 -0.249494E-08  0.313E-04    8.60      62.7  T
speedup  1.08
cpu  time for SCC    0.00 s
wall time for SCC    0.00 s
speedup  1.06
cpu  time for grad    0.01 s
wall time for grad    0.01 s
 E :    -50.45529350  G :  0.000310    pred/act E change: -0.503D-06 -0.127D-06
Maxdispl :   0.0016   ||displ|| :   0.0038   Lambda : -0.375D-06
Largest |displ|/coords:  0.0016 (   6)  0.0013 (   2)  0.0010 (   8)
................................................................................
.............................. CYCLE   87 ......................................
................................................................................
   1    -50.7444095 -0.507444E+02  0.247E-03    8.60       0.0  T
   2    -50.7444095 -0.185905E-08  0.188E-03    8.60      10.5  T
   3    -50.7444095 -0.151493E-08  0.257E-04    8.60      76.3  T
   4    -50.7444095 -0.254580E-09  0.850E-05    8.60     230.7  T
speedup  1.03
cpu  time for SCC    0.00 s
wall time for SCC    0.00 s
speedup  1.04
cpu  time for grad    0.01 s
wall time for grad    0.01 s
 E :    -50.45529375  G :  0.000203    pred/act E change: -0.316D-06 -0.252D-06
Maxdispl :   0.0050   ||displ|| :   0.0066   Lambda : -0.257D-06
Largest |displ|/coords:  0.0050 (   1)  0.0021 (   4)  0.0019 (   3)
................................................................................
.............................. CYCLE   88 ......................................
................................................................................
   1    -50.7443920 -0.507444E+02  0.397E-03    8.60       0.0  T
   2    -50.7443920 -0.172951E-08  0.298E-03    8.60       6.6  T
   3    -50.7443920 -0.162390E-08  0.272E-04    8.60      72.2  T
   4    -50.7443920 -0.189637E-09  0.712E-05    8.60     275.3  T
speedup  1.08
cpu  time for SCC    0.00 s
wall time for SCC    0.00 s
speedup  1.05
cpu  time for grad    0.01 s
wall time for grad    0.01 s
 E :    -50.45529393  G :  0.000145    pred/act E change: -0.188D-06 -0.181D-06
Maxdispl :   0.0105   ||displ|| :   0.0142   Lambda : -0.290D-06
Largest |displ|/coords:  0.0105 (   1)  0.0048 (   4)  0.0047 (   3)
................................................................................
.............................. CYCLE   89 ......................................
................................................................................
   1    -50.7443752 -0.507444E+02  0.808E-03    8.60       0.0  T
   2    -50.7443752 -0.533056E-08  0.606E-03    8.60       3.2  T
   3    -50.7443752 -0.554730E-08  0.593E-04    8.60      33.1  T
   4    -50.7443752 -0.486295E-09  0.190E-04    8.60     103.1  T
speedup  1.08
cpu  time for SCC    0.00 s
wall time for SCC    0.00 s
speedup  1.03
cpu  time for grad    0.01 s
wall time for grad    0.01 s
 E :    -50.45529413  G :  0.000144    pred/act E change: -0.128D-06 -0.193D-06
Maxdispl :   0.0093   ||displ|| :   0.0127   Lambda : -0.206D-06
Largest |displ|/coords:  0.0093 (   1)  0.0044 (   3)  0.0042 (   4)
................................................................................
.............................. CYCLE   90 ......................................
................................................................................
   1    -50.7443771 -0.507444E+02  0.762E-03    8.60       0.0  T
   2    -50.7443771 -0.503250E-08  0.572E-03    8.60       3.4  T
   3    -50.7443771 -0.501041E-08  0.601E-04    8.60      32.6  T
   4    -50.7443771 -0.480469E-09  0.189E-04    8.60     103.5  T
speedup  1.03
cpu  time for SCC    0.00 s
wall time for SCC    0.00 s
speedup  1.03
cpu  time for grad    0.01 s
wall time for grad    0.01 s
 E :    -50.45529428  G :  0.000134    pred/act E change: -0.145D-06 -0.150D-06
Maxdispl :   0.0074   ||displ|| :   0.0106   Lambda : -0.157D-06
Largest |displ|/coords:  0.0074 (   1)  0.0039 (   4)  0.0035 (   3)
................................................................................
.............................. CYCLE   91 ......................................
................................................................................
   1    -50.7443874 -0.507444E+02  0.679E-03    8.60       0.0  T
   2    -50.7443874 -0.520389E-08  0.509E-03    8.60       3.9  T
   3    -50.7443874 -0.421195E-08  0.616E-04    8.60      31.8  T
   4    -50.7443874 -0.671321E-09  0.193E-04    8.60     101.6  T
speedup  1.00
cpu  time for SCC    0.00 s
wall time for SCC    0.00 s
speedup  1.03
cpu  time for grad    0.01 s
wall time for grad    0.01 s
 E :    -50.45529439  G :  0.000111    pred/act E change: -0.103D-06 -0.115D-06
Maxdispl :   0.0042   ||displ|| :   0.0068   Lambda : -0.120D-06
Largest |displ|/coords:  0.0042 (   1)  0.0027 (   4)  0.0020 (   3)
................................................................................
.............................. CYCLE   92 ......................................
................................................................................
   1    -50.7443982 -0.507444E+02  0.497E-03    8.60       0.0  T
   2    -50.7443982 -0.356706E-08  0.372E-03    8.60       5.3  T
   3    -50.7443982 -0.250784E-08  0.506E-04    8.60      38.8  T
   4    -50.7443982 -0.516437E-09  0.151E-04    8.60     129.6  T
speedup  1.00
cpu  time for SCC    0.00 s
wall time for SCC    0.00 s
speedup  0.95
cpu  time for grad    0.01 s
wall time for grad    0.01 s
 E :    -50.45529449  G :  0.000103    pred/act E change: -0.785D-07 -0.956D-07
Maxdispl :   0.0039   ||displ|| :   0.0083   Lambda : -0.165D-06
Largest |displ|/coords:  0.0039 (   1)  0.0035 (   4)  0.0025 (   6)

   *** GEOMETRY OPTIMIZATION CONVERGED AFTER 92 ITERATIONS ***

------------------------------------------------------------------------
 total energy gain (kcal):     -0.0024
------------------------------------------------------------------------
================
 final structure:
================
$coord
        1.72922352475509        1.16846467094814       -3.41688274184833      S 
        1.23202902063500        3.81537833925739       -2.79708219611251      O 
        3.31858063167931       -0.05166415608761       -1.56178375768196      O 
       -0.60114506888351       -0.18446213069924       -3.94942668917969      O 
        3.26200683547591        1.18087395072833       -5.98676843146396      O 
        4.88467768732905        1.81872910024974       -5.53603115521904      H 
        2.60201774020367       -4.66970581173018        0.78691915907719      O 
        3.23382665570971       -3.22605365829396       -0.14761421918260      H 
       -3.38070997806075        1.21300738667551        2.55007468030747      O 
       -4.07088648747432        1.81330260502637        4.11247401463559      H 
        2.50841730579871       -2.80051806094782        5.42688813067901      O 
        1.26022056001327       -3.77813646404740        6.30084618103893      H 
        2.78186405975306       -3.66953982772423        3.79086143005291      H 
        1.40740615818758        1.47062519892311        2.94143781647146      O 
        1.93195461648430        0.08056702723586        4.06356470476272      H 
        2.23607265432796        1.12058148626104        1.33530468781770      H 
       -1.46528906646804        1.32027360970407        2.74751120741359      H 
       -2.30457492082446       -3.37218447385712       -0.26861200310108      O 
        0.78965288200014       -4.67728863684806        0.44836051593038      H 
       -2.88677996157878       -2.09781814857997        0.89792142547616      H 
       -1.71173929962254       -2.47263302672245       -1.75620078319899      H 
       -3.44831602462818        3.25564786237148       -1.99158045191676      N 
       -3.71127505294666        2.64051762793979       -0.10714279316545      H 
       -1.56589110870076        4.01342301936817       -2.15846508275581      H 
       -3.20289512146037        1.65809503043168       -3.11198528440781      H 
       -4.82844822296956        4.43051749944453       -2.61258836451878      H 
$end
 
 Bond Distances (Angstroems)
 ---------------------------
S1-O2=1.4624         S1-O3=1.4450         S1-O4=1.4535         S1-O5=1.5835         O2-S1=1.4624         O3-S1=1.4450         
O4-S1=1.4535         O5-S1=1.5835         O5-H6=0.9530         H6-O5=0.9530         O7-H8=0.9695         O7-H19=0.9757        
H8-O7=0.9695         O9-H10=0.9581        O9-H17=1.0205        H10-O9=0.9581        O11-H12=0.9580       O11-H13=0.9909       
H12-O11=0.9580       H13-O11=0.9909       O14-H15=0.9853       O14-H16=0.9742       H15-O14=0.9853       H16-O14=0.9742       
H17-O9=1.0205        O18-H20=0.9648       O18-H21=0.9720       H19-O7=0.9757        H20-O18=0.9648       H21-O18=0.9720       
N22-H23=1.0582       N22-H24=1.0774       N22-H25=1.0407       N22-H26=1.0139       H23-N22=1.0582       H24-N22=1.0774       
H25-N22=1.0407       H26-N22=1.0139       
 N  H  Rav=1.0475 sigma=0.0234  Rmin=1.0139  Rmax=1.0774     4
 O  H  Rav=0.9747 sigma=0.0182  Rmin=0.9530  Rmax=1.0205    11
 S  O  Rav=1.4861 sigma=0.0566  Rmin=1.4450  Rmax=1.5835     4
 
 selected bond angles (degree)
 --------------------
O3-S1-O2=112.35                O4-S1-O2=111.26                O4-S1-O3=113.92                O5-S1-O2=106.31                
O5-S1-O3=106.69                O5-S1-O4=105.67                H6-O5-S1=104.36                H19-O7-H8=104.39               
H17-O9-H10=105.77              
 
 selected dihedral angles (degree)
 ---------------------------------
H6-O5-S1-O2= 70.99            H6-O5-S1-O3=310.89            H6-O5-S1-O4=189.31            
 
 CMA Distance (Angstroems)
 ---------------------------
R(CMA):  3.1344

========================================================================
 FINAL SINGLEPOINT CALCULATION ON OPTIMIZED GEOMETRY
========================================================================

 Ncao       : 65
 Nao        : 64
 Nshell     : 38
 Nel        : 80
 T(el)      :   300.0
 intcut     :    25.0
 scfconv/Eh :  0.100E-05
   qconv/e  :  0.100E-03
 intneglect :  0.100E-07
 broydamp   :      0.250
 iter      E             dE          RMSdq      gap      omega  full diag
   1    -50.7443982 -0.507444E+02  0.594E-05    8.60       0.0  T
   2    -50.7443982 -0.213873E-11  0.379E-05    8.60     516.9  T
   3    -50.7443982 -0.115818E-11  0.579E-06    8.60    3384.5  T
speedup  1.00
cpu  time for SCC    0.00 s
wall time for SCC    0.00 s

   *** convergence criteria satisfied after 3 iterations ***

          eigenvalues
 #    :          28         29         30         31         32         33         34         35
 occ. :        2.000      2.000      2.000      2.000      2.000      2.000      2.000      2.000
 eps  :       -13.346    -13.187    -12.769    -12.567    -12.522    -12.414    -12.274    -12.195
 #    :          36         37         38         39         40         41         42         43
 occ. :        2.000      2.000      2.000      2.000      2.000      0.000      0.000      0.000
 eps  :       -11.961    -11.795    -11.552    -11.520    -11.210     -2.608     -1.191     -0.686
 #    :          44         45         46         47         48         49         50         51
 occ. :        0.000      0.000      0.000      0.000      0.000      0.000      0.000      0.000
 eps  :         0.521      0.826      1.075      2.248      3.027      3.839      4.345      4.637


   #   Z            q   n(s)   n(p)   n(d)      C6AA      α(0)
   1  16 S      1.674  1.585  1.791  0.950    89.369    15.911
   2   8 O     -0.736  1.771  4.964  0.000    29.690     7.306
   3   8 O     -0.735  1.769  4.966  0.000    29.678     7.304
   4   8 O     -0.732  1.762  4.970  0.000    29.588     7.293
   5   8 O     -0.583  1.749  4.834  0.000    24.760     6.717
   6   1 H      0.347  0.653  0.000  0.000     0.588     1.201
   7   8 O     -0.621  1.754  4.867  0.000    25.696     6.842
   8   1 H      0.309  0.691  0.000  0.000     0.695     1.309
   9   8 O     -0.642  1.756  4.886  0.000    26.210     6.909
  10   1 H      0.287  0.713  0.000  0.000     0.762     1.371
  11   8 O     -0.622  1.755  4.867  0.000    25.712     6.844
  12   1 H      0.276  0.724  0.000  0.000     0.796     1.402
  13   1 H      0.333  0.667  0.000  0.000     0.631     1.248
  14   8 O     -0.636  1.757  4.879  0.000    26.048     6.889
  15   1 H      0.340  0.660  0.000  0.000     0.613     1.230
  16   1 H      0.314  0.686  0.000  0.000     0.680     1.295
  17   1 H      0.350  0.650  0.000  0.000     0.589     1.205
  18   8 O     -0.623  1.752  4.871  0.000    25.742     6.848
  19   1 H      0.317  0.683  0.000  0.000     0.671     1.287
  20   1 H      0.304  0.696  0.000  0.000     0.710     1.323
  21   1 H      0.309  0.691  0.000  0.000     0.696     1.310
  22   7 N     -0.350  1.270  4.081  0.000    29.005     7.999
  23   1 H      0.299  0.701  0.000  0.000     0.718     1.327
  24   1 H      0.304  0.696  0.000  0.000     0.702     1.312
  25   1 H      0.282  0.718  0.000  0.000     0.770     1.375
  26   1 H      0.236  0.764  0.000  0.000     0.940     1.519

 Mol. C6AA /au·bohr⁶  :       5447.952029
 Mol. C8AA /au·bohr⁸  :     117925.069781
 Mol. α(0) /au        :        106.576070

 
 Wiberg/Mayer (AO) data. WBOs > 0.1 written file <wbo>
 largest (>0.05) Wiberg bond orders for each atom
           total WBO             WBO to atom ...
     1  S   4.856    O    3 1.327    O    4 1.318    O    2 1.274    O    5 0.899
     2  O   1.750    S    1 1.274    H   24 0.130    O    4 0.109    O    3 0.107    O    5 0.072    N   22 0.052
     3  O   1.731    S    1 1.327    O    4 0.110    O    2 0.107    O    5 0.078
     4  O   1.741    S    1 1.318    O    3 0.110    O    2 0.109    O    5 0.060    H   25 0.055
     5  O   1.978    S    1 0.899    H    6 0.863    O    3 0.078    O    2 0.072    O    4 0.060
     6  H   0.879    O    5 0.863
     7  O   1.884    H    8 0.872    H   19 0.854    H   13 0.079
     8  H   0.905    O    7 0.872
     9  O   1.894    H   10 0.909    H   17 0.739    H   23 0.108    O   14 0.054    N   22 0.050
    10  H   0.918    O    9 0.909
    11  O   1.858    H   12 0.919    H   13 0.810    H   15 0.063
    12  H   0.924    O   11 0.919
    13  H   0.889    O   11 0.810    O    7 0.079
    14  O   1.918    H   16 0.850    H   15 0.819    H   17 0.137    O    9 0.054
    15  H   0.884    O   14 0.819    O   11 0.063
    16  H   0.901    O   14 0.850
    17  H   0.878    O    9 0.739    O   14 0.137
    18  O   1.849    H   20 0.885    H   21 0.863
    19  H   0.899    O    7 0.854
    20  H   0.908    O   18 0.885
    21  H   0.905    O   18 0.863
    22  N   3.516    H   26 0.940    H   25 0.857    H   23 0.799    H   24 0.768    O    2 0.052    O    9 0.050
    23  H   0.911    N   22 0.799    O    9 0.108
    24  H   0.908    N   22 0.768    O    2 0.130
    25  H   0.921    N   22 0.857    O    4 0.055
    26  H   0.944    N   22 0.940
 MOs/occ written to file <molden.input>
 
molecular dipole:
                 x           y           z       tot (Debye)
 q only:       -2.302       1.884       0.037
   full:       -2.041       2.062      -0.314       7.419
molecular quadrupole (traceless):
                xx          xy          yy          xz          yz          zz
 q only:        8.170      -9.245      -4.432      -4.141      -5.938      -3.738
  q+dip:        8.803      -8.417      -7.806      -9.048      -7.433      -0.998
   full:        9.026      -8.325      -8.270      -9.719      -7.478      -0.756

SCC energy    :     -50.7443982
rep           :       0.2887869
ES            :       0.2701056
AES           :      -0.0723690
AXC           :      -0.0083334
disp          :      -0.0192548
XB            :       0.0000000
fix           :       0.0000000
total E       :     -50.4552945
atomizationE  :       4.9855987     3128.51
(atE without considering molecular charge,
 total energy contains solvation terms)
H-L gap (eV)  :          8.6028
optimized geometry written to: xtbopt.xyz


------------------------------------------------------------------------
 * finished run on 2019/09/16 at 12:28:10.985     
------------------------------------------------------------------------
 total:
 * wall-time:     0 d,  0 h,  0 min,  3.898 sec
 *  cpu-time:     0 d,  0 h,  0 min,  3.461 sec
 * ratio c/w:     0.888 speedup
 SCF:
 * wall-time:     0 d,  0 h,  0 min,  0.513 sec
 *  cpu-time:     0 d,  0 h,  0 min,  0.509 sec
 * ratio c/w:     0.993 speedup
 ANC optimizer:
 * wall-time:     0 d,  0 h,  0 min,  3.329 sec
 *  cpu-time:     0 d,  0 h,  0 min,  2.901 sec
 * ratio c/w:     0.871 speedup

