      -----------------------------------------------------------      
     |                   =====================                   |     
     |                           x T B                           |     
     |                   =====================                   |     
     |                         S. Grimme                         |     
     |          Mulliken Center for Theoretical Chemistry        |     
     |                    University of Bonn                     |     
     |                 Version 6.0.1 (SAW181210)                 |     
      -----------------------------------------------------------      

   This program is distributed in the hope that it will be useful,
   but WITHOUT ANY WARRANTY; without even the implied warranty of
   MERCHANTABILITY or FITNESS FOR A PARTICULAR PURPOSE.
   
   FOR NON-COMMERCIAL, ACADEMIA USE ONLY.
   
   Cite this work as:
   S. Grimme, C. Bannwarth, P. Shushkov, J. Comput. Theory Chem., 2017,
   13, 1989-2009.
   C. Bannwarth, S. Ehlert and S. Grimme., ChemRxiv, 2018, preprint.
   http://doi.org/10.26434/chemrxiv.7246238.v1
   
   for sTDA-xTB:
   S. Grimme and C. Bannwarth, J. Chem. Phys., 2016, 145, 054103.
   
   in the mass-spec context:
   V. Asgeirsson, C. Bauer and S. Grimme, Chem. Sci., 2017, 8, 4879.
   
   if GBSA is used:
   P. Shushkov, F. März and S. Grimme, unpublished.
   
   for ANC optimizer:
   S. Grimme, unpublished.
   Rational Function algorithm used in ANCopt:
   F. Eckert, P. Pulay, H.-J. Werner, J. Comput. Chem., 1997, 18, 1473.
   
   with help from (in alphabetical order)
   C. Bannwarth, F. Bohle, G. Brandenburg, E. Caldeweyher, M. Checinski,
   S. Dohm, S. Ehlert, S. Ehrlich, F. März, H. Neugebauer, J. Pisarek,
   P. Pracht, P. Shushkov, and S. Spicher.
   
 * started run on 2019/09/16 at 11:13:02.047     
========================================================================
 # omp threads = 1
========================================================================
number of atoms            : 23
number of electrons        : 72
charge                     : 0
spin                       : .0
first test random number   : .7580

########################################################################
# WARNING! Please study the warnings concerning your input carefully
#  - XTBPATH is not set, using XTBHOME instead
#  - the use of '-opt' is discouraged, please use '--opt' next time
#  - the use of '-chrg' is discouraged, please use '--chrg' next time
#  - the use of '-uhf' is discouraged, please use '--uhf' next time
########################################################################

           ------------------------------------------------- 
          |                 G F N 2 - x T B                 |
          | Geometry, Frequencies, Noncovalent interactions |
          |            JCTC 2018 parametrisation            |
           ------------------------------------------------- 
      method parameters     
 k(s)        :  1.8500
 k(p)        :  2.2300
 k(d)        :  2.2300
 k(f)        :  2.0000
 kEN (H0ij)  : -2.0000
 D4 a1       :  0.5200
 D4 a2       :  5.0000
 D4 s6       :  1.0000
 D4 s8       :  2.7000
 D4 s9       :  5.0000
 alphaj      :  2.0000


            Z     q(EN)     CN     RAES       Cart. coordinates
     1  S   6.0    0.68    4.11    3.88    -1.95442     3.02740    -1.00644
     2  O   6.0   -0.31    1.22    1.80    -1.30467     1.48894    -3.27340
     3  O   6.0   -0.33    1.25    1.80     0.24552     3.08618     0.74996
     4  O   6.0   -0.26    1.11    1.80    -2.58915     5.65215    -1.80388
     5  O   6.0   -0.31    1.22    1.80    -4.16938     1.88231     0.30156
     6  O   6.0   -0.40    1.68    1.81    -0.53814    -3.62620     0.78088
     7  H   1.0    0.17    0.95    1.42    -0.16665    -5.38283     1.29076
     8  O   6.0   -0.22    2.92    2.58    -4.33228    -2.61944    -1.60427
     9  H   1.0    0.16    1.17    1.46    -2.87727    -3.32333    -0.66760
    10  H   1.0    0.15    1.07    1.44    -4.91055    -0.99609    -0.88291
    11  H   1.0    0.13    0.96    1.43    -3.98676    -2.48664    -3.43579
    12  O   6.0   -0.22    2.93    2.61     2.38288    -1.47092    -2.04499
    13  H   1.0    0.16    1.16    1.46     1.41867    -2.55326    -0.86657
    14  H   1.0    0.15    1.07    1.44     1.26979    -0.32539    -3.01390
    15  H   1.0    0.12    1.06    1.44     3.75560    -0.54460    -1.17950
    16  O   6.0   -0.22    2.92    2.58    -0.97819    -0.37317     3.98994
    17  H   1.0    0.16    1.17    1.46    -0.74808    -1.87950     2.90927
    18  H   1.0    0.15    1.07    1.44    -0.19678     1.15055     3.24315
    19  H   1.0    0.13    0.96    1.43    -2.77314    -0.09459     4.42820
    20  N   5.0   -0.22    3.04    1.93     5.53568     1.82662     0.31891
    21  H   1.0    0.11    0.99    1.43     6.57546     2.94346    -0.85692
    22  H   1.0    0.11    0.99    1.43     6.45824     1.84573     2.00994
    23  H   1.0    0.13    1.02    1.43     3.88361     2.77261     0.61359

  Z AO/shell   Hii/eV     exponent
  1     Wed Apr 25 08:07:45 CEST 2018   EN: 2.200 GM2: 0.406  GM3: 0.0800  RAES: 1.40
     1s    -10.707211    1.230000
  7     Wed Apr 25 08:07:45 CEST 2018   EN: 3.040 GM2: 0.461  GM3:-0.0640  RAES: 1.90
     2s    -16.686243    2.339881
     2p    -12.523956    2.014332
  8     Wed Apr 25 08:07:45 CEST 2018   EN: 3.440 GM2: 0.452  GM3:-0.0517  RAES: 1.80
     2s    -20.229985    2.439742
     2p    -15.503117    2.137023
 16     Tue Apr 24 11:44:34 CEST 2018   EN: 2.580 GM2: 0.340  GM3:-0.0502  RAES: 3.10
     3s    -20.029654    1.981333
     3p    -11.377694    2.025643
     3d     -0.420282    1.702555
 no old-style atom pair restraining (fixing) potential

molecular fragmentation (1/2 indicates fragments):
11111222222222222222222
# atoms in fragment 1/2:     5    18
 fragment masses (1/2) :       96.06       91.11
CMA distance (Bohr)    :   5.007
constraining FC (au)   :  0.0500
           ------------------------------------------------- 
          |        Self-Consistent Charge Iterations        |
           ------------------------------------------------- 

 Ncao       : 59
 Nao        : 58
 Nshell     : 34
 Nel        : 72
 T(el)      :   300.0
 intcut     :    25.0
 scfconv/Eh :  0.100E-05
   qconv/e  :  0.100E-03
 intneglect :  0.100E-07
 broydamp   :      0.250
 iter      E             dE          RMSdq      gap      omega  full diag
   1    -45.4126667 -0.454127E+02  0.712E+00   10.29       0.0  T
   2    -45.4484828 -0.358160E-01  0.513E+00    9.68       1.0  T
   3    -45.4777123 -0.292295E-01  0.119E+00    6.40       1.0  T
   4    -45.4820218 -0.430957E-02  0.476E-01    6.56       1.0  T
   5    -45.4823240 -0.302111E-03  0.307E-01    6.37       1.0  T
   6    -45.4827102 -0.386218E-03  0.130E-01    6.40       1.0  T
   7    -45.4827971 -0.869099E-04  0.546E-02    6.50       1.0  T
   8    -45.4828108 -0.137311E-04  0.307E-02    6.50       1.0  T
   9    -45.4828152 -0.438820E-05  0.122E-02    6.50       1.7  T
  10    -45.4828159 -0.703640E-06  0.205E-03    6.50      10.2  T
  11    -45.4828159 -0.174100E-07  0.811E-04    6.50      25.7  T
  12    -45.4828159 -0.163595E-08  0.422E-04    6.50      49.4  T
speedup  1.02
cpu  time for SCC    0.01 s
wall time for SCC    0.01 s

   *** convergence criteria satisfied after 12 iterations ***

          eigenvalues
 #    :          24         25         26         27         28         29         30         31
 occ. :        2.000      2.000      2.000      2.000      2.000      2.000      2.000      2.000
 eps  :       -12.154    -12.049    -12.027    -11.674    -11.424    -10.558    -10.507     -9.883
 #    :          32         33         34         35         36         37         38         39
 occ. :        2.000      2.000      2.000      2.000      2.000      0.000      0.000      0.000
 eps  :        -9.814     -9.746     -9.290     -8.471     -8.452     -1.954     -0.528     -0.032
 #    :          40         41         42         43         44         45         46         47
 occ. :        0.000      0.000      0.000      0.000      0.000      0.000      0.000      0.000
 eps  :         0.719      1.769      2.528      2.997      3.116      3.680      4.988      5.751


   #   Z            q   n(s)   n(p)   n(d)      C6AA      α(0)
   1  16 S      1.447  1.610  1.933  1.009    94.746    16.383
   2   8 O     -0.802  1.775  5.027  0.000    31.637     7.541
   3   8 O     -0.803  1.774  5.029  0.000    31.666     7.545
   4   8 O     -0.747  1.794  4.953  0.000    30.017     7.346
   5   8 O     -0.804  1.776  5.029  0.000    31.719     7.551
   6   8 O     -0.833  1.825  5.008  0.000    32.567     7.653
   7   1 H      0.223  0.777  0.000  0.000     1.006     1.576
   8   8 O     -0.420  1.647  4.774  0.000    21.188     6.217
   9   1 H      0.405  0.595  0.000  0.000     0.471     1.076
  10   1 H      0.410  0.590  0.000  0.000     0.467     1.074
  11   1 H      0.382  0.618  0.000  0.000     0.520     1.133
  12   8 O     -0.453  1.652  4.801  0.000    21.846     6.313
  13   1 H      0.395  0.605  0.000  0.000     0.489     1.097
  14   1 H      0.401  0.599  0.000  0.000     0.483     1.092
  15   1 H      0.381  0.619  0.000  0.000     0.521     1.134
  16   8 O     -0.421  1.647  4.774  0.000    21.209     6.220
  17   1 H      0.405  0.595  0.000  0.000     0.471     1.076
  18   1 H      0.409  0.591  0.000  0.000     0.468     1.075
  19   1 H      0.380  0.620  0.000  0.000     0.523     1.136
  20   7 N     -0.465  1.383  4.082  0.000    32.251     8.434
  21   1 H      0.153  0.847  0.000  0.000     1.382     1.842
  22   1 H      0.147  0.853  0.000  0.000     1.423     1.869
  23   1 H      0.209  0.791  0.000  0.000     1.062     1.615

 Mol. C6AA /au·bohr⁶  :       4589.452274
 Mol. C8AA /au·bohr⁸  :     101627.895926
 Mol. α(0) /au        :         97.994002

 
 Wiberg/Mayer (AO) data. WBOs > 0.1 written file <wbo>
 largest (>0.05) Wiberg bond orders for each atom
           total WBO             WBO to atom ...
     1  S   5.043    O    4 1.369    O    2 1.224    O    5 1.220    O    3 1.201
     2  O   1.664    S    1 1.224    H   14 0.106    O    4 0.098    O    5 0.093    O    3 0.092
     3  O   1.675    S    1 1.201    H   18 0.110    O    4 0.095    O    2 0.092    O    5 0.089
     4  O   1.674    S    1 1.369    O    2 0.098    O    5 0.097    O    3 0.095
     5  O   1.663    S    1 1.220    H   10 0.108    O    4 0.097    O    2 0.093    O    3 0.089
     6  O   1.671    H    7 0.944    H   17 0.183    H    9 0.181    H   13 0.169    O   16 0.059    O    8 0.059    O   12 0.057
     7  H   0.950    O    6 0.944
     8  O   2.315    H   11 0.842    H   10 0.714    H    9 0.651    O    6 0.059
     9  H   0.836    O    8 0.651    O    6 0.181
    10  H   0.832    O    8 0.714    O    5 0.108
    11  H   0.854    O    8 0.842
    12  O   2.292    H   15 0.756    H   14 0.724    H   13 0.671    O    6 0.057
    13  H   0.844    O   12 0.671    O    6 0.169
    14  H   0.839    O   12 0.724    O    2 0.106
    15  H   0.855    O   12 0.756    N   20 0.091
    16  O   2.313    H   19 0.843    H   18 0.713    H   17 0.649    O    6 0.059
    17  H   0.836    O   16 0.649    O    6 0.183
    18  H   0.833    O   16 0.713    O    3 0.110
    19  H   0.855    O   16 0.843
    20  N   3.019    H   21 0.974    H   22 0.973    H   23 0.922    H   15 0.091
    21  H   0.977    N   20 0.974
    22  H   0.978    N   20 0.973
    23  H   0.956    N   20 0.922
 MOs/occ written to file <molden.input>
 
molecular dipole:
                 x           y           z       tot (Debye)
 q only:        1.428      -5.208       1.616
   full:        1.470      -4.691       1.719      13.238
molecular quadrupole (traceless):
                xx          xy          yy          xz          yz          zz
 q only:       10.935      22.483     -22.682      -4.475      12.804      11.747
  q+dip:       10.336      24.585     -20.161      -3.152      12.235       9.825
   full:       10.393      24.492     -20.267      -3.181      12.034       9.875

SCC energy    :     -45.4828159
rep           :       0.2431817
ES            :       0.3497391
AES           :      -0.0726507
AXC           :      -0.0078067
disp          :      -0.0173750
XB            :       0.0000000
fix           :       0.0000000
total E       :     -45.2394164
atomizationE  :       4.3224789     2712.40
(atE without considering molecular charge,
 total energy contains solvation terms)
H-L gap (eV)  :          6.4980
           ------------------------------------------------- 
          |                 ===============                 |
          |                   A N C O P T                   |
          |                 ===============                 |
          |          Approximate Normal Coordinate          |
          |           Rational Function Optimizer           |
           ------------------------------------------------- 
dumping coords to <xtbopt.coord> and <xtbopt.log>
 optlevel               2
 Maxcycle             460
 Maxmicro              25
 Econv         1.000000000000000E-007
 Gconv         2.000000000000000E-004
 Maxdispl       1.00000000000000     
 Hlow          5.000000000000000E-003
 S6             20.0000000000000     
 Nvar               63

generating ANC from model Hessian ...
 Shifting diagonal of input Hessian by   4.771260060286187E-003
 Lowest  eigenvalues of input Hessian
   -0.000000   -0.000000   -0.000000   -0.000000    0.000000    0.000000
    0.005000    0.005900    0.006247    0.006568    0.006635    0.007740
    0.008002    0.008523    0.009758    0.009902    0.010615    0.012055
 Highest eigenvalues
    1.576102    1.576973    1.578721    3.078013    3.078375    3.078680
 
cpu  time for ANC gen    0.02 s
wall time for ANC gen    0.02 s
................................................................................
.............................. CYCLE    1 ......................................
................................................................................
   1    -45.4828159 -0.454828E+02  0.690E-05    6.50       0.0  T
   2    -45.4828159 -0.774492E-11  0.502E-05    6.50     415.0  T
   3    -45.4828159 -0.494538E-11  0.351E-05    6.50     593.8  T
speedup  0.83
cpu  time for SCC    0.00 s
wall time for SCC    0.00 s
speedup  0.94
cpu  time for grad    0.01 s
wall time for grad    0.01 s
 E :    -45.23941633  G :  0.212735    pred/act E change:  0.000D+00  0.314D-07
Maxdispl :   0.2825   ||displ|| :   0.4843   Lambda : -0.547D-01
Largest |displ|/coords:  0.2825 (  26)  0.2007 (  17)  0.1350 (  47)
................................................................................
.............................. CYCLE    2 ......................................
................................................................................
   1    -45.5080734 -0.455081E+02  0.409E-01    6.83       0.0  T
   2    -45.5085806 -0.507278E-03  0.306E-01    7.04       1.0  T
   3    -45.5088218 -0.241156E-03  0.123E-01    7.37       1.0  T
   4    -45.5088391 -0.173153E-04  0.372E-02    7.41       1.0  T
   5    -45.5088443 -0.513792E-05  0.117E-02    7.39       1.8  T
   6    -45.5088445 -0.240129E-06  0.568E-03    7.39       3.7  T
   7    -45.5088446 -0.136100E-06  0.243E-03    7.38       8.6  T
speedup  1.13
cpu  time for SCC    0.01 s
wall time for SCC    0.01 s
speedup  0.99
cpu  time for grad    0.01 s
wall time for grad    0.01 s
 E :    -45.28641637  G :  0.141350    pred/act E change:  0.000D+00 -0.470D-01
Maxdispl :   0.3911   ||displ|| :   0.5301   Lambda : -0.391D-01
Largest |displ|/coords:  0.3911 (  26)  0.1977 (  17)  0.1316 (  15)
................................................................................
.............................. CYCLE    3 ......................................
................................................................................
   1    -45.5234121 -0.455234E+02  0.464E-01    7.72       0.0  T
   2    -45.5244176 -0.100553E-02  0.333E-01    7.94       1.0  T
   3    -45.5249093 -0.491652E-03  0.144E-01    8.26       1.0  T
   4    -45.5249351 -0.258377E-04  0.406E-02    8.30       1.0  T
   5    -45.5249400 -0.482536E-05  0.145E-02    8.30       1.4  T
   6    -45.5249404 -0.474348E-06  0.719E-03    8.29       2.9  T
   7    -45.5249406 -0.198026E-06  0.298E-03    8.29       7.0  T
   8    -45.5249407 -0.428208E-07  0.115E-03    8.29      18.1  T
speedup  0.98
cpu  time for SCC    0.01 s
wall time for SCC    0.01 s
speedup  1.01
cpu  time for grad    0.01 s
wall time for grad    0.01 s
 E :    -45.31717674  G :  0.089504    pred/act E change: -0.338D-01 -0.308D-01
Maxdispl :   0.2650   ||displ|| :   0.4382   Lambda : -0.166D-01
Largest |displ|/coords:  0.2650 (  26)  0.1542 (  17)  0.1366 (   7)
................................................................................
.............................. CYCLE    4 ......................................
................................................................................
   1    -45.5294534 -0.455295E+02  0.382E-01    8.49       0.0  T
   2    -45.5303318 -0.878453E-03  0.265E-01    8.62       1.0  T
   3    -45.5307515 -0.419720E-03  0.122E-01    8.80       1.0  T
   4    -45.5307702 -0.186339E-04  0.325E-02    8.84       1.0  T
   5    -45.5307726 -0.242907E-05  0.119E-02    8.84       1.8  T
   6    -45.5307729 -0.332192E-06  0.618E-03    8.83       3.4  T
   7    -45.5307730 -0.109184E-06  0.233E-03    8.83       9.0  T
   8    -45.5307731 -0.221212E-07  0.102E-03    8.83      20.4  T
speedup  1.00
cpu  time for SCC    0.01 s
wall time for SCC    0.01 s
speedup  1.01
cpu  time for grad    0.01 s
wall time for grad    0.01 s
 E :    -45.32822012  G :  0.057642    pred/act E change: -0.250D-01 -0.110D-01
Maxdispl :   0.1459   ||displ|| :   0.3382   Lambda : -0.484D-02
Largest |displ|/coords:  0.1459 (   4)  0.1329 (   8)  0.1166 (   7)
................................................................................
.............................. CYCLE    5 ......................................
................................................................................
   1    -45.5329230 -0.455329E+02  0.208E-01    8.80       0.0  T
   2    -45.5330217 -0.986655E-04  0.150E-01    8.84       1.0  T
   3    -45.5330623 -0.405938E-04  0.605E-02    8.91       1.0  T
   4    -45.5330655 -0.318369E-05  0.126E-02    8.91       1.7  T
   5    -45.5330661 -0.633123E-06  0.361E-03    8.91       5.8  T
   6    -45.5330661 -0.179702E-07  0.171E-03    8.91      12.2  T
speedup  0.89
cpu  time for SCC    0.00 s
wall time for SCC    0.00 s
speedup  0.96
cpu  time for grad    0.01 s
wall time for grad    0.01 s
 E :    -45.33158052  G :  0.038995    pred/act E change: -0.992D-02 -0.336D-02
Maxdispl :   0.1953   ||displ|| :   0.3846   Lambda : -0.509D-02
Largest |displ|/coords:  0.1953 (   4)  0.1528 (   1)  0.1109 (  20)
................................................................................
.............................. CYCLE    6 ......................................
................................................................................
   1    -45.5389589 -0.455390E+02  0.308E-01    9.01       0.0  T
   2    -45.5394530 -0.494016E-03  0.214E-01    9.08       1.0  T
   3    -45.5396715 -0.218496E-03  0.957E-02    9.16       1.0  T
   4    -45.5396811 -0.967283E-05  0.236E-02    9.17       1.0  T
   5    -45.5396822 -0.106347E-05  0.807E-03    9.17       2.6  T
   6    -45.5396823 -0.131940E-06  0.414E-03    9.17       5.0  T
   7    -45.5396824 -0.396825E-07  0.147E-03    9.17      14.2  T
speedup  0.94
cpu  time for SCC    0.00 s
wall time for SCC    0.01 s
speedup  0.98
cpu  time for grad    0.01 s
wall time for grad    0.01 s
 E :    -45.33412906  G :  0.033479    pred/act E change: -0.270D-02 -0.255D-02
Maxdispl :   0.0885   ||displ|| :   0.1755   Lambda : -0.174D-02
Largest |displ|/coords:  0.0885 (   1)  0.0700 (  13)  0.0557 (   6)
................................................................................
.............................. CYCLE    7 ......................................
................................................................................
   1    -45.5442257 -0.455442E+02  0.124E-01    9.14       0.0  T
   2    -45.5442522 -0.265127E-04  0.901E-02    9.14       1.0  T
   3    -45.5442643 -0.120804E-04  0.268E-02    9.16       1.0  T
   4    -45.5442664 -0.210376E-05  0.699E-03    9.16       3.0  T
   5    -45.5442665 -0.118193E-06  0.244E-03    9.16       8.5  T
   6    -45.5442665 -0.702665E-08  0.125E-03    9.16      16.7  T
speedup  1.09
cpu  time for SCC    0.01 s
wall time for SCC    0.00 s
speedup  0.96
cpu  time for grad    0.01 s
wall time for grad    0.01 s
 E :    -45.33512959  G :  0.029484    pred/act E change: -0.292D-02 -0.100D-02
Maxdispl :   0.0957   ||displ|| :   0.2095   Lambda : -0.132D-02
Largest |displ|/coords:  0.0957 (   4)  0.0760 (  14)  0.0751 (   9)
................................................................................
.............................. CYCLE    8 ......................................
................................................................................
   1    -45.5430731 -0.455431E+02  0.151E-01    9.07       0.0  T
   2    -45.5431006 -0.274770E-04  0.111E-01    9.07       1.0  T
   3    -45.5431138 -0.132472E-04  0.275E-02    9.07       1.0  T
   4    -45.5431167 -0.284595E-05  0.895E-03    9.08       2.3  T
   5    -45.5431168 -0.131229E-06  0.283E-03    9.07       7.4  T
   6    -45.5431168 -0.952688E-08  0.159E-03    9.07      13.1  T
speedup  1.09
cpu  time for SCC    0.00 s
wall time for SCC    0.00 s
speedup  1.04
cpu  time for grad    0.01 s
wall time for grad    0.01 s
 E :    -45.33596514  G :  0.021873    pred/act E change: -0.895D-03 -0.836D-03
Maxdispl :   0.1403   ||displ|| :   0.2507   Lambda : -0.173D-02
Largest |displ|/coords:  0.1403 (   2)  0.0768 (   1)  0.0669 (  10)
................................................................................
.............................. CYCLE    9 ......................................
................................................................................
   1    -45.5459605 -0.455460E+02  0.232E-01    9.02       0.0  T
   2    -45.5461439 -0.183430E-03  0.167E-01    9.02       1.0  T
   3    -45.5462271 -0.831286E-04  0.691E-02    9.02       1.0  T
   4    -45.5462335 -0.643685E-05  0.217E-02    9.03       1.0  T
   5    -45.5462343 -0.842406E-06  0.638E-03    9.03       3.3  T
   6    -45.5462344 -0.575332E-07  0.351E-03    9.03       5.9  T
   7    -45.5462344 -0.187297E-07  0.109E-03    9.03      19.1  T
speedup  0.94
cpu  time for SCC    0.00 s
wall time for SCC    0.01 s
speedup  0.99
cpu  time for grad    0.01 s
wall time for grad    0.01 s
 E :    -45.33706400  G :  0.025273    pred/act E change: -0.688D-03 -0.110D-02
Maxdispl :   0.0807   ||displ|| :   0.2398   Lambda : -0.169D-02
Largest |displ|/coords:  0.0807 (   8)  0.0751 (  20)  0.0665 (  10)
................................................................................
.............................. CYCLE   10 ......................................
................................................................................
   1    -45.5541335 -0.455541E+02  0.256E-01    8.97       0.0  T
   2    -45.5543345 -0.201053E-03  0.187E-01    8.87       1.0  T
   3    -45.5544337 -0.991860E-04  0.741E-02    8.69       1.0  T
   4    -45.5544430 -0.933003E-05  0.259E-02    8.68       1.0  T
   5    -45.5544442 -0.118578E-05  0.719E-03    8.68       2.9  T
   6    -45.5544443 -0.655343E-07  0.397E-03    8.68       5.3  T
   7    -45.5544443 -0.181979E-07  0.114E-03    8.68      18.3  T
speedup  0.96
cpu  time for SCC    0.01 s
wall time for SCC    0.01 s
speedup  0.99
cpu  time for grad    0.01 s
wall time for grad    0.01 s
 E :    -45.33778181  G :  0.036759    pred/act E change: -0.917D-03 -0.718D-03
Maxdispl :   0.1020   ||displ|| :   0.2646   Lambda : -0.178D-02
Largest |displ|/coords:  0.1020 (  14)  0.0916 (  13)  0.0804 (   4)
................................................................................
.............................. CYCLE   11 ......................................
................................................................................
   1    -45.5519601 -0.455520E+02  0.270E-01    8.66       0.0  T
   2    -45.5520486 -0.885679E-04  0.196E-01    8.61       1.0  T
   3    -45.5520884 -0.398043E-04  0.510E-02    8.49       1.0  T
   4    -45.5520970 -0.851646E-05  0.168E-02    8.50       1.2  T
   5    -45.5520974 -0.432728E-06  0.559E-03    8.51       3.7  T
   6    -45.5520974 -0.479190E-07  0.316E-03    8.51       6.6  T
speedup  1.11
cpu  time for SCC    0.00 s
wall time for SCC    0.00 s
speedup  1.06
cpu  time for grad    0.01 s
wall time for grad    0.01 s
 E :    -45.33855394  G :  0.032363    pred/act E change: -0.896D-03 -0.772D-03
Maxdispl :   0.0923   ||displ|| :   0.2307   Lambda : -0.213D-02
Largest |displ|/coords:  0.0923 (   7)  0.0888 (  12)  0.0642 (   9)
................................................................................
.............................. CYCLE   12 ......................................
................................................................................
   1    -45.5572794 -0.455573E+02  0.174E-01    8.64       0.0  T
   2    -45.5573136 -0.341881E-04  0.128E-01    8.66       1.0  T
   3    -45.5573292 -0.156181E-04  0.367E-02    8.70       1.0  T
   4    -45.5573325 -0.335811E-05  0.119E-02    8.70       1.8  T
   5    -45.5573327 -0.221177E-06  0.349E-03    8.70       6.0  T
   6    -45.5573328 -0.186250E-07  0.178E-03    8.70      11.7  T
speedup  0.89
cpu  time for SCC    0.00 s
wall time for SCC    0.00 s
speedup  0.96
cpu  time for grad    0.01 s
wall time for grad    0.01 s
 E :    -45.33961638  G :  0.024132    pred/act E change: -0.953D-03 -0.106D-02
Maxdispl :   0.1394   ||displ|| :   0.2952   Lambda : -0.239D-02
Largest |displ|/coords:  0.1394 (  21)  0.1015 (   6)  0.0931 (   9)
................................................................................
.............................. CYCLE   13 ......................................
................................................................................
   1    -45.5637408 -0.455637E+02  0.187E-01    8.79       0.0  T
   2    -45.5637829 -0.421485E-04  0.143E-01    8.80       1.0  T
   3    -45.5638099 -0.269780E-04  0.457E-02    8.81       1.0  T
   4    -45.5638149 -0.505605E-05  0.181E-02    8.81       1.2  T
   5    -45.5638154 -0.492149E-06  0.508E-03    8.80       4.1  T
   6    -45.5638155 -0.402165E-07  0.265E-03    8.80       7.9  T
speedup  0.91
cpu  time for SCC    0.00 s
wall time for SCC    0.00 s
speedup  0.96
cpu  time for grad    0.01 s
wall time for grad    0.01 s
 E :    -45.34069570  G :  0.029081    pred/act E change: -0.112D-02 -0.108D-02
Maxdispl :   0.1110   ||displ|| :   0.3143   Lambda : -0.233D-02
Largest |displ|/coords:  0.1110 (   8)  0.1096 (  21)  0.0952 (  24)
................................................................................
.............................. CYCLE   14 ......................................
................................................................................
   1    -45.5692309 -0.455692E+02  0.195E-01    8.89       0.0  T
   2    -45.5693040 -0.730935E-04  0.146E-01    8.90       1.0  T
   3    -45.5693410 -0.370053E-04  0.531E-02    8.89       1.0  T
   4    -45.5693480 -0.694829E-05  0.154E-02    8.89       1.4  T
   5    -45.5693484 -0.472847E-06  0.513E-03    8.89       4.1  T
   6    -45.5693485 -0.269388E-07  0.250E-03    8.89       8.4  T
speedup  1.09
cpu  time for SCC    0.01 s
wall time for SCC    0.00 s
speedup  1.05
cpu  time for grad    0.01 s
wall time for grad    0.01 s
 E :    -45.34217350  G :  0.035243    pred/act E change: -0.130D-02 -0.148D-02
Maxdispl :   0.1984   ||displ|| :   0.4310   Lambda : -0.288D-02
Largest |displ|/coords:  0.1984 (  21)  0.1534 (  18)  0.1517 (   1)
................................................................................
.............................. CYCLE   15 ......................................
................................................................................
   1    -45.5757064 -0.455757E+02  0.326E-01    8.88       0.0  T
   2    -45.5759349 -0.228542E-03  0.239E-01    8.92       1.0  T
   3    -45.5760601 -0.125193E-03  0.886E-02    8.98       1.0  T
   4    -45.5760807 -0.205652E-04  0.206E-02    8.96       1.0  T
   5    -45.5760815 -0.841325E-06  0.810E-03    8.96       2.6  T
   6    -45.5760816 -0.354323E-07  0.393E-03    8.96       5.3  T
   7    -45.5760816 -0.227535E-07  0.103E-03    8.96      20.2  T
speedup  1.15
cpu  time for SCC    0.01 s
wall time for SCC    0.01 s
speedup  1.00
cpu  time for grad    0.01 s
wall time for grad    0.01 s
 E :    -45.34426461  G :  0.044603    pred/act E change: -0.128D-02 -0.209D-02
Maxdispl :   0.2340   ||displ|| :   0.4788   Lambda : -0.406D-02
Largest |displ|/coords:  0.2340 (  21)  0.2262 (  20)  0.1753 (   1)
................................................................................
.............................. CYCLE   16 ......................................
................................................................................
   1    -45.5695137 -0.455695E+02  0.446E-01    8.81       0.0  T
   2    -45.5699544 -0.440709E-03  0.318E-01    8.88       1.0  T
   3    -45.5701899 -0.235520E-03  0.111E-01    8.85       1.0  T
   4    -45.5702221 -0.321867E-04  0.206E-02    8.85       1.0  T
   5    -45.5702227 -0.558709E-06  0.983E-03    8.85       2.1  T
   6    -45.5702228 -0.950489E-07  0.396E-03    8.85       5.3  T
   7    -45.5702228 -0.247766E-07  0.138E-03    8.85      15.1  T
speedup  0.94
cpu  time for SCC    0.00 s
wall time for SCC    0.01 s
speedup  0.99
cpu  time for grad    0.01 s
wall time for grad    0.01 s
 E :    -45.34626521  G :  0.063453    pred/act E change: -0.171D-02 -0.200D-02
Maxdispl :   0.1100   ||displ|| :   0.3096   Lambda : -0.578D-02
Largest |displ|/coords:  0.1100 (  17)  0.0813 (  18)  0.0779 (   4)
................................................................................
.............................. CYCLE   17 ......................................
................................................................................
   1    -45.5936659 -0.455937E+02  0.309E-01    8.87       0.0  T
   2    -45.5938434 -0.177502E-03  0.225E-01    8.84       1.0  T
   3    -45.5939482 -0.104848E-03  0.782E-02    8.76       1.0  T
   4    -45.5939606 -0.123918E-04  0.281E-02    8.75       1.0  T
   5    -45.5939624 -0.179699E-05  0.891E-03    8.76       2.3  T
   6    -45.5939625 -0.782955E-07  0.450E-03    8.76       4.6  T
   7    -45.5939625 -0.207208E-07  0.124E-03    8.76      16.8  T
speedup  0.94
cpu  time for SCC    0.00 s
wall time for SCC    0.01 s
speedup  1.00
cpu  time for grad    0.01 s
wall time for grad    0.01 s
 E :    -45.34731606  G :  0.060902    pred/act E change: -0.250D-02 -0.105D-02
Maxdispl :   0.1320   ||displ|| :   0.3238   Lambda : -0.955D-02
Largest |displ|/coords:  0.1320 (  20)  0.0866 (  11)  0.0792 (  49)
................................................................................
.............................. CYCLE   18 ......................................
................................................................................
   1    -45.5716111 -0.455716E+02  0.401E-01    8.60       0.0  T
   2    -45.5721403 -0.529177E-03  0.283E-01    8.60       1.0  T
   3    -45.5724154 -0.275124E-03  0.116E-01    8.59       1.0  T
   4    -45.5724396 -0.241527E-04  0.363E-02    8.60       1.0  T
   5    -45.5724428 -0.321962E-05  0.124E-02    8.60       1.7  T
   6    -45.5724430 -0.165442E-06  0.666E-03    8.60       3.1  T
   7    -45.5724430 -0.431310E-07  0.171E-03    8.59      12.2  T
   8    -45.5724430 -0.567593E-08  0.432E-04    8.60      48.3  T
speedup  1.00
cpu  time for SCC    0.01 s
wall time for SCC    0.01 s
speedup  1.02
cpu  time for grad    0.01 s
wall time for grad    0.01 s
 E :    -45.34897338  G :  0.055806    pred/act E change: -0.317D-02 -0.166D-02
Maxdispl :   0.1168   ||displ|| :   0.3544   Lambda : -0.778D-02
Largest |displ|/coords:  0.1168 (  21)  0.1117 (   1)  0.1054 (  24)
................................................................................
.............................. CYCLE   19 ......................................
................................................................................
   1    -45.6045293 -0.456045E+02  0.309E-01    8.71       0.0  T
   2    -45.6047378 -0.208463E-03  0.228E-01    8.65       1.0  T
   3    -45.6048741 -0.136361E-03  0.880E-02    8.53       1.0  T
   4    -45.6048917 -0.176248E-04  0.339E-02    8.51       1.0  T
   5    -45.6048944 -0.262301E-05  0.109E-02    8.51       1.9  T
   6    -45.6048945 -0.101950E-06  0.489E-03    8.51       4.3  T
   7    -45.6048945 -0.203323E-07  0.143E-03    8.51      14.6  T
speedup  1.11
cpu  time for SCC    0.01 s
wall time for SCC    0.01 s
speedup  1.07
cpu  time for grad    0.01 s
wall time for grad    0.01 s
 E :    -45.35158215  G :  0.064819    pred/act E change: -0.528D-02 -0.261D-02
Maxdispl :   0.1799   ||displ|| :   0.3612   Lambda : -0.711D-02
Largest |displ|/coords:  0.1799 (  21)  0.1308 (  18)  0.1221 (  22)
................................................................................
.............................. CYCLE   20 ......................................
................................................................................
   1    -45.5843661 -0.455844E+02  0.323E-01    8.41       0.0  T
   2    -45.5847099 -0.343870E-03  0.232E-01    8.44       1.0  T
   3    -45.5849040 -0.194105E-03  0.978E-02    8.49       1.0  T
   4    -45.5849305 -0.264658E-04  0.261E-02    8.50       1.0  T
   5    -45.5849319 -0.137767E-05  0.107E-02    8.50       1.9  T
   6    -45.5849320 -0.133767E-06  0.477E-03    8.50       4.4  T
   7    -45.5849320 -0.196064E-07  0.140E-03    8.49      14.9  T
speedup  0.94
cpu  time for SCC    0.00 s
wall time for SCC    0.01 s
speedup  1.00
cpu  time for grad    0.01 s
wall time for grad    0.01 s
 E :    -45.35143776  G :  0.041100    pred/act E change: -0.438D-02  0.144D-03
Maxdispl :   0.1795   ||displ|| :   0.3487   Lambda : -0.539D-02
Largest |displ|/coords:  0.1795 (  21)  0.1350 (  22)  0.1161 (  20)
................................................................................
.............................. CYCLE   21 ......................................
................................................................................
   1    -45.5935224 -0.455935E+02  0.313E-01    8.45       0.0  T
   2    -45.5938661 -0.343702E-03  0.225E-01    8.40       1.0  T
   3    -45.5940641 -0.197912E-03  0.944E-02    8.33       1.0  T
   4    -45.5940865 -0.224400E-04  0.175E-02    8.32       1.2  T
   5    -45.5940868 -0.333432E-06  0.885E-03    8.32       2.4  T
   6    -45.5940869 -0.424228E-07  0.345E-03    8.32       6.0  T
   7    -45.5940869 -0.134642E-07  0.823E-04    8.32      25.4  T
speedup  0.96
cpu  time for SCC    0.01 s
wall time for SCC    0.01 s
speedup  0.92
cpu  time for grad    0.01 s
wall time for grad    0.01 s
 E :    -45.35466006  G :  0.035598    pred/act E change: -0.402D-02 -0.322D-02
Maxdispl :   0.1074   ||displ|| :   0.2450   Lambda : -0.352D-02
Largest |displ|/coords:  0.1074 (  17)  0.0671 (  59)  0.0587 (  16)
................................................................................
.............................. CYCLE   22 ......................................
................................................................................
   1    -45.6148392 -0.456148E+02  0.215E-01    8.38       0.0  T
   2    -45.6149022 -0.629985E-04  0.157E-01    8.35       1.0  T
   3    -45.6149443 -0.421407E-04  0.473E-02    8.29       1.0  T
   4    -45.6149502 -0.582779E-05  0.215E-02    8.29       1.0  T
   5    -45.6149511 -0.945073E-06  0.628E-03    8.29       3.3  T
   6    -45.6149511 -0.412946E-07  0.306E-03    8.29       6.8  T
   7    -45.6149512 -0.751039E-08  0.843E-04    8.29      24.7  T
speedup  0.98
cpu  time for SCC    0.01 s
wall time for SCC    0.01 s
speedup  1.02
cpu  time for grad    0.01 s
wall time for grad    0.01 s
 E :    -45.35604283  G :  0.037544    pred/act E change: -0.302D-02 -0.138D-02
Maxdispl :   0.0622   ||displ|| :   0.1541   Lambda : -0.187D-02
Largest |displ|/coords:  0.0622 (   1)  0.0580 (  20)  0.0529 (  27)
................................................................................
.............................. CYCLE   23 ......................................
................................................................................
   1    -45.6130073 -0.456130E+02  0.105E-01    8.25       0.0  T
   2    -45.6130169 -0.964047E-05  0.772E-02    8.24       1.0  T
   3    -45.6130230 -0.610776E-05  0.194E-02    8.21       1.1  T
   4    -45.6130239 -0.909614E-06  0.749E-03    8.21       2.8  T
   5    -45.6130240 -0.825067E-07  0.177E-03    8.21      11.7  T
   6    -45.6130240 -0.423339E-08  0.105E-03    8.21      19.9  T
speedup  0.91
cpu  time for SCC    0.00 s
wall time for SCC    0.00 s
speedup  0.98
cpu  time for grad    0.01 s
wall time for grad    0.01 s
 E :    -45.35732239  G :  0.021074    pred/act E change: -0.187D-02 -0.128D-02
Maxdispl :   0.1270   ||displ|| :   0.2810   Lambda : -0.209D-02
Largest |displ|/coords:  0.1270 (   6)  0.0819 (   9)  0.0786 (  27)
................................................................................
.............................. CYCLE   24 ......................................
................................................................................
   1    -45.6138318 -0.456138E+02  0.207E-01    8.14       0.0  T
   2    -45.6138577 -0.258314E-04  0.152E-01    8.12       1.0  T
   3    -45.6138745 -0.168603E-04  0.356E-02    8.07       1.0  T
   4    -45.6138773 -0.275770E-05  0.127E-02    8.07       1.6  T
   5    -45.6138775 -0.236690E-06  0.387E-03    8.07       5.4  T
   6    -45.6138775 -0.217219E-07  0.221E-03    8.07       9.4  T
speedup  0.89
cpu  time for SCC    0.00 s
wall time for SCC    0.00 s
speedup  0.99
cpu  time for grad    0.01 s
wall time for grad    0.01 s
 E :    -45.35806063  G :  0.022846    pred/act E change: -0.959D-03 -0.738D-03
Maxdispl :   0.0563   ||displ|| :   0.1440   Lambda : -0.896D-03
Largest |displ|/coords:  0.0563 (  10)  0.0411 (  27)  0.0411 (   2)
................................................................................
.............................. CYCLE   25 ......................................
................................................................................
   1    -45.6177798 -0.456178E+02  0.112E-01    8.11       0.0  T
   2    -45.6177875 -0.763783E-05  0.826E-02    8.10       1.0  T
   3    -45.6177920 -0.452464E-05  0.180E-02    8.09       1.2  T
   4    -45.6177928 -0.860826E-06  0.704E-03    8.09       3.0  T
   5    -45.6177929 -0.746899E-07  0.200E-03    8.09      10.4  T
   6    -45.6177929 -0.525005E-08  0.113E-03    8.09      18.5  T
speedup  0.89
cpu  time for SCC    0.00 s
wall time for SCC    0.00 s
speedup  0.99
cpu  time for grad    0.01 s
wall time for grad    0.01 s
 E :    -45.35856095  G :  0.012262    pred/act E change: -0.113D-02 -0.500D-03
Maxdispl :   0.0756   ||displ|| :   0.1314   Lambda : -0.438D-03
Largest |displ|/coords:  0.0756 (   9)  0.0511 (   5)  0.0401 (   6)

generating ANC from model Hessian ...
 Shifting diagonal of input Hessian by   4.901853175442371E-003
 Lowest  eigenvalues of input Hessian
   -0.000000   -0.000000   -0.000000    0.000000    0.000000    0.000000
    0.005000    0.005273    0.005510    0.006114    0.006260    0.006650
    0.007340    0.007723    0.008079    0.008495    0.010400    0.011545
 Highest eigenvalues
    1.366989    1.382246    1.394232    2.545960    3.228641    3.867789
 
cpu  time for ANC gen    0.02 s
wall time for ANC gen    0.02 s
................................................................................
.............................. CYCLE   26 ......................................
................................................................................
   1    -45.6176800 -0.456177E+02  0.104E-01    8.12       0.0  T
   2    -45.6176862 -0.626329E-05  0.783E-02    8.11       1.0  T
   3    -45.6176902 -0.392414E-05  0.177E-02    8.10       1.2  T
   4    -45.6176910 -0.815282E-06  0.711E-03    8.10       2.9  T
   5    -45.6176910 -0.658588E-07  0.179E-03    8.10      11.6  T
   6    -45.6176910 -0.522986E-08  0.105E-03    8.10      19.8  T
   7    -45.6176911 -0.187216E-08  0.373E-04    8.10      55.8  T
   8    -45.6176911 -0.226137E-09  0.893E-05    8.10     233.5  T
speedup  1.00
cpu  time for SCC    0.01 s
wall time for SCC    0.01 s
speedup  0.99
cpu  time for grad    0.01 s
wall time for grad    0.01 s
 E :    -45.35870637  G :  0.014097    pred/act E change:  0.000D+00 -0.145D-03
Maxdispl :   0.0975   ||displ|| :   0.2002   Lambda : -0.769D-03
Largest |displ|/coords:  0.0975 (   8)  0.0601 (   5)  0.0581 (   9)
................................................................................
.............................. CYCLE   27 ......................................
................................................................................
   1    -45.6185659 -0.456186E+02  0.115E-01    8.09       0.0  T
   2    -45.6185714 -0.553611E-05  0.859E-02    8.09       1.0  T
   3    -45.6185743 -0.285898E-05  0.155E-02    8.09       1.3  T
   4    -45.6185751 -0.847926E-06  0.475E-03    8.09       4.4  T
   5    -45.6185752 -0.375007E-07  0.147E-03    8.09      14.2  T
   6    -45.6185752 -0.241294E-08  0.934E-04    8.09      22.3  T
speedup  0.91
cpu  time for SCC    0.00 s
wall time for SCC    0.00 s
speedup  0.97
cpu  time for grad    0.01 s
wall time for grad    0.01 s
 E :    -45.35923713  G :  0.010297    pred/act E change:  0.000D+00 -0.531D-03
Maxdispl :   0.1413   ||displ|| :   0.2349   Lambda : -0.471D-03
Largest |displ|/coords:  0.1413 (   8)  0.0848 (   1)  0.0776 (   6)
................................................................................
.............................. CYCLE   28 ......................................
................................................................................
   1    -45.6184766 -0.456185E+02  0.135E-01    8.08       0.0  T
   2    -45.6184820 -0.542431E-05  0.101E-01    8.08       1.0  T
   3    -45.6184848 -0.283462E-05  0.145E-02    8.09       1.4  T
   4    -45.6184857 -0.910917E-06  0.498E-03    8.08       4.2  T
   5    -45.6184858 -0.408387E-07  0.161E-03    8.08      13.0  T
   6    -45.6184858 -0.315333E-08  0.104E-03    8.09      20.1  T
speedup  0.89
cpu  time for SCC    0.00 s
wall time for SCC    0.00 s
speedup  0.98
cpu  time for grad    0.01 s
wall time for grad    0.01 s
 E :    -45.35955746  G :  0.008368    pred/act E change: -0.400D-03 -0.320D-03
Maxdispl :   0.1090   ||displ|| :   0.2090   Lambda : -0.237D-03
Largest |displ|/coords:  0.1090 (   8)  0.0897 (   1)  0.0754 (   5)
................................................................................
.............................. CYCLE   29 ......................................
................................................................................
   1    -45.6176319 -0.456176E+02  0.121E-01    8.07       0.0  T
   2    -45.6176348 -0.290976E-05  0.912E-02    8.07       1.0  T
   3    -45.6176371 -0.223475E-05  0.105E-02    8.08       2.0  T
   4    -45.6176375 -0.422944E-06  0.406E-03    8.08       5.1  T
   5    -45.6176375 -0.257789E-07  0.160E-03    8.08      13.0  T
   6    -45.6176375 -0.380133E-08  0.943E-04    8.08      22.1  T
speedup  0.89
cpu  time for SCC    0.00 s
wall time for SCC    0.00 s
speedup  0.98
cpu  time for grad    0.01 s
wall time for grad    0.01 s
 E :    -45.35971130  G :  0.005587    pred/act E change: -0.249D-03 -0.154D-03
Maxdispl :   0.0791   ||displ|| :   0.1444   Lambda : -0.108D-03
Largest |displ|/coords:  0.0791 (   1)  0.0704 (   8)  0.0488 (   5)
................................................................................
.............................. CYCLE   30 ......................................
................................................................................
   1    -45.6175142 -0.456175E+02  0.846E-02    8.09       0.0  T
   2    -45.6175148 -0.619902E-06  0.634E-02    8.08       1.0  T
   3    -45.6175154 -0.616181E-06  0.484E-03    8.08       4.3  T
   4    -45.6175155 -0.700114E-07  0.230E-03    8.08       9.1  T
   5    -45.6175155 -0.598030E-08  0.811E-04    8.08      25.7  T
speedup  0.81
cpu  time for SCC    0.00 s
wall time for SCC    0.00 s
speedup  0.95
cpu  time for grad    0.01 s
wall time for grad    0.01 s
 E :    -45.35976494  G :  0.003209    pred/act E change: -0.123D-03 -0.536D-04
Maxdispl :   0.0442   ||displ|| :   0.0864   Lambda : -0.585D-04
Largest |displ|/coords:  0.0442 (   2)  0.0427 (   1)  0.0246 (   6)
................................................................................
.............................. CYCLE   31 ......................................
................................................................................
   1    -45.6183698 -0.456184E+02  0.495E-02    8.09       0.0  T
   2    -45.6183704 -0.573357E-06  0.371E-02    8.09       1.0  T
   3    -45.6183708 -0.400548E-06  0.490E-03    8.08       4.3  T
   4    -45.6183709 -0.850372E-07  0.203E-03    8.09      10.3  T
   5    -45.6183709 -0.368615E-08  0.519E-04    8.09      40.2  T
   6    -45.6183709 -0.354568E-09  0.285E-04    8.09      73.2  T
speedup  0.89
cpu  time for SCC    0.00 s
wall time for SCC    0.00 s
speedup  1.03
cpu  time for grad    0.01 s
wall time for grad    0.01 s
 E :    -45.35978585  G :  0.002329    pred/act E change: -0.550D-04 -0.209D-04
Maxdispl :   0.0122   ||displ|| :   0.0300   Lambda : -0.201D-04
Largest |displ|/coords:  0.0122 (   7)  0.0109 (  14)  0.0097 (  13)
................................................................................
.............................. CYCLE   32 ......................................
................................................................................
   1    -45.6185135 -0.456185E+02  0.244E-02    8.09       0.0  T
   2    -45.6185136 -0.764809E-07  0.183E-02    8.09       1.1  T
   3    -45.6185137 -0.693744E-07  0.185E-03    8.08      11.3  T
   4    -45.6185137 -0.722299E-08  0.661E-04    8.09      31.5  T
   5    -45.6185137 -0.390514E-09  0.211E-04    8.09      98.8  T
speedup  0.79
cpu  time for SCC    0.00 s
wall time for SCC    0.00 s
speedup  0.92
cpu  time for grad    0.01 s
wall time for grad    0.01 s
 E :    -45.35979880  G :  0.001588    pred/act E change: -0.295D-04 -0.129D-04
Maxdispl :   0.0256   ||displ|| :   0.0448   Lambda : -0.137D-04
Largest |displ|/coords:  0.0256 (   1)  0.0220 (   3)  0.0144 (   7)
................................................................................
.............................. CYCLE   33 ......................................
................................................................................
   1    -45.6186017 -0.456186E+02  0.292E-02    8.09       0.0  T
   2    -45.6186018 -0.172818E-06  0.217E-02    8.08       1.0  T
   3    -45.6186020 -0.142670E-06  0.244E-03    8.08       8.6  T
   4    -45.6186020 -0.161609E-07  0.921E-04    8.08      22.6  T
   5    -45.6186020 -0.938492E-09  0.309E-04    8.08      67.5  T
speedup  1.05
cpu  time for SCC    0.00 s
wall time for SCC    0.00 s
speedup  1.01
cpu  time for grad    0.01 s
wall time for grad    0.01 s
 E :    -45.35980613  G :  0.000792    pred/act E change: -0.101D-04 -0.733D-05
Maxdispl :   0.0234   ||displ|| :   0.0377   Lambda : -0.518D-05
Largest |displ|/coords:  0.0234 (   1)  0.0120 (   3)  0.0104 (  10)
................................................................................
.............................. CYCLE   34 ......................................
................................................................................
   1    -45.6187982 -0.456188E+02  0.227E-02    8.08       0.0  T
   2    -45.6187982 -0.632383E-07  0.169E-02    8.08       1.2  T
   3    -45.6187983 -0.662322E-07  0.163E-03    8.08      12.8  T
   4    -45.6187983 -0.403162E-08  0.621E-04    8.08      33.6  T
   5    -45.6187983 -0.343100E-09  0.185E-04    8.08     112.9  T
speedup  1.05
cpu  time for SCC    0.00 s
wall time for SCC    0.00 s
speedup  1.01
cpu  time for grad    0.01 s
wall time for grad    0.01 s
 E :    -45.35980947  G :  0.000677    pred/act E change: -0.684D-05 -0.333D-05
Maxdispl :   0.0197   ||displ|| :   0.0341   Lambda : -0.301D-05
Largest |displ|/coords:  0.0197 (   1)  0.0125 (   3)  0.0118 (   7)
................................................................................
.............................. CYCLE   35 ......................................
................................................................................
   1    -45.6189345 -0.456189E+02  0.186E-02    8.08       0.0  T
   2    -45.6189345 -0.531217E-07  0.139E-02    8.08       1.5  T
   3    -45.6189346 -0.514072E-07  0.138E-03    8.08      15.1  T
   4    -45.6189346 -0.471635E-08  0.524E-04    8.08      39.8  T
   5    -45.6189346 -0.245073E-09  0.180E-04    8.08     115.7  T
speedup  1.00
cpu  time for SCC    0.00 s
wall time for SCC    0.00 s
speedup  0.99
cpu  time for grad    0.01 s
wall time for grad    0.01 s
 E :    -45.35981150  G :  0.000681    pred/act E change: -0.260D-05 -0.203D-05
Maxdispl :   0.0144   ||displ|| :   0.0273   Lambda : -0.197D-05
Largest |displ|/coords:  0.0144 (   1)  0.0125 (   3)  0.0075 (   2)
................................................................................
.............................. CYCLE   36 ......................................
................................................................................
   1    -45.6190030 -0.456190E+02  0.149E-02    8.08       0.0  T
   2    -45.6190031 -0.393921E-07  0.111E-02    8.08       1.9  T
   3    -45.6190031 -0.287732E-07  0.119E-03    8.08      17.5  T
   4    -45.6190031 -0.525397E-08  0.527E-04    8.08      39.5  T
   5    -45.6190031 -0.330012E-09  0.151E-04    8.08     138.4  T
speedup  1.05
cpu  time for SCC    0.00 s
wall time for SCC    0.00 s
speedup  1.01
cpu  time for grad    0.01 s
wall time for grad    0.01 s
 E :    -45.35981274  G :  0.000589    pred/act E change: -0.151D-05 -0.124D-05
Maxdispl :   0.0090   ||displ|| :   0.0182   Lambda : -0.109D-05
Largest |displ|/coords:  0.0090 (   3)  0.0086 (   1)  0.0056 (   7)
................................................................................
.............................. CYCLE   37 ......................................
................................................................................
   1    -45.6189198 -0.456189E+02  0.104E-02    8.08       0.0  T
   2    -45.6189198 -0.172097E-07  0.781E-03    8.08       2.7  T
   3    -45.6189198 -0.151386E-07  0.793E-04    8.08      26.3  T
   4    -45.6189198 -0.202512E-08  0.391E-04    8.08      53.3  T
speedup  0.97
cpu  time for SCC    0.00 s
wall time for SCC    0.00 s
speedup  0.98
cpu  time for grad    0.01 s
wall time for grad    0.01 s
 E :    -45.35981340  G :  0.000371    pred/act E change: -0.984D-06 -0.661D-06
Maxdispl :   0.0053   ||displ|| :   0.0101   Lambda : -0.556D-06
Largest |displ|/coords:  0.0053 (   4)  0.0041 (   3)  0.0039 (   5)
................................................................................
.............................. CYCLE   38 ......................................
................................................................................
   1    -45.6189181 -0.456189E+02  0.594E-03    8.08       0.0  T
   2    -45.6189181 -0.676710E-08  0.444E-03    8.08       4.7  T
   3    -45.6189181 -0.472288E-08  0.486E-04    8.08      42.9  T
   4    -45.6189181 -0.957108E-09  0.246E-04    8.08      84.7  T
speedup  1.00
cpu  time for SCC    0.00 s
wall time for SCC    0.00 s
speedup  0.98
cpu  time for grad    0.01 s
wall time for grad    0.01 s
 E :    -45.35981378  G :  0.000286    pred/act E change: -0.547D-06 -0.375D-06
Maxdispl :   0.0042   ||displ|| :   0.0087   Lambda : -0.353D-06
Largest |displ|/coords:  0.0042 (   3)  0.0041 (   4)  0.0035 (  11)
................................................................................
.............................. CYCLE   39 ......................................
................................................................................
   1    -45.6188661 -0.456189E+02  0.398E-03    8.08       0.0  T
   2    -45.6188661 -0.546791E-08  0.297E-03    8.08       7.0  T
   3    -45.6188661 -0.308827E-08  0.454E-04    8.08      45.9  T
   4    -45.6188661 -0.814090E-09  0.156E-04    8.08     133.5  T
speedup  1.29
cpu  time for SCC    0.00 s
wall time for SCC    0.00 s
speedup  1.07
cpu  time for grad    0.01 s
wall time for grad    0.01 s
 E :    -45.35981402  G :  0.000214    pred/act E change: -0.278D-06 -0.245D-06
Maxdispl :   0.0036   ||displ|| :   0.0080   Lambda : -0.228D-06
Largest |displ|/coords:  0.0036 (   4)  0.0034 (   3)  0.0031 (  11)
................................................................................
.............................. CYCLE   40 ......................................
................................................................................
   1    -45.6188593 -0.456189E+02  0.378E-03    8.08       0.0  T
   2    -45.6188593 -0.411715E-08  0.283E-03    8.08       7.4  T
   3    -45.6188593 -0.247817E-08  0.408E-04    8.08      51.1  T
   4    -45.6188593 -0.632589E-09  0.120E-04    8.08     174.0  T
speedup  1.00
cpu  time for SCC    0.00 s
wall time for SCC    0.00 s
speedup  0.99
cpu  time for grad    0.01 s
wall time for grad    0.01 s
 E :    -45.35981418  G :  0.000202    pred/act E change: -0.177D-06 -0.160D-06
Maxdispl :   0.0032   ||displ|| :   0.0067   Lambda : -0.152D-06
Largest |displ|/coords:  0.0032 (   3)  0.0026 (  11)  0.0025 (   1)
................................................................................
.............................. CYCLE   41 ......................................
................................................................................
   1    -45.6188449 -0.456188E+02  0.354E-03    8.08       0.0  T
   2    -45.6188449 -0.285957E-08  0.265E-03    8.08       7.9  T
   3    -45.6188449 -0.224156E-08  0.366E-04    8.08      56.9  T
   4    -45.6188449 -0.358106E-09  0.115E-04    8.08     182.0  T
speedup  1.00
cpu  time for SCC    0.00 s
wall time for SCC    0.00 s
speedup  0.99
cpu  time for grad    0.01 s
wall time for grad    0.01 s
 E :    -45.35981429  G :  0.000164    pred/act E change: -0.114D-06 -0.108D-06
Maxdispl :   0.0019   ||displ|| :   0.0046   Lambda : -0.937D-07
Largest |displ|/coords:  0.0019 (   3)  0.0018 (   5)  0.0017 (  11)
................................................................................
.............................. CYCLE   42 ......................................
................................................................................
   1    -45.6188481 -0.456188E+02  0.273E-03    8.08       0.0  T
   2    -45.6188481 -0.145663E-08  0.203E-03    8.08      10.3  T
   3    -45.6188481 -0.127339E-08  0.298E-04    8.08      70.1  T
   4    -45.6188481 -0.151928E-09  0.995E-05    8.08     209.5  T
speedup  0.97
cpu  time for SCC    0.00 s
wall time for SCC    0.00 s
speedup  0.98
cpu  time for grad    0.01 s
wall time for grad    0.01 s
 E :    -45.35981436  G :  0.000111    pred/act E change: -0.763D-07 -0.661D-07
Maxdispl :   0.0011   ||displ|| :   0.0027   Lambda : -0.515D-07
Largest |displ|/coords:  0.0011 (   9)  0.0008 (   5)  0.0008 (   6)

   *** GEOMETRY OPTIMIZATION CONVERGED AFTER 42 ITERATIONS ***

------------------------------------------------------------------------
 total energy gain (kcal):     -0.6953
------------------------------------------------------------------------
================
 final structure:
================
$coord
       -2.30092002884513        3.14538837893938       -1.12936110537627      S 
       -1.44439765479883        1.41580796020234       -3.06017156582266      O 
       -0.14398786187997        3.45640552812937        0.84804835095434      O 
       -3.10049871683266        5.56546962470429       -1.92570854183309      O 
       -4.37432331013553        1.76895811371590        0.43727795552027      O 
       -0.12160431688928       -4.19396360899542        0.78340024955197      O 
        0.61662886933688       -5.81272557297061        1.11554967792142      H 
       -4.30126147422955       -2.54257756728582       -1.68793339926020      O 
       -2.99349324098194       -3.47519016236265       -0.77385917108792      H 
       -4.58145526046239        0.01929997570019       -0.32238600824223      H 
       -3.44582534139824       -1.77472901584677       -3.11101240678050      H 
        2.57632887049353       -1.64816959380316       -2.32291017191692      O 
        1.03889282138274       -3.31066953807374       -0.46171580385706      H 
        1.27997967924872       -0.49915968037974       -2.94541673438862      H 
        3.76003596712392       -0.56457918949480       -1.37484973943766      H 
       -0.75865823580677       -0.27385848940476        3.88943292786919      O 
       -0.46885152961787       -1.83249991567705        2.91719155525970      H 
       -0.26101128549719        2.02026769779988        2.09620811845833      H 
       -2.54762932341179       -0.16860540751243        4.18664214898511      H 
        5.25637025285015        1.75868072343813        0.44063028056413      N 
        6.71350750190945        2.66391949349752       -0.40528955598244      H 
        5.80411121200441        1.28648873765304        2.21161354991048      H 
        3.79806234974146        2.99604148913424        0.59461937009186      H 
$end
 
 Bond Distances (Angstroems)
 ---------------------------
S1-O2=1.4447         S1-O3=1.5572         S1-O4=1.4130         S1-O5=1.5562         O2-S1=1.4447         O3-S1=1.5572         
O3-H18=1.0088        O4-S1=1.4130         O5-S1=1.5562         O5-H10=1.0153        O6-H7=0.9578         O6-H13=1.0148        
H7-O6=0.9578         O8-H9=0.9780         O8-H11=0.9680        H9-O8=0.9780         H10-O5=1.0153        H11-O8=0.9680        
O12-H14=0.9741       O12-H15=0.9863       H13-O6=1.0148        H14-O12=0.9741       H15-O12=0.9863       O16-H17=0.9841       
O16-H19=0.9613       H17-O16=0.9841       H18-O3=1.0088        H19-O16=0.9613       N20-H21=1.0121       N20-H22=1.0123       
N20-H23=1.0153       H21-N20=1.0121       H22-N20=1.0123       H23-N20=1.0153       
 N  H  Rav=1.0133 sigma=0.0015  Rmin=1.0121  Rmax=1.0153     3
 O  H  Rav=0.9848 sigma=0.0203  Rmin=0.9578  Rmax=1.0153    10
 S  O  Rav=1.4928 sigma=0.0649  Rmin=1.4130  Rmax=1.5572     4
 
 selected bond angles (degree)
 --------------------
O3-S1-O2=108.19                O4-S1-O2=117.21                O4-S1-O3=108.91                O5-S1-O2=107.54                
O5-S1-O3=102.02                O5-S1-O4=111.84                H18-O3-S1=108.38               H10-O5-S1=106.98               
H13-O6-H7=106.52               H11-O8-H9=105.41               
 
 selected dihedral angles (degree)
 ---------------------------------
H18-O3-S1-O2=275.95           H18-O3-S1-O4=147.53           H18-O3-S1-O5= 29.18           H10-O5-S1-O2=359.69           
H10-O5-S1-O3=245.98           H10-O5-S1-O4=129.73           
 
 CMA Distance (Angstroems)
 ---------------------------
R(CMA):  2.8252

========================================================================
 FINAL SINGLEPOINT CALCULATION ON OPTIMIZED GEOMETRY
========================================================================

 Ncao       : 59
 Nao        : 58
 Nshell     : 34
 Nel        : 72
 T(el)      :   300.0
 intcut     :    25.0
 scfconv/Eh :  0.100E-05
   qconv/e  :  0.100E-03
 intneglect :  0.100E-07
 broydamp   :      0.250
 iter      E             dE          RMSdq      gap      omega  full diag
   1    -45.6188481 -0.456188E+02  0.363E-05    8.08       0.0  T
   2    -45.6188481 -0.802913E-12  0.247E-05    8.08     845.6  T
   3    -45.6188481 -0.547118E-12  0.566E-06    8.08    3681.3  T
speedup  1.30
cpu  time for SCC    0.00 s
wall time for SCC    0.00 s

   *** convergence criteria satisfied after 3 iterations ***

          eigenvalues
 #    :          24         25         26         27         28         29         30         31
 occ. :        2.000      2.000      2.000      2.000      2.000      2.000      2.000      2.000
 eps  :       -14.032    -13.844    -13.609    -13.149    -12.936    -12.791    -12.699    -12.693
 #    :          32         33         34         35         36         37         38         39
 occ. :        2.000      2.000      2.000      2.000      2.000      0.000      0.000      0.000
 eps  :       -12.568    -12.459    -12.183    -11.955    -11.266     -3.186     -1.139     -0.521
 #    :          40         41         42         43         44         45         46         47
 occ. :        0.000      0.000      0.000      0.000      0.000      0.000      0.000      0.000
 eps  :        -0.208      0.810      0.989      2.015      3.118      4.166      5.037      5.381


   #   Z            q   n(s)   n(p)   n(d)      C6AA      α(0)
   1  16 S      1.683  1.581  1.790  0.945    89.156    15.892
   2   8 O     -0.720  1.760  4.959  0.000    29.251     7.251
   3   8 O     -0.621  1.756  4.865  0.000    25.679     6.841
   4   8 O     -0.632  1.752  4.881  0.000    26.925     6.957
   5   8 O     -0.630  1.761  4.870  0.000    25.897     6.870
   6   8 O     -0.647  1.757  4.890  0.000    26.356     6.929
   7   1 H      0.288  0.712  0.000  0.000     0.757     1.367
   8   8 O     -0.603  1.755  4.848  0.000    25.243     6.781
   9   1 H      0.336  0.664  0.000  0.000     0.621     1.238
  10   1 H      0.389  0.611  0.000  0.000     0.502     1.111
  11   1 H      0.321  0.679  0.000  0.000     0.661     1.277
  12   8 O     -0.625  1.753  4.872  0.000    25.796     6.855
  13   1 H      0.347  0.653  0.000  0.000     0.596     1.212
  14   1 H      0.317  0.683  0.000  0.000     0.671     1.287
  15   1 H      0.316  0.684  0.000  0.000     0.674     1.290
  16   8 O     -0.606  1.753  4.853  0.000    25.334     6.793
  17   1 H      0.342  0.658  0.000  0.000     0.608     1.225
  18   1 H      0.391  0.609  0.000  0.000     0.499     1.108
  19   1 H      0.307  0.693  0.000  0.000     0.700     1.314
  20   7 N     -0.447  1.369  4.078  0.000    31.738     8.367
  21   1 H      0.156  0.844  0.000  0.000     1.359     1.826
  22   1 H      0.158  0.842  0.000  0.000     1.347     1.818
  23   1 H      0.180  0.820  0.000  0.000     1.215     1.726

 Mol. C6AA /au·bohr⁶  :       4505.958279
 Mol. C8AA /au·bohr⁸  :      98998.445818
 Mol. α(0) /au        :         97.334143

 
 Wiberg/Mayer (AO) data. WBOs > 0.1 written file <wbo>
 largest (>0.05) Wiberg bond orders for each atom
           total WBO             WBO to atom ...
     1  S   4.857    O    4 1.518    O    2 1.349    O    5 0.979    O    3 0.974
     2  O   1.735    S    1 1.349    O    4 0.125    O    5 0.090    O    3 0.086
     3  O   1.968    S    1 0.974    H   18 0.698    O    2 0.086    O    4 0.081    O    5 0.061
     4  O   1.827    S    1 1.518    O    2 0.125    O    5 0.085    O    3 0.081
     5  O   1.960    S    1 0.979    H   10 0.687    O    2 0.090    O    4 0.085    O    3 0.061
     6  O   1.876    H    7 0.907    H   13 0.751    H   17 0.066    O   12 0.052
     7  H   0.917    O    6 0.907
     8  O   1.949    H   11 0.876    H    9 0.836    H   10 0.145
     9  H   0.887    O    8 0.836
    10  H   0.849    O    5 0.687    O    8 0.145
    11  H   0.897    O    8 0.876
    12  O   1.920    H   14 0.855    H   15 0.822    H   13 0.127    O    6 0.052
    13  H   0.880    O    6 0.751    O   12 0.127
    14  H   0.899    O   12 0.855
    15  H   0.900    O   12 0.822    N   20 0.075
    16  O   1.931    H   19 0.900    H   17 0.814    H   18 0.131
    17  H   0.883    O   16 0.814    O    6 0.066
    18  H   0.847    O    3 0.698    O   16 0.131
    19  H   0.906    O   16 0.900
    20  N   3.020    H   21 0.973    H   22 0.972    H   23 0.953    H   15 0.075
    21  H   0.976    N   20 0.973
    22  H   0.975    N   20 0.972
    23  H   0.968    N   20 0.953
 MOs/occ written to file <molden.input>
 
molecular dipole:
                 x           y           z       tot (Debye)
 q only:        0.988      -1.474       1.027
   full:        1.249      -1.354       1.257       5.669
molecular quadrupole (traceless):
                xx          xy          yy          xz          yz          zz
 q only:        4.718       8.158      -4.914      -1.604       1.973       0.196
  q+dip:        4.734      10.126      -3.941      -1.124       2.003      -0.793
   full:        4.955      10.221      -3.980      -1.123       1.599      -0.975

SCC energy    :     -45.6188481
rep           :       0.2588020
ES            :       0.2030258
AES           :      -0.0452469
AXC           :      -0.0057715
disp          :      -0.0167253
XB            :       0.0000000
fix           :       0.0000000
total E       :     -45.3598144
atomizationE  :       4.4428769     2787.95
(atE without considering molecular charge,
 total energy contains solvation terms)
H-L gap (eV)  :          8.0802
optimized geometry written to: xtbopt.xyz


------------------------------------------------------------------------
 * finished run on 2019/09/16 at 11:13:03.029     
------------------------------------------------------------------------
 total:
 * wall-time:     0 d,  0 h,  0 min,  0.980 sec
 *  cpu-time:     0 d,  0 h,  0 min,  0.968 sec
 * ratio c/w:     0.988 speedup
 SCF:
 * wall-time:     0 d,  0 h,  0 min,  0.121 sec
 *  cpu-time:     0 d,  0 h,  0 min,  0.118 sec
 * ratio c/w:     0.976 speedup
 ANC optimizer:
 * wall-time:     0 d,  0 h,  0 min,  0.835 sec
 *  cpu-time:     0 d,  0 h,  0 min,  0.828 sec
 * ratio c/w:     0.992 speedup

