      -----------------------------------------------------------      
     |                   =====================                   |     
     |                           x T B                           |     
     |                   =====================                   |     
     |                         S. Grimme                         |     
     |          Mulliken Center for Theoretical Chemistry        |     
     |                    University of Bonn                     |     
     |                 Version 6.0.1 (SAW181210)                 |     
      -----------------------------------------------------------      

   This program is distributed in the hope that it will be useful,
   but WITHOUT ANY WARRANTY; without even the implied warranty of
   MERCHANTABILITY or FITNESS FOR A PARTICULAR PURPOSE.
   
   FOR NON-COMMERCIAL, ACADEMIA USE ONLY.
   
   Cite this work as:
   S. Grimme, C. Bannwarth, P. Shushkov, J. Comput. Theory Chem., 2017,
   13, 1989-2009.
   C. Bannwarth, S. Ehlert and S. Grimme., ChemRxiv, 2018, preprint.
   http://doi.org/10.26434/chemrxiv.7246238.v1
   
   for sTDA-xTB:
   S. Grimme and C. Bannwarth, J. Chem. Phys., 2016, 145, 054103.
   
   in the mass-spec context:
   V. Asgeirsson, C. Bauer and S. Grimme, Chem. Sci., 2017, 8, 4879.
   
   if GBSA is used:
   P. Shushkov, F. März and S. Grimme, unpublished.
   
   for ANC optimizer:
   S. Grimme, unpublished.
   Rational Function algorithm used in ANCopt:
   F. Eckert, P. Pulay, H.-J. Werner, J. Comput. Chem., 1997, 18, 1473.
   
   with help from (in alphabetical order)
   C. Bannwarth, F. Bohle, G. Brandenburg, E. Caldeweyher, M. Checinski,
   S. Dohm, S. Ehlert, S. Ehrlich, F. März, H. Neugebauer, J. Pisarek,
   P. Pracht, P. Shushkov, and S. Spicher.
   
 * started run on 2019/09/16 at 11:24:46.324     
========================================================================
 # omp threads = 1
========================================================================
number of atoms            : 23
number of electrons        : 72
charge                     : 0
spin                       : .0
first test random number   : .6351

########################################################################
# WARNING! Please study the warnings concerning your input carefully
#  - XTBPATH is not set, using XTBHOME instead
#  - the use of '-opt' is discouraged, please use '--opt' next time
#  - the use of '-chrg' is discouraged, please use '--chrg' next time
#  - the use of '-uhf' is discouraged, please use '--uhf' next time
########################################################################

           ------------------------------------------------- 
          |                 G F N 2 - x T B                 |
          | Geometry, Frequencies, Noncovalent interactions |
          |            JCTC 2018 parametrisation            |
           ------------------------------------------------- 
      method parameters     
 k(s)        :  1.8500
 k(p)        :  2.2300
 k(d)        :  2.2300
 k(f)        :  2.0000
 kEN (H0ij)  : -2.0000
 D4 a1       :  0.5200
 D4 a2       :  5.0000
 D4 s6       :  1.0000
 D4 s8       :  2.7000
 D4 s9       :  5.0000
 alphaj      :  2.0000


            Z     q(EN)     CN     RAES       Cart. coordinates
     1  S   6.0    0.67    4.15    3.95    -1.60777     0.59365    -1.17374
     2  O   6.0   -0.32    1.20    1.80     0.82263     1.86990    -0.54728
     3  O   6.0   -0.31    1.16    1.80    -2.36076    -1.08813     0.95528
     4  O   6.0   -0.30    1.20    1.80    -3.60624     2.53300    -1.58988
     5  O   6.0   -0.31    1.25    1.80    -1.28671    -0.94016    -3.51307
     6  O   6.0   -0.35    1.57    1.80     4.44191    -4.99043    -1.85765
     7  H   1.0    0.17    0.94    1.42     5.79951    -6.25939    -1.68319
     8  O   6.0   -0.22    2.94    2.63     2.77185    -2.32477     1.37557
     9  H   1.0    0.14    0.99    1.43     1.05077    -2.90297     1.81535
    10  H   1.0    0.16    1.23    1.47     3.61232    -3.47958     0.17140
    11  H   1.0    0.14    1.04    1.44     2.78242    -0.55663     0.77136
    12  O   6.0   -0.22    2.92    2.58    -5.22717     2.74584     2.98239
    13  H   1.0    0.13    0.98    1.43    -4.96890     0.93374     3.35578
    14  H   1.0    0.12    1.04    1.43    -3.95482     3.82295     3.82558
    15  H   1.0    0.15    1.05    1.44    -5.31488     3.07565     1.14526
    16  O   6.0   -0.22    2.90    2.55     1.90419    -4.00900    -5.45402
    17  H   1.0    0.16    1.08    1.44     0.45721    -2.97701    -4.87861
    18  H   1.0    0.12    0.96    1.43     2.93087    -3.12144    -6.73784
    19  H   1.0    0.17    1.23    1.47     2.94384    -4.61428    -4.02424
    20  N   5.0   -0.22    3.02    1.93    -0.80673     5.22625     3.90771
    21  H   1.0    0.11    0.99    1.43    -0.81328     7.10869     3.49855
    22  H   1.0    0.12    1.02    1.43    -0.07344     4.35565     2.35355
    23  H   1.0    0.10    0.99    1.43     0.50317     4.99847     5.30175

  Z AO/shell   Hii/eV     exponent
  1     Wed Apr 25 08:07:45 CEST 2018   EN: 2.200 GM2: 0.406  GM3: 0.0800  RAES: 1.40
     1s    -10.707211    1.230000
  7     Wed Apr 25 08:07:45 CEST 2018   EN: 3.040 GM2: 0.461  GM3:-0.0640  RAES: 1.90
     2s    -16.686243    2.339881
     2p    -12.523956    2.014332
  8     Wed Apr 25 08:07:45 CEST 2018   EN: 3.440 GM2: 0.452  GM3:-0.0517  RAES: 1.80
     2s    -20.229985    2.439742
     2p    -15.503117    2.137023
 16     Tue Apr 24 11:44:34 CEST 2018   EN: 2.580 GM2: 0.340  GM3:-0.0502  RAES: 3.10
     3s    -20.029654    1.981333
     3p    -11.377694    2.025643
     3d     -0.420282    1.702555
 no old-style atom pair restraining (fixing) potential

molecular fragmentation (1/2 indicates fragments):
11111222222222222222222
# atoms in fragment 1/2:     5    18
 fragment masses (1/2) :       96.06       91.11
CMA distance (Bohr)    :   2.885
constraining FC (au)   :  0.0500
           ------------------------------------------------- 
          |        Self-Consistent Charge Iterations        |
           ------------------------------------------------- 

 Ncao       : 59
 Nao        : 58
 Nshell     : 34
 Nel        : 72
 T(el)      :   300.0
 intcut     :    25.0
 scfconv/Eh :  0.100E-05
   qconv/e  :  0.100E-03
 intneglect :  0.100E-07
 broydamp   :      0.250
 iter      E             dE          RMSdq      gap      omega  full diag
   1    -45.3962278 -0.453962E+02  0.718E+00   10.20       0.0  T
   2    -45.4327349 -0.365071E-01  0.517E+00    9.95       1.0  T
   3    -45.4641516 -0.314167E-01  0.111E+00    7.09       1.0  T
   4    -45.4681500 -0.399846E-02  0.538E-01    7.52       1.0  T
   5    -45.4688432 -0.693155E-03  0.241E-01    7.61       1.0  T
   6    -45.4690801 -0.236912E-03  0.122E-01    7.70       1.0  T
   7    -45.4691621 -0.820138E-04  0.430E-02    7.72       1.0  T
   8    -45.4691697 -0.756759E-05  0.251E-02    7.72       1.0  T
   9    -45.4691729 -0.320120E-05  0.895E-03    7.74       2.3  T
  10    -45.4691732 -0.303581E-06  0.186E-03    7.74      11.2  T
  11    -45.4691732 -0.808727E-08  0.985E-04    7.74      21.2  T
  12    -45.4691732 -0.339511E-08  0.341E-04    7.74      61.1  T
speedup  1.02
cpu  time for SCC    0.01 s
wall time for SCC    0.01 s

   *** convergence criteria satisfied after 12 iterations ***

          eigenvalues
 #    :          24         25         26         27         28         29         30         31
 occ. :        2.000      2.000      2.000      2.000      2.000      2.000      2.000      2.000
 eps  :       -12.082    -12.047    -11.633    -10.618    -10.547    -10.019     -9.927     -9.761
 #    :          32         33         34         35         36         37         38         39
 occ. :        2.000      2.000      2.000      2.000      2.000      0.000      0.000      0.000
 eps  :        -9.738     -9.574     -9.437     -9.425     -9.390     -1.647     -0.754      0.493
 #    :          40         41         42         43         44         45         46         47
 occ. :        0.000      0.000      0.000      0.000      0.000      0.000      0.000      0.000
 eps  :         0.790      1.579      2.719      2.802      3.081      3.987      4.849      5.603


   #   Z            q   n(s)   n(p)   n(d)      C6AA      α(0)
   1  16 S      1.467  1.608  1.916  1.008    94.260    16.340
   2   8 O     -0.801  1.783  5.018  0.000    31.609     7.538
   3   8 O     -0.820  1.779  5.042  0.000    32.210     7.609
   4   8 O     -0.781  1.780  5.001  0.000    31.001     7.465
   5   8 O     -0.783  1.769  5.014  0.000    31.081     7.475
   6   8 O     -0.875  1.817  5.058  0.000    33.823     7.801
   7   1 H      0.195  0.805  0.000  0.000     1.146     1.682
   8   8 O     -0.424  1.646  4.778  0.000    21.267     6.228
   9   1 H      0.384  0.616  0.000  0.000     0.516     1.129
  10   1 H      0.408  0.592  0.000  0.000     0.462     1.064
  11   1 H      0.393  0.607  0.000  0.000     0.499     1.109
  12   8 O     -0.386  1.626  4.760  0.000    20.517     6.118
  13   1 H      0.406  0.594  0.000  0.000     0.474     1.082
  14   1 H      0.398  0.602  0.000  0.000     0.489     1.098
  15   1 H      0.421  0.579  0.000  0.000     0.447     1.051
  16   8 O     -0.423  1.657  4.767  0.000    21.246     6.225
  17   1 H      0.412  0.588  0.000  0.000     0.464     1.070
  18   1 H      0.355  0.645  0.000  0.000     0.577     1.193
  19   1 H      0.410  0.590  0.000  0.000     0.460     1.061
  20   7 N     -0.463  1.383  4.080  0.000    32.199     8.427
  21   1 H      0.153  0.847  0.000  0.000     1.380     1.840
  22   1 H      0.204  0.796  0.000  0.000     1.087     1.633
  23   1 H      0.151  0.849  0.000  0.000     1.397     1.851

 Mol. C6AA /au·bohr⁶  :       4599.167911
 Mol. C8AA /au·bohr⁸  :     101763.191788
 Mol. α(0) /au        :         98.091349

 
 Wiberg/Mayer (AO) data. WBOs > 0.1 written file <wbo>
 largest (>0.05) Wiberg bond orders for each atom
           total WBO             WBO to atom ...
     1  S   5.027    O    4 1.261    O    5 1.253    O    3 1.249    O    2 1.233
     2  O   1.661    S    1 1.233    O    3 0.100    O    5 0.096    O    4 0.092    H   11 0.072
     3  O   1.617    S    1 1.249    O    2 0.100    O    4 0.099    O    5 0.094
     4  O   1.680    S    1 1.261    O    3 0.099    H   15 0.097    O    2 0.092    O    5 0.082
     5  O   1.679    S    1 1.253    H   17 0.111    O    2 0.096    O    3 0.094    O    4 0.082
     6  O   1.521    H    7 0.947    H   10 0.215    H   19 0.213    O    8 0.064    O   16 0.063
     7  H   0.962    O    6 0.947
     8  O   2.309    H    9 0.819    H   11 0.765    H   10 0.612    O    6 0.064
     9  H   0.853    O    8 0.819
    10  H   0.833    O    8 0.612    O    6 0.215
    11  H   0.846    O    8 0.765    O    2 0.072
    12  O   2.357    H   13 0.806    H   14 0.750    H   15 0.717
    13  H   0.835    O   12 0.806
    14  H   0.842    O   12 0.750    N   20 0.087
    15  H   0.822    O   12 0.717    O    4 0.097
    16  O   2.301    H   18 0.866    H   17 0.706    H   19 0.612    O    6 0.063
    17  H   0.830    O   16 0.706    O    5 0.111
    18  H   0.874    O   16 0.866
    19  H   0.832    O   16 0.612    O    6 0.213
    20  N   3.020    H   21 0.974    H   23 0.973    H   22 0.933    H   14 0.087
    21  H   0.977    N   20 0.974
    22  H   0.958    N   20 0.933
    23  H   0.977    N   20 0.973
 MOs/occ written to file <molden.input>
 
molecular dipole:
                 x           y           z       tot (Debye)
 q only:       -0.093       0.323       2.188
   full:        0.465       0.486       1.893       5.107
molecular quadrupole (traceless):
                xx          xy          yy          xz          yz          zz
 q only:       -3.937      -6.652      -8.066     -20.779      17.597      12.002
  q+dip:       -5.227      -4.709      -5.235     -19.008      16.172      10.462
   full:       -5.417      -5.063      -5.130     -18.851      16.086      10.546

SCC energy    :     -45.4691732
rep           :       0.2430749
ES            :       0.3561852
AES           :      -0.0705007
AXC           :      -0.0075662
disp          :      -0.0157030
XB            :       0.0000000
fix           :       0.0000000
total E       :     -45.2260395
atomizationE  :       4.3091020     2704.00
(atE without considering molecular charge,
 total energy contains solvation terms)
H-L gap (eV)  :          7.7426
           ------------------------------------------------- 
          |                 ===============                 |
          |                   A N C O P T                   |
          |                 ===============                 |
          |          Approximate Normal Coordinate          |
          |           Rational Function Optimizer           |
           ------------------------------------------------- 
dumping coords to <xtbopt.coord> and <xtbopt.log>
 optlevel               2
 Maxcycle             460
 Maxmicro              25
 Econv         1.000000000000000E-007
 Gconv         2.000000000000000E-004
 Maxdispl       1.00000000000000     
 Hlow          5.000000000000000E-003
 S6             20.0000000000000     
 Nvar               63

generating ANC from model Hessian ...
 Shifting diagonal of input Hessian by   4.994061768521626E-003
 Lowest  eigenvalues of input Hessian
   -0.000000   -0.000000    0.000000    0.000000    0.000000    0.000000
    0.005000    0.005127    0.005602    0.005825    0.006351    0.006605
    0.007131    0.007180    0.007875    0.008657    0.008755    0.009898
 Highest eigenvalues
    1.553109    1.590161    1.591848    3.078650    3.083046    3.085096
 
cpu  time for ANC gen    0.01 s
wall time for ANC gen    0.01 s
................................................................................
.............................. CYCLE    1 ......................................
................................................................................
   1    -45.4691732 -0.454692E+02  0.631E-05    7.74       0.0  T
   2    -45.4691732 -0.123990E-10  0.471E-05    7.74     442.7  T
   3    -45.4691732 -0.683542E-11  0.238E-05    7.74     877.4  T
speedup  1.20
cpu  time for SCC    0.00 s
wall time for SCC    0.00 s
speedup  0.98
cpu  time for grad    0.01 s
wall time for grad    0.01 s
 E :    -45.22603949  G :  0.191941    pred/act E change:  0.000D+00  0.164D-07
Maxdispl :   0.2148   ||displ|| :   0.4980   Lambda : -0.515D-01
Largest |displ|/coords:  0.2148 (  22)  0.1634 (  19)  0.1545 (  21)
................................................................................
.............................. CYCLE    2 ......................................
................................................................................
   1    -45.4935840 -0.454936E+02  0.395E-01    8.06       0.0  T
   2    -45.4940342 -0.450277E-03  0.292E-01    8.20       1.0  T
   3    -45.4942459 -0.211710E-03  0.101E-01    8.39       1.0  T
   4    -45.4942701 -0.241363E-04  0.317E-02    8.40       1.0  T
   5    -45.4942720 -0.189396E-05  0.984E-03    8.40       2.1  T
   6    -45.4942722 -0.198017E-06  0.552E-03    8.40       3.8  T
   7    -45.4942723 -0.106964E-06  0.227E-03    8.40       9.2  T
speedup  0.93
cpu  time for SCC    0.00 s
wall time for SCC    0.01 s
speedup  0.94
cpu  time for grad    0.01 s
wall time for grad    0.01 s
 E :    -45.27055925  G :  0.123692    pred/act E change:  0.000D+00 -0.445D-01
Maxdispl :   0.2756   ||displ|| :   0.5762   Lambda : -0.372D-01
Largest |displ|/coords:  0.2756 (  22)  0.2305 (  19)  0.1728 (   9)
................................................................................
.............................. CYCLE    3 ......................................
................................................................................
   1    -45.5110063 -0.455110E+02  0.423E-01    8.45       0.0  T
   2    -45.5118821 -0.875834E-03  0.303E-01    8.56       1.0  T
   3    -45.5122686 -0.386459E-03  0.133E-01    8.64       1.0  T
   4    -45.5122889 -0.203064E-04  0.420E-02    8.67       1.0  T
   5    -45.5122916 -0.273103E-05  0.127E-02    8.67       1.6  T
   6    -45.5122919 -0.345929E-06  0.705E-03    8.67       3.0  T
   7    -45.5122921 -0.182445E-06  0.295E-03    8.67       7.1  T
   8    -45.5122922 -0.462118E-07  0.891E-04    8.67      23.4  T
speedup  0.97
cpu  time for SCC    0.01 s
wall time for SCC    0.01 s
speedup  1.03
cpu  time for grad    0.01 s
wall time for grad    0.01 s
 E :    -45.30178889  G :  0.084748    pred/act E change: -0.321D-01 -0.312D-01
Maxdispl :   0.2705   ||displ|| :   0.5753   Lambda : -0.227D-01
Largest |displ|/coords:  0.2705 (  19)  0.2383 (  22)  0.2060 (   9)
................................................................................
.............................. CYCLE    4 ......................................
................................................................................
   1    -45.5209777 -0.455210E+02  0.484E-01    8.80       0.0  T
   2    -45.5222246 -0.124691E-02  0.340E-01    8.82       1.0  T
   3    -45.5227479 -0.523343E-03  0.157E-01    8.86       1.0  T
   4    -45.5227723 -0.243750E-04  0.527E-02    8.88       1.0  T
   5    -45.5227768 -0.451680E-05  0.146E-02    8.88       1.4  T
   6    -45.5227772 -0.372992E-06  0.788E-03    8.88       2.6  T
   7    -45.5227774 -0.186995E-06  0.312E-03    8.88       6.7  T
   8    -45.5227774 -0.470011E-07  0.117E-03    8.88      17.8  T
speedup  1.11
cpu  time for SCC    0.01 s
wall time for SCC    0.01 s
speedup  1.02
cpu  time for grad    0.01 s
wall time for grad    0.01 s
 E :    -45.31905392  G :  0.065742    pred/act E change: -0.248D-01 -0.173D-01
Maxdispl :   0.1926   ||displ|| :   0.4696   Lambda : -0.103D-01
Largest |displ|/coords:  0.1926 (   7)  0.1717 (   9)  0.1668 (   8)
................................................................................
.............................. CYCLE    5 ......................................
................................................................................
   1    -45.5230393 -0.455230E+02  0.557E-01    9.06       0.0  T
   2    -45.5238771 -0.837860E-03  0.392E-01    9.06       1.0  T
   3    -45.5242085 -0.331343E-03  0.140E-01    9.06       1.0  T
   4    -45.5242456 -0.370955E-04  0.362E-02    9.08       1.0  T
   5    -45.5242498 -0.425385E-05  0.104E-02    9.08       2.0  T
   6    -45.5242500 -0.186449E-06  0.651E-03    9.07       3.2  T
   7    -45.5242501 -0.852797E-07  0.184E-03    9.07      11.3  T
   8    -45.5242501 -0.131201E-07  0.701E-04    9.07      29.8  T
speedup  0.95
cpu  time for SCC    0.01 s
wall time for SCC    0.01 s
speedup  1.02
cpu  time for grad    0.01 s
wall time for grad    0.01 s
 E :    -45.32602151  G :  0.071602    pred/act E change: -0.151D-01 -0.697D-02
Maxdispl :   0.2124   ||displ|| :   0.4335   Lambda : -0.114D-01
Largest |displ|/coords:  0.2124 (  12)  0.1975 (   1)  0.1702 (   7)
................................................................................
.............................. CYCLE    6 ......................................
................................................................................
   1    -45.5421913 -0.455422E+02  0.644E-01    9.22       0.0  T
   2    -45.5424582 -0.266904E-03  0.484E-01    9.23       1.0  T
   3    -45.5425921 -0.133808E-03  0.901E-02    9.24       1.0  T
   4    -45.5426329 -0.408837E-04  0.246E-02    9.24       1.0  T
   5    -45.5426341 -0.112347E-05  0.914E-03    9.24       2.3  T
   6    -45.5426341 -0.723044E-07  0.425E-03    9.24       4.9  T
   7    -45.5426342 -0.356221E-07  0.105E-03    9.24      19.9  T
speedup  1.13
cpu  time for SCC    0.01 s
wall time for SCC    0.01 s
speedup  1.01
cpu  time for grad    0.01 s
wall time for grad    0.01 s
 E :    -45.32738914  G :  0.072647    pred/act E change: -0.631D-02 -0.137D-02
Maxdispl :   0.1728   ||displ|| :   0.3797   Lambda : -0.852D-02
Largest |displ|/coords:  0.1728 (  11)  0.1691 (  10)  0.1519 (   7)
................................................................................
.............................. CYCLE    7 ......................................
................................................................................
   1    -45.5398089 -0.455398E+02  0.568E-01    9.25       0.0  T
   2    -45.5400754 -0.266535E-03  0.416E-01    9.25       1.0  T
   3    -45.5402100 -0.134576E-03  0.911E-02    9.24       1.0  T
   4    -45.5402407 -0.307329E-04  0.150E-02    9.24       1.4  T
   5    -45.5402409 -0.199986E-06  0.784E-03    9.24       2.7  T
   6    -45.5402411 -0.164191E-06  0.280E-03    9.24       7.4  T
   7    -45.5402411 -0.192339E-07  0.808E-04    9.24      25.8  T
speedup  0.93
cpu  time for SCC    0.00 s
wall time for SCC    0.01 s
speedup  1.01
cpu  time for grad    0.01 s
wall time for grad    0.01 s
 E :    -45.33323172  G :  0.045581    pred/act E change: -0.680D-02 -0.584D-02
Maxdispl :   0.1179   ||displ|| :   0.2960   Lambda : -0.407D-02
Largest |displ|/coords:  0.1179 (  15)  0.1104 (   2)  0.1074 (   7)
................................................................................
.............................. CYCLE    8 ......................................
................................................................................
   1    -45.5433602 -0.455434E+02  0.252E-01    9.31       0.0  T
   2    -45.5436652 -0.304993E-03  0.169E-01    9.29       1.0  T
   3    -45.5437943 -0.129051E-03  0.737E-02    9.26       1.0  T
   4    -45.5438019 -0.763531E-05  0.187E-02    9.25       1.1  T
   5    -45.5438028 -0.917752E-06  0.629E-03    9.25       3.3  T
   6    -45.5438029 -0.475920E-07  0.377E-03    9.25       5.5  T
   7    -45.5438029 -0.179489E-07  0.997E-04    9.25      20.9  T
speedup  0.93
cpu  time for SCC    0.00 s
wall time for SCC    0.01 s
speedup  1.01
cpu  time for grad    0.01 s
wall time for grad    0.01 s
 E :    -45.33598433  G :  0.051994    pred/act E change: -0.487D-02 -0.275D-02
Maxdispl :   0.1417   ||displ|| :   0.2645   Lambda : -0.435D-02
Largest |displ|/coords:  0.1417 (   1)  0.0871 (   6)  0.0851 (   4)
................................................................................
.............................. CYCLE    9 ......................................
................................................................................
   1    -45.5558481 -0.455558E+02  0.251E-01    9.36       0.0  T
   2    -45.5559643 -0.116137E-03  0.185E-01    9.35       1.0  T
   3    -45.5560155 -0.512862E-04  0.594E-02    9.31       1.0  T
   4    -45.5560257 -0.101387E-04  0.149E-02    9.31       1.4  T
   5    -45.5560260 -0.285666E-06  0.549E-03    9.31       3.8  T
   6    -45.5560260 -0.245177E-07  0.285E-03    9.31       7.3  T
speedup  1.06
cpu  time for SCC    0.01 s
wall time for SCC    0.00 s
speedup  1.07
cpu  time for grad    0.01 s
wall time for grad    0.01 s
 E :    -45.33818773  G :  0.034986    pred/act E change: -0.221D-02 -0.220D-02
Maxdispl :   0.1235   ||displ|| :   0.3077   Lambda : -0.407D-02
Largest |displ|/coords:  0.1235 (   2)  0.1124 (   7)  0.0972 (  11)
................................................................................
.............................. CYCLE   10 ......................................
................................................................................
   1    -45.5653580 -0.455654E+02  0.255E-01    9.35       0.0  T
   2    -45.5656279 -0.269870E-03  0.178E-01    9.30       1.0  T
   3    -45.5657526 -0.124670E-03  0.785E-02    9.20       1.0  T
   4    -45.5657618 -0.925330E-05  0.211E-02    9.18       1.0  T
   5    -45.5657626 -0.787003E-06  0.692E-03    9.18       3.0  T
   6    -45.5657627 -0.515749E-07  0.397E-03    9.18       5.3  T
   7    -45.5657627 -0.137478E-07  0.988E-04    9.18      21.1  T
speedup  1.11
cpu  time for SCC    0.01 s
wall time for SCC    0.01 s
speedup  1.01
cpu  time for grad    0.01 s
wall time for grad    0.01 s
 E :    -45.34147765  G :  0.031882    pred/act E change: -0.233D-02 -0.329D-02
Maxdispl :   0.1888   ||displ|| :   0.4369   Lambda : -0.522D-02
Largest |displ|/coords:  0.1888 (   7)  0.1242 (   2)  0.1208 (   4)
................................................................................
.............................. CYCLE   11 ......................................
................................................................................
   1    -45.5767819 -0.455768E+02  0.298E-01    9.15       0.0  T
   2    -45.5769827 -0.200837E-03  0.216E-01    9.08       1.0  T
   3    -45.5770848 -0.102100E-03  0.790E-02    8.94       1.0  T
   4    -45.5770976 -0.128092E-04  0.238E-02    8.93       1.0  T
   5    -45.5770985 -0.886859E-06  0.742E-03    8.93       2.8  T
   6    -45.5770986 -0.807444E-07  0.419E-03    8.93       5.0  T
   7    -45.5770986 -0.154504E-07  0.120E-03    8.93      17.3  T
speedup  0.93
cpu  time for SCC    0.01 s
wall time for SCC    0.01 s
speedup  0.99
cpu  time for grad    0.01 s
wall time for grad    0.01 s
 E :    -45.34456084  G :  0.029962    pred/act E change: -0.223D-02 -0.308D-02
Maxdispl :   0.1682   ||displ|| :   0.3047   Lambda : -0.259D-02
Largest |displ|/coords:  0.1682 (   7)  0.1165 (   2)  0.0825 (  11)
................................................................................
.............................. CYCLE   12 ......................................
................................................................................
   1    -45.5811283 -0.455811E+02  0.303E-01    8.73       0.0  T
   2    -45.5812424 -0.114078E-03  0.222E-01    8.69       1.0  T
   3    -45.5813087 -0.663692E-04  0.640E-02    8.61       1.0  T
   4    -45.5813205 -0.117507E-04  0.156E-02    8.61       1.3  T
   5    -45.5813208 -0.322962E-06  0.721E-03    8.61       2.9  T
   6    -45.5813209 -0.512448E-07  0.365E-03    8.61       5.7  T
   7    -45.5813209 -0.120577E-07  0.753E-04    8.61      27.7  T
speedup  0.94
cpu  time for SCC    0.01 s
wall time for SCC    0.01 s
speedup  0.92
cpu  time for grad    0.01 s
wall time for grad    0.01 s
 E :    -45.34426331  G :  0.053279    pred/act E change: -0.311D-02  0.298D-03
Maxdispl :   0.0987   ||displ|| :   0.3192   Lambda : -0.923D-02
Largest |displ|/coords:  0.0987 (   7)  0.0924 (  10)  0.0905 (  22)
................................................................................
.............................. CYCLE   13 ......................................
................................................................................
   1    -45.5729750 -0.455730E+02  0.420E-01    8.77       0.0  T
   2    -45.5734645 -0.489504E-03  0.297E-01    8.82       1.0  T
   3    -45.5737178 -0.253221E-03  0.113E-01    8.91       1.0  T
   4    -45.5737466 -0.288693E-04  0.240E-02    8.92       1.0  T
   5    -45.5737476 -0.994170E-06  0.121E-02    8.92       1.7  T
   6    -45.5737477 -0.103990E-06  0.591E-03    8.91       3.5  T
   7    -45.5737478 -0.347737E-07  0.115E-03    8.91      18.1  T
speedup  0.94
cpu  time for SCC    0.00 s
wall time for SCC    0.01 s
speedup  1.02
cpu  time for grad    0.01 s
wall time for grad    0.01 s
 E :    -45.34417671  G :  0.049677    pred/act E change: -0.141D-02  0.866D-04
Maxdispl :   0.0636   ||displ|| :   0.1608   Lambda : -0.403D-02
Largest |displ|/coords:  0.0636 (   1)  0.0627 (   7)  0.0566 (  18)
................................................................................
.............................. CYCLE   14 ......................................
................................................................................
   1    -45.5779650 -0.455780E+02  0.199E-01    8.91       0.0  T
   2    -45.5780259 -0.609509E-04  0.145E-01    8.89       1.0  T
   3    -45.5780593 -0.333890E-04  0.440E-02    8.86       1.0  T
   4    -45.5780649 -0.560807E-05  0.926E-03    8.86       2.3  T
   5    -45.5780650 -0.116181E-06  0.458E-03    8.86       4.5  T
   6    -45.5780650 -0.193511E-07  0.220E-03    8.86       9.5  T
speedup  0.87
cpu  time for SCC    0.00 s
wall time for SCC    0.00 s
speedup  0.99
cpu  time for grad    0.01 s
wall time for grad    0.01 s
 E :    -45.34695827  G :  0.026908    pred/act E change: -0.508D-02 -0.278D-02
Maxdispl :   0.0967   ||displ|| :   0.2187   Lambda : -0.223D-02
Largest |displ|/coords:  0.0967 (   4)  0.0805 (   7)  0.0722 (  16)
................................................................................
.............................. CYCLE   15 ......................................
................................................................................
   1    -45.5841070 -0.455841E+02  0.191E-01    8.82       0.0  T
   2    -45.5841733 -0.662735E-04  0.140E-01    8.80       1.0  T
   3    -45.5842117 -0.384629E-04  0.488E-02    8.75       1.0  T
   4    -45.5842168 -0.506540E-05  0.121E-02    8.75       1.7  T
   5    -45.5842171 -0.267982E-06  0.526E-03    8.75       4.0  T
   6    -45.5842171 -0.284108E-07  0.252E-03    8.75       8.3  T
speedup  1.09
cpu  time for SCC    0.00 s
wall time for SCC    0.00 s
speedup  1.08
cpu  time for grad    0.01 s
wall time for grad    0.01 s
 E :    -45.34787814  G :  0.029391    pred/act E change: -0.207D-02 -0.920D-03
Maxdispl :   0.0880   ||displ|| :   0.2026   Lambda : -0.165D-02
Largest |displ|/coords:  0.0880 (   3)  0.0754 (   1)  0.0648 (   4)
................................................................................
.............................. CYCLE   16 ......................................
................................................................................
   1    -45.5818733 -0.455819E+02  0.136E-01    8.75       0.0  T
   2    -45.5818988 -0.255403E-04  0.100E-01    8.75       1.0  T
   3    -45.5819124 -0.135815E-04  0.304E-02    8.75       1.0  T
   4    -45.5819147 -0.236428E-05  0.662E-03    8.75       3.2  T
   5    -45.5819148 -0.737132E-07  0.292E-03    8.75       7.1  T
   6    -45.5819148 -0.106407E-07  0.131E-03    8.75      15.9  T
speedup  1.09
cpu  time for SCC    0.01 s
wall time for SCC    0.00 s
speedup  0.99
cpu  time for grad    0.01 s
wall time for grad    0.01 s
 E :    -45.34911513  G :  0.030221    pred/act E change: -0.117D-02 -0.124D-02
Maxdispl :   0.1946   ||displ|| :   0.3999   Lambda : -0.334D-02
Largest |displ|/coords:  0.1946 (   3)  0.1373 (   4)  0.1143 (  10)
................................................................................
.............................. CYCLE   17 ......................................
................................................................................
   1    -45.5838058 -0.455838E+02  0.285E-01    8.73       0.0  T
   2    -45.5840766 -0.270787E-03  0.201E-01    8.72       1.0  T
   3    -45.5842126 -0.136026E-03  0.805E-02    8.70       1.0  T
   4    -45.5842243 -0.116300E-04  0.132E-02    8.69       1.6  T
   5    -45.5842246 -0.319549E-06  0.759E-03    8.69       2.7  T
   6    -45.5842246 -0.547288E-07  0.284E-03    8.69       7.3  T
   7    -45.5842246 -0.169193E-07  0.798E-04    8.69      26.1  T
speedup  0.94
cpu  time for SCC    0.01 s
wall time for SCC    0.01 s
speedup  1.02
cpu  time for grad    0.01 s
wall time for grad    0.01 s
 E :    -45.35134133  G :  0.020379    pred/act E change: -0.861D-03 -0.223D-02
Maxdispl :   0.2499   ||displ|| :   0.4191   Lambda : -0.176D-02
Largest |displ|/coords:  0.2499 (   4)  0.1629 (   3)  0.1160 (   7)
................................................................................
.............................. CYCLE   18 ......................................
................................................................................
   1    -45.5864506 -0.455865E+02  0.241E-01    8.62       0.0  T
   2    -45.5865217 -0.710837E-04  0.179E-01    8.59       1.0  T
   3    -45.5865658 -0.441047E-04  0.499E-02    8.53       1.0  T
   4    -45.5865727 -0.688565E-05  0.117E-02    8.53       1.8  T
   5    -45.5865729 -0.207619E-06  0.521E-03    8.53       4.0  T
   6    -45.5865729 -0.261509E-07  0.236E-03    8.53       8.8  T
speedup  0.87
cpu  time for SCC    0.00 s
wall time for SCC    0.00 s
speedup  0.99
cpu  time for grad    0.01 s
wall time for grad    0.01 s
 E :    -45.35225314  G :  0.023536    pred/act E change: -0.194D-02 -0.912D-03
Maxdispl :   0.0927   ||displ|| :   0.1987   Lambda : -0.121D-02
Largest |displ|/coords:  0.0927 (   4)  0.0888 (   3)  0.0721 (  18)
................................................................................
.............................. CYCLE   19 ......................................
................................................................................
   1    -45.5941671 -0.455942E+02  0.104E-01    8.59       0.0  T
   2    -45.5941785 -0.114862E-04  0.759E-02    8.57       1.0  T
   3    -45.5941853 -0.673656E-05  0.217E-02    8.55       1.0  T
   4    -45.5941863 -0.104710E-05  0.645E-03    8.55       3.2  T
   5    -45.5941864 -0.682335E-07  0.204E-03    8.55      10.2  T
   6    -45.5941864 -0.418738E-08  0.106E-03    8.55      19.6  T
speedup  1.09
cpu  time for SCC    0.00 s
wall time for SCC    0.00 s
speedup  1.06
cpu  time for grad    0.01 s
wall time for grad    0.01 s
 E :    -45.35304552  G :  0.015081    pred/act E change: -0.103D-02 -0.792D-03
Maxdispl :   0.1395   ||displ|| :   0.2808   Lambda : -0.108D-02
Largest |displ|/coords:  0.1395 (   4)  0.0883 (  17)  0.0862 (   3)
................................................................................
.............................. CYCLE   20 ......................................
................................................................................
   1    -45.5929971 -0.455930E+02  0.151E-01    8.59       0.0  T
   2    -45.5930102 -0.131520E-04  0.111E-01    8.58       1.0  T
   3    -45.5930166 -0.640659E-05  0.229E-02    8.57       1.0  T
   4    -45.5930182 -0.160627E-05  0.654E-03    8.58       3.2  T
   5    -45.5930184 -0.111958E-06  0.205E-03    8.58      10.2  T
   6    -45.5930184 -0.340361E-08  0.118E-03    8.58      17.7  T
speedup  1.09
cpu  time for SCC    0.00 s
wall time for SCC    0.00 s
speedup  1.07
cpu  time for grad    0.01 s
wall time for grad    0.01 s
 E :    -45.35356119  G :  0.013457    pred/act E change: -0.631D-03 -0.516D-03
Maxdispl :   0.1731   ||displ|| :   0.3151   Lambda : -0.897D-03
Largest |displ|/coords:  0.1731 (   4)  0.1500 (   3)  0.0742 (   2)
................................................................................
.............................. CYCLE   21 ......................................
................................................................................
   1    -45.5947255 -0.455947E+02  0.151E-01    8.59       0.0  T
   2    -45.5947390 -0.134460E-04  0.111E-01    8.59       1.0  T
   3    -45.5947475 -0.856088E-05  0.237E-02    8.58       1.0  T
   4    -45.5947490 -0.150446E-05  0.712E-03    8.58       2.9  T
   5    -45.5947491 -0.852593E-07  0.249E-03    8.58       8.4  T
   6    -45.5947491 -0.807021E-08  0.128E-03    8.58      16.3  T
speedup  1.09
cpu  time for SCC    0.00 s
wall time for SCC    0.00 s
speedup  1.07
cpu  time for grad    0.01 s
wall time for grad    0.01 s
 E :    -45.35407683  G :  0.012896    pred/act E change: -0.581D-03 -0.516D-03
Maxdispl :   0.1623   ||displ|| :   0.2945   Lambda : -0.615D-03
Largest |displ|/coords:  0.1623 (   3)  0.1294 (   4)  0.0970 (   1)
................................................................................
.............................. CYCLE   22 ......................................
................................................................................
   1    -45.5960613 -0.455961E+02  0.129E-01    8.59       0.0  T
   2    -45.5960713 -0.100547E-04  0.971E-02    8.59       1.0  T
   3    -45.5960791 -0.774352E-05  0.230E-02    8.59       1.0  T
   4    -45.5960804 -0.131765E-05  0.723E-03    8.59       2.9  T
   5    -45.5960805 -0.951190E-07  0.240E-03    8.59       8.7  T
   6    -45.5960805 -0.565014E-08  0.131E-03    8.59      16.0  T
speedup  1.06
cpu  time for SCC    0.01 s
wall time for SCC    0.00 s
speedup  1.07
cpu  time for grad    0.01 s
wall time for grad    0.01 s
 E :    -45.35444754  G :  0.009805    pred/act E change: -0.493D-03 -0.371D-03
Maxdispl :   0.1141   ||displ|| :   0.2514   Lambda : -0.529D-03
Largest |displ|/coords:  0.1141 (   4)  0.1095 (   2)  0.0853 (   6)
................................................................................
.............................. CYCLE   23 ......................................
................................................................................
   1    -45.5941849 -0.455942E+02  0.108E-01    8.66       0.0  T
   2    -45.5941915 -0.658035E-05  0.814E-02    8.68       1.0  T
   3    -45.5941962 -0.472695E-05  0.163E-02    8.72       1.3  T
   4    -45.5941971 -0.968163E-06  0.590E-03    8.72       3.5  T
   5    -45.5941972 -0.599690E-07  0.222E-03    8.71       9.4  T
   6    -45.5941972 -0.761338E-08  0.120E-03    8.71      17.4  T
speedup  1.09
cpu  time for SCC    0.00 s
wall time for SCC    0.00 s
speedup  0.99
cpu  time for grad    0.01 s
wall time for grad    0.01 s
 E :    -45.35475756  G :  0.009278    pred/act E change: -0.334D-03 -0.310D-03
Maxdispl :   0.1144   ||displ|| :   0.2199   Lambda : -0.373D-03
Largest |displ|/coords:  0.1144 (   3)  0.0859 (   2)  0.0777 (   1)
................................................................................
.............................. CYCLE   24 ......................................
................................................................................
   1    -45.5941119 -0.455941E+02  0.104E-01    8.72       0.0  T
   2    -45.5941200 -0.809300E-05  0.776E-02    8.73       1.0  T
   3    -45.5941233 -0.333435E-05  0.174E-02    8.75       1.2  T
   4    -45.5941244 -0.112392E-05  0.517E-03    8.74       4.0  T
   5    -45.5941245 -0.656123E-07  0.147E-03    8.74      14.2  T
   6    -45.5941245 -0.222504E-08  0.891E-04    8.74      23.4  T
speedup  1.06
cpu  time for SCC    0.00 s
wall time for SCC    0.00 s
speedup  0.97
cpu  time for grad    0.01 s
wall time for grad    0.01 s
 E :    -45.35492517  G :  0.010465    pred/act E change: -0.281D-03 -0.168D-03
Maxdispl :   0.1145   ||displ|| :   0.2154   Lambda : -0.316D-03
Largest |displ|/coords:  0.1145 (   3)  0.0996 (   4)  0.0935 (   2)
................................................................................
.............................. CYCLE   25 ......................................
................................................................................
   1    -45.5939207 -0.455939E+02  0.101E-01    8.74       0.0  T
   2    -45.5939267 -0.597302E-05  0.739E-02    8.74       1.0  T
   3    -45.5939300 -0.330191E-05  0.185E-02    8.74       1.1  T
   4    -45.5939307 -0.681997E-06  0.444E-03    8.74       4.7  T
   5    -45.5939307 -0.354415E-07  0.149E-03    8.74      14.0  T
   6    -45.5939307 -0.237254E-08  0.820E-04    8.74      25.4  T
speedup  1.06
cpu  time for SCC    0.00 s
wall time for SCC    0.00 s
speedup  0.98
cpu  time for grad    0.01 s
wall time for grad    0.01 s
 E :    -45.35503569  G :  0.011541    pred/act E change: -0.195D-03 -0.111D-03
Maxdispl :   0.0835   ||displ|| :   0.1176   Lambda : -0.260D-03
Largest |displ|/coords:  0.0835 (   3)  0.0316 (  11)  0.0310 (  18)

generating ANC from model Hessian ...
 Shifting diagonal of input Hessian by   5.061235415442253E-003
 Lowest  eigenvalues of input Hessian
    0.005000   -0.000000   -0.000000   -0.000000   -0.000000    0.000000
    0.000000    0.005366    0.005565    0.006564    0.006688    0.007108
    0.007601    0.009623    0.010507    0.010662    0.011575    0.014081
 Highest eigenvalues
    1.379106    1.391320    1.403246    2.910703    3.190881    3.574373
 
cpu  time for ANC gen    0.01 s
wall time for ANC gen    0.01 s
................................................................................
.............................. CYCLE   26 ......................................
................................................................................
   1    -45.5967257 -0.455967E+02  0.627E-02    8.79       0.0  T
   2    -45.5967288 -0.314140E-05  0.462E-02    8.79       1.0  T
   3    -45.5967309 -0.206300E-05  0.110E-02    8.79       1.9  T
   4    -45.5967313 -0.358881E-06  0.285E-03    8.79       7.3  T
   5    -45.5967313 -0.933993E-08  0.125E-03    8.79      16.6  T
   6    -45.5967313 -0.221542E-08  0.517E-04    8.79      40.3  T
   7    -45.5967313 -0.364466E-09  0.185E-04    8.79     113.0  T
speedup  0.94
cpu  time for SCC    0.00 s
wall time for SCC    0.01 s
speedup  0.97
cpu  time for grad    0.01 s
wall time for grad    0.01 s
 E :    -45.35512676  G :  0.006420    pred/act E change:  0.000D+00 -0.911D-04
Maxdispl :   0.0838   ||displ|| :   0.1343   Lambda : -0.232D-03
Largest |displ|/coords:  0.0838 (   1)  0.0521 (   9)  0.0408 (   8)
................................................................................
.............................. CYCLE   27 ......................................
................................................................................
   1    -45.5962548 -0.455963E+02  0.887E-02    8.78       0.0  T
   2    -45.5962565 -0.165072E-05  0.665E-02    8.78       1.0  T
   3    -45.5962577 -0.121624E-05  0.725E-03    8.78       2.9  T
   4    -45.5962579 -0.230241E-06  0.222E-03    8.78       9.4  T
   5    -45.5962579 -0.380607E-08  0.942E-04    8.78      22.1  T
speedup  1.00
cpu  time for SCC    0.00 s
wall time for SCC    0.00 s
speedup  0.95
cpu  time for grad    0.01 s
wall time for grad    0.01 s
 E :    -45.35529456  G :  0.003408    pred/act E change:  0.000D+00 -0.168D-03
Maxdispl :   0.1270   ||displ|| :   0.2202   Lambda : -0.241D-03
Largest |displ|/coords:  0.1270 (   1)  0.1008 (   8)  0.0630 (  14)
................................................................................
.............................. CYCLE   28 ......................................
................................................................................
   1    -45.5947480 -0.455947E+02  0.162E-01    8.77       0.0  T
   2    -45.5947547 -0.673054E-05  0.122E-01    8.77       1.0  T
   3    -45.5947596 -0.486644E-05  0.147E-02    8.77       1.4  T
   4    -45.5947606 -0.992523E-06  0.398E-03    8.77       5.2  T
   5    -45.5947606 -0.128267E-07  0.197E-03    8.77      10.6  T
   6    -45.5947606 -0.545570E-08  0.630E-04    8.77      33.1  T
   7    -45.5947606 -0.772502E-09  0.219E-04    8.77      95.1  T
speedup  0.93
cpu  time for SCC    0.01 s
wall time for SCC    0.01 s
speedup  0.98
cpu  time for grad    0.01 s
wall time for grad    0.01 s
 E :    -45.35541590  G :  0.007609    pred/act E change: -0.118D-03 -0.121D-03
Maxdispl :   0.0386   ||displ|| :   0.0717   Lambda : -0.833D-04
Largest |displ|/coords:  0.0386 (   8)  0.0371 (   1)  0.0206 (   2)
................................................................................
.............................. CYCLE   29 ......................................
................................................................................
   1    -45.5954647 -0.455955E+02  0.374E-02    8.78       0.0  T
   2    -45.5954650 -0.338951E-06  0.281E-02    8.78       1.0  T
   3    -45.5954654 -0.323212E-06  0.410E-03    8.78       5.1  T
   4    -45.5954654 -0.362566E-07  0.133E-03    8.78      15.7  T
   5    -45.5954654 -0.251123E-08  0.459E-04    8.78      45.5  T
speedup  1.05
cpu  time for SCC    0.00 s
wall time for SCC    0.00 s
speedup  1.05
cpu  time for grad    0.01 s
wall time for grad    0.01 s
 E :    -45.35548149  G :  0.004582    pred/act E change: -0.126D-03 -0.656D-04
Maxdispl :   0.1125   ||displ|| :   0.1929   Lambda : -0.122D-03
Largest |displ|/coords:  0.1125 (   1)  0.1057 (   8)  0.0545 (   2)
................................................................................
.............................. CYCLE   30 ......................................
................................................................................
   1    -45.5958159 -0.455958E+02  0.111E-01    8.80       0.0  T
   2    -45.5958180 -0.212468E-05  0.840E-02    8.80       1.0  T
   3    -45.5958205 -0.245040E-05  0.922E-03    8.80       2.3  T
   4    -45.5958206 -0.168984E-06  0.312E-03    8.80       6.7  T
   5    -45.5958207 -0.102600E-07  0.118E-03    8.80      17.7  T
   6    -45.5958207 -0.173250E-08  0.651E-04    8.80      32.0  T
speedup  1.09
cpu  time for SCC    0.00 s
wall time for SCC    0.00 s
speedup  1.07
cpu  time for grad    0.01 s
wall time for grad    0.01 s
 E :    -45.35556040  G :  0.003127    pred/act E change: -0.419D-04 -0.789D-04
Maxdispl :   0.0656   ||displ|| :   0.1288   Lambda : -0.528D-04
Largest |displ|/coords:  0.0656 (   1)  0.0630 (   8)  0.0479 (   4)
................................................................................
.............................. CYCLE   31 ......................................
................................................................................
   1    -45.5963665 -0.455964E+02  0.599E-02    8.80       0.0  T
   2    -45.5963673 -0.711727E-06  0.449E-02    8.80       1.0  T
   3    -45.5963680 -0.705159E-06  0.606E-03    8.81       3.4  T
   4    -45.5963680 -0.692004E-07  0.188E-03    8.81      11.1  T
   5    -45.5963680 -0.477505E-08  0.625E-04    8.81      33.4  T
   6    -45.5963680 -0.444253E-09  0.374E-04    8.81      55.7  T
speedup  0.87
cpu  time for SCC    0.00 s
wall time for SCC    0.00 s
speedup  0.96
cpu  time for grad    0.01 s
wall time for grad    0.01 s
 E :    -45.35559034  G :  0.002966    pred/act E change: -0.632D-04 -0.299D-04
Maxdispl :   0.1530   ||displ|| :   0.2344   Lambda : -0.586D-04
Largest |displ|/coords:  0.1530 (   1)  0.1019 (   8)  0.0775 (   2)
................................................................................
.............................. CYCLE   32 ......................................
................................................................................
   1    -45.5951222 -0.455951E+02  0.128E-01    8.81       0.0  T
   2    -45.5951254 -0.314349E-05  0.965E-02    8.81       1.0  T
   3    -45.5951289 -0.349784E-05  0.111E-02    8.81       1.9  T
   4    -45.5951292 -0.282247E-06  0.385E-03    8.81       5.4  T
   5    -45.5951292 -0.154872E-07  0.142E-03    8.81      14.7  T
   6    -45.5951292 -0.234227E-08  0.743E-04    8.81      28.1  T
   7    -45.5951292 -0.111917E-08  0.160E-04    8.81     130.1  T
speedup  0.94
cpu  time for SCC    0.00 s
wall time for SCC    0.01 s
speedup  0.98
cpu  time for grad    0.01 s
wall time for grad    0.01 s
 E :    -45.35560402  G :  0.005135    pred/act E change: -0.268D-04 -0.137D-04
Maxdispl :   0.0252   ||displ|| :   0.0535   Lambda : -0.510D-04
Largest |displ|/coords:  0.0252 (   8)  0.0250 (   1)  0.0232 (   9)
................................................................................
.............................. CYCLE   33 ......................................
................................................................................
   1    -45.5962611 -0.455963E+02  0.401E-02    8.81       0.0  T
   2    -45.5962620 -0.852988E-06  0.299E-02    8.81       1.0  T
   3    -45.5962625 -0.545852E-06  0.557E-03    8.81       3.7  T
   4    -45.5962626 -0.119090E-06  0.128E-03    8.81      16.2  T
   5    -45.5962626 -0.190847E-08  0.570E-04    8.81      36.6  T
speedup  1.03
cpu  time for SCC    0.00 s
wall time for SCC    0.00 s
speedup  0.96
cpu  time for grad    0.01 s
wall time for grad    0.01 s
 E :    -45.35563332  G :  0.002197    pred/act E change: -0.309D-04 -0.293D-04
Maxdispl :   0.0395   ||displ|| :   0.0813   Lambda : -0.230D-04
Largest |displ|/coords:  0.0395 (   1)  0.0329 (   4)  0.0296 (   9)
................................................................................
.............................. CYCLE   34 ......................................
................................................................................
   1    -45.5966173 -0.455966E+02  0.301E-02    8.82       0.0  T
   2    -45.5966175 -0.187349E-06  0.224E-02    8.82       1.0  T
   3    -45.5966176 -0.106026E-06  0.356E-03    8.81       5.9  T
   4    -45.5966176 -0.272120E-07  0.105E-03    8.81      19.9  T
   5    -45.5966176 -0.120186E-08  0.263E-04    8.81      79.2  T
   6    -45.5966176 -0.743583E-10  0.156E-04    8.81     134.0  T
speedup  1.06
cpu  time for SCC    0.00 s
wall time for SCC    0.00 s
speedup  1.03
cpu  time for grad    0.01 s
wall time for grad    0.01 s
 E :    -45.35565166  G :  0.002224    pred/act E change: -0.256D-04 -0.183D-04
Maxdispl :   0.0981   ||displ|| :   0.1891   Lambda : -0.369D-04
Largest |displ|/coords:  0.0981 (   1)  0.0728 (   4)  0.0663 (   3)
................................................................................
.............................. CYCLE   35 ......................................
................................................................................
   1    -45.5967049 -0.455967E+02  0.774E-02    8.82       0.0  T
   2    -45.5967058 -0.904201E-06  0.579E-02    8.82       1.0  T
   3    -45.5967065 -0.684363E-06  0.781E-03    8.81       2.7  T
   4    -45.5967066 -0.121849E-06  0.249E-03    8.81       8.4  T
   5    -45.5967066 -0.540562E-08  0.670E-04    8.81      31.1  T
   6    -45.5967066 -0.470145E-09  0.387E-04    8.81      53.8  T
speedup  1.09
cpu  time for SCC    0.00 s
wall time for SCC    0.00 s
speedup  1.03
cpu  time for grad    0.01 s
wall time for grad    0.01 s
 E :    -45.35567612  G :  0.002312    pred/act E change: -0.116D-04 -0.245D-04
Maxdispl :   0.0532   ||displ|| :   0.1091   Lambda : -0.158D-04
Largest |displ|/coords:  0.0532 (   1)  0.0474 (   3)  0.0449 (   4)
................................................................................
.............................. CYCLE   36 ......................................
................................................................................
   1    -45.5966698 -0.455967E+02  0.501E-02    8.81       0.0  T
   2    -45.5966701 -0.315509E-06  0.375E-02    8.81       1.0  T
   3    -45.5966703 -0.237398E-06  0.466E-03    8.80       4.5  T
   4    -45.5966704 -0.433965E-07  0.152E-03    8.81      13.7  T
   5    -45.5966704 -0.176012E-08  0.396E-04    8.81      52.6  T
   6    -45.5966704 -0.144887E-09  0.230E-04    8.81      90.5  T
speedup  0.87
cpu  time for SCC    0.00 s
wall time for SCC    0.00 s
speedup  0.95
cpu  time for grad    0.01 s
wall time for grad    0.01 s
 E :    -45.35568801  G :  0.002142    pred/act E change: -0.191D-04 -0.119D-04
Maxdispl :   0.0686   ||displ|| :   0.1254   Lambda : -0.206D-04
Largest |displ|/coords:  0.0686 (   3)  0.0542 (   1)  0.0494 (   4)
................................................................................
.............................. CYCLE   37 ......................................
................................................................................
   1    -45.5966014 -0.455966E+02  0.665E-02    8.80       0.0  T
   2    -45.5966019 -0.573561E-06  0.499E-02    8.80       1.0  T
   3    -45.5966023 -0.377029E-06  0.590E-03    8.80       3.5  T
   4    -45.5966024 -0.904333E-07  0.210E-03    8.80       9.9  T
   5    -45.5966024 -0.320111E-08  0.527E-04    8.80      39.5  T
   6    -45.5966024 -0.240689E-09  0.313E-04    8.80      66.6  T
speedup  1.09
cpu  time for SCC    0.00 s
wall time for SCC    0.00 s
speedup  1.03
cpu  time for grad    0.01 s
wall time for grad    0.01 s
 E :    -45.35570306  G :  0.002026    pred/act E change: -0.798D-05 -0.151D-04
Maxdispl :   0.0727   ||displ|| :   0.1064   Lambda : -0.204D-04
Largest |displ|/coords:  0.0727 (   3)  0.0405 (   1)  0.0363 (   4)
................................................................................
.............................. CYCLE   38 ......................................
................................................................................
   1    -45.5966076 -0.455966E+02  0.669E-02    8.79       0.0  T
   2    -45.5966084 -0.762118E-06  0.503E-02    8.79       1.0  T
   3    -45.5966088 -0.432083E-06  0.600E-03    8.79       3.5  T
   4    -45.5966090 -0.135193E-06  0.240E-03    8.79       8.7  T
   5    -45.5966090 -0.515151E-08  0.601E-04    8.79      34.7  T
   6    -45.5966090 -0.392802E-09  0.359E-04    8.79      58.0  T
speedup  0.87
cpu  time for SCC    0.00 s
wall time for SCC    0.00 s
speedup  0.95
cpu  time for grad    0.01 s
wall time for grad    0.01 s
 E :    -45.35571812  G :  0.002269    pred/act E change: -0.105D-04 -0.151D-04
Maxdispl :   0.0904   ||displ|| :   0.1209   Lambda : -0.230D-04
Largest |displ|/coords:  0.0904 (   3)  0.0466 (   1)  0.0328 (   7)
................................................................................
.............................. CYCLE   39 ......................................
................................................................................
   1    -45.5964776 -0.455965E+02  0.765E-02    8.79       0.0  T
   2    -45.5964789 -0.125453E-05  0.575E-02    8.79       1.0  T
   3    -45.5964795 -0.618932E-06  0.734E-03    8.78       2.8  T
   4    -45.5964797 -0.234151E-06  0.313E-03    8.78       6.7  T
   5    -45.5964797 -0.931972E-08  0.729E-04    8.78      28.6  T
   6    -45.5964797 -0.699004E-09  0.438E-04    8.78      47.6  T
speedup  1.09
cpu  time for SCC    0.00 s
wall time for SCC    0.00 s
speedup  1.03
cpu  time for grad    0.01 s
wall time for grad    0.01 s
 E :    -45.35573565  G :  0.002752    pred/act E change: -0.103D-04 -0.175D-04
Maxdispl :   0.1228   ||displ|| :   0.1584   Lambda : -0.338D-04
Largest |displ|/coords:  0.1228 (   3)  0.0484 (   1)  0.0453 (   7)
................................................................................
.............................. CYCLE   40 ......................................
................................................................................
   1    -45.5966691 -0.455967E+02  0.104E-01    8.79       0.0  T
   2    -45.5966721 -0.293989E-05  0.784E-02    8.78       1.0  T
   3    -45.5966734 -0.138281E-05  0.110E-02    8.78       1.9  T
   4    -45.5966740 -0.538926E-06  0.476E-03    8.78       4.4  T
   5    -45.5966740 -0.215591E-07  0.111E-03    8.78      18.8  T
   6    -45.5966740 -0.177155E-08  0.659E-04    8.78      31.7  T
   7    -45.5966740 -0.786827E-09  0.168E-04    8.78     123.8  T
speedup  0.93
cpu  time for SCC    0.00 s
wall time for SCC    0.01 s
speedup  0.98
cpu  time for grad    0.01 s
wall time for grad    0.01 s
 E :    -45.35576201  G :  0.003510    pred/act E change: -0.117D-04 -0.264D-04
Maxdispl :   0.2435   ||displ|| :   0.3237   Lambda : -0.634D-04
Largest |displ|/coords:  0.2435 (   3)  0.1241 (   1)  0.0844 (   7)
................................................................................
.............................. CYCLE   41 ......................................
................................................................................
   1    -45.5956150 -0.455956E+02  0.196E-01    8.77       0.0  T
   2    -45.5956280 -0.130363E-04  0.147E-01    8.76       1.0  T
   3    -45.5956332 -0.519943E-05  0.226E-02    8.76       1.0  T
   4    -45.5956357 -0.246235E-05  0.957E-03    8.76       2.2  T
   5    -45.5956358 -0.105453E-06  0.222E-03    8.76       9.4  T
   6    -45.5956358 -0.623964E-08  0.132E-03    8.76      15.7  T
   7    -45.5956358 -0.333217E-08  0.331E-04    8.76      63.0  T
   8    -45.5956358 -0.316170E-09  0.621E-05    8.76     335.6  T
speedup  0.97
cpu  time for SCC    0.01 s
wall time for SCC    0.01 s
speedup  1.05
cpu  time for grad    0.01 s
wall time for grad    0.01 s
 E :    -45.35580983  G :  0.005621    pred/act E change: -0.173D-04 -0.478D-04
Maxdispl :   0.3278   ||displ|| :   0.4494   Lambda : -0.145D-03
Largest |displ|/coords:  0.3278 (   3)  0.1249 (   7)  0.1136 (  10)
................................................................................
.............................. CYCLE   42 ......................................
................................................................................
   1    -45.5958030 -0.455958E+02  0.290E-01    8.76       0.0  T
   2    -45.5958556 -0.525809E-04  0.218E-01    8.76       1.0  T
   3    -45.5958747 -0.191158E-04  0.440E-02    8.75       1.0  T
   4    -45.5958833 -0.857790E-05  0.171E-02    8.75       1.2  T
   5    -45.5958837 -0.392345E-06  0.424E-03    8.75       4.9  T
   6    -45.5958837 -0.229576E-07  0.239E-03    8.75       8.7  T
   7    -45.5958837 -0.977994E-08  0.605E-04    8.75      34.4  T
speedup  1.13
cpu  time for SCC    0.01 s
wall time for SCC    0.01 s
speedup  1.01
cpu  time for grad    0.01 s
wall time for grad    0.01 s
 E :    -45.35592378  G :  0.010756    pred/act E change: -0.350D-04 -0.114D-03
Maxdispl :   0.3109   ||displ|| :   0.4959   Lambda : -0.310D-03
Largest |displ|/coords:  0.3109 (   3)  0.1814 (  10)  0.1321 (   2)
................................................................................
.............................. CYCLE   43 ......................................
................................................................................
   1    -45.5983008 -0.455983E+02  0.311E-01    8.76       0.0  T
   2    -45.5984155 -0.114635E-03  0.232E-01    8.76       1.0  T
   3    -45.5984589 -0.434116E-04  0.629E-02    8.74       1.0  T
   4    -45.5984723 -0.134304E-04  0.229E-02    8.74       1.0  T
   5    -45.5984731 -0.768593E-06  0.589E-03    8.74       3.5  T
   6    -45.5984731 -0.404516E-07  0.317E-03    8.74       6.6  T
   7    -45.5984731 -0.149743E-07  0.810E-04    8.74      25.7  T
   8    -45.5984731 -0.200374E-08  0.167E-04    8.74     124.6  T
speedup  0.97
cpu  time for SCC    0.01 s
wall time for SCC    0.01 s
speedup  1.02
cpu  time for grad    0.01 s
wall time for grad    0.01 s
 E :    -45.35613645  G :  0.019943    pred/act E change: -0.874D-04 -0.213D-03
Maxdispl :   0.3445   ||displ|| :   0.5678   Lambda : -0.671D-03
Largest |displ|/coords:  0.3445 (   3)  0.1800 (   2)  0.1800 (   7)
................................................................................
.............................. CYCLE   44 ......................................
................................................................................
   1    -45.6017207 -0.456017E+02  0.390E-01    8.73       0.0  T
   2    -45.6019311 -0.210421E-03  0.291E-01    8.71       1.0  T
   3    -45.6020162 -0.850844E-04  0.850E-02    8.66       1.0  T
   4    -45.6020389 -0.227294E-04  0.299E-02    8.66       1.0  T
   5    -45.6020404 -0.148497E-05  0.809E-03    8.67       2.6  T
   6    -45.6020404 -0.640204E-07  0.439E-03    8.67       4.7  T
   7    -45.6020405 -0.274711E-07  0.106E-03    8.67      19.7  T
   8    -45.6020405 -0.367972E-08  0.233E-04    8.67      89.4  T
speedup  1.00
cpu  time for SCC    0.01 s
wall time for SCC    0.01 s
speedup  1.03
cpu  time for grad    0.01 s
wall time for grad    0.01 s
 E :    -45.35672969  G :  0.031714    pred/act E change: -0.193D-03 -0.593D-03
Maxdispl :   0.2147   ||displ|| :   0.6555   Lambda : -0.392D-02
Largest |displ|/coords:  0.2147 (   5)  0.2124 (  15)  0.2005 (  36)
................................................................................
.............................. CYCLE   45 ......................................
................................................................................
   1    -45.6419015 -0.456419E+02  0.556E-01    9.09       0.0  T
   2    -45.6423594 -0.457948E-03  0.418E-01    9.01       1.0  T
   3    -45.6426210 -0.261581E-03  0.133E-01    8.85       1.0  T
   4    -45.6426641 -0.430595E-04  0.438E-02    8.87       1.0  T
   5    -45.6426673 -0.319991E-05  0.144E-02    8.88       1.4  T
   6    -45.6426674 -0.138446E-06  0.761E-03    8.88       2.7  T
   7    -45.6426675 -0.808266E-07  0.154E-03    8.88      13.5  T
   8    -45.6426675 -0.712203E-08  0.500E-04    8.88      41.7  T
speedup  0.98
cpu  time for SCC    0.01 s
wall time for SCC    0.01 s
speedup  0.95
cpu  time for grad    0.01 s
wall time for grad    0.01 s
 E :    -45.35264818  G :  0.084693    pred/act E change: -0.444D-03  0.408D-02
Maxdispl :   0.2226   ||displ|| :   0.5646   Lambda : -0.214D-01
Largest |displ|/coords:  0.2226 (  36)  0.1831 (  15)  0.1552 (  49)
................................................................................
.............................. CYCLE   46 ......................................
................................................................................
   1    -45.5794564 -0.455795E+02  0.599E-01    8.31       0.0  T
   2    -45.5805527 -0.109630E-02  0.431E-01    8.41       1.0  T
   3    -45.5810758 -0.523060E-03  0.177E-01    8.57       1.0  T
   4    -45.5811306 -0.548062E-04  0.537E-02    8.56       1.0  T
   5    -45.5811358 -0.522638E-05  0.184E-02    8.56       1.1  T
   6    -45.5811365 -0.668552E-06  0.120E-02    8.56       1.7  T
   7    -45.5811366 -0.115927E-06  0.215E-03    8.56       9.7  T
   8    -45.5811366 -0.147837E-07  0.688E-04    8.56      30.3  T
speedup  1.00
cpu  time for SCC    0.01 s
wall time for SCC    0.01 s
speedup  0.97
cpu  time for grad    0.01 s
wall time for grad    0.01 s
 E :    -45.35459846  G :  0.055361    pred/act E change: -0.280D-02 -0.195D-02
Maxdispl :   0.1391   ||displ|| :   0.3805   Lambda : -0.102D-01
Largest |displ|/coords:  0.1391 (   3)  0.1138 (   7)  0.1117 (  36)
................................................................................
.............................. CYCLE   47 ......................................
................................................................................
   1    -45.6225879 -0.456226E+02  0.389E-01    8.85       0.0  T
   2    -45.6229352 -0.347302E-03  0.285E-01    8.79       1.0  T
   3    -45.6231202 -0.185065E-03  0.108E-01    8.68       1.0  T
   4    -45.6231411 -0.208341E-04  0.321E-02    8.69       1.0  T
   5    -45.6231430 -0.198820E-05  0.111E-02    8.69       1.9  T
   6    -45.6231431 -0.760460E-07  0.573E-03    8.69       3.6  T
   7    -45.6231432 -0.492928E-07  0.109E-03    8.69      19.1  T
speedup  0.94
cpu  time for SCC    0.00 s
wall time for SCC    0.01 s
speedup  1.02
cpu  time for grad    0.01 s
wall time for grad    0.01 s
 E :    -45.35752852  G :  0.044572    pred/act E change: -0.141D-01 -0.293D-02
Maxdispl :   0.1361   ||displ|| :   0.2697   Lambda : -0.265D-02
Largest |displ|/coords:  0.1361 (   3)  0.1061 (   2)  0.1010 (   1)
................................................................................
.............................. CYCLE   48 ......................................
................................................................................
   1    -45.6152952 -0.456153E+02  0.229E-01    8.59       0.0  T
   2    -45.6153519 -0.567092E-04  0.170E-01    8.59       1.0  T
   3    -45.6153798 -0.278249E-04  0.466E-02    8.57       1.0  T
   4    -45.6153860 -0.627436E-05  0.133E-02    8.57       1.6  T
   5    -45.6153864 -0.390856E-06  0.455E-03    8.57       4.6  T
   6    -45.6153864 -0.176723E-07  0.253E-03    8.57       8.3  T
speedup  1.11
cpu  time for SCC    0.01 s
wall time for SCC    0.00 s
speedup  1.00
cpu  time for grad    0.01 s
wall time for grad    0.01 s
 E :    -45.35896133  G :  0.023484    pred/act E change: -0.582D-02 -0.143D-02
Maxdispl :   0.0496   ||displ|| :   0.1367   Lambda : -0.108D-02
Largest |displ|/coords:  0.0496 (   2)  0.0474 (   3)  0.0464 (  26)
................................................................................
.............................. CYCLE   49 ......................................
................................................................................
   1    -45.6071884 -0.456072E+02  0.102E-01    8.52       0.0  T
   2    -45.6072068 -0.183881E-04  0.721E-02    8.54       1.0  T
   3    -45.6072163 -0.946037E-05  0.238E-02    8.57       1.0  T
   4    -45.6072175 -0.121134E-05  0.620E-03    8.56       3.4  T
   5    -45.6072176 -0.674045E-07  0.259E-03    8.56       8.1  T
   6    -45.6072176 -0.905433E-08  0.124E-03    8.56      16.8  T
speedup  1.06
cpu  time for SCC    0.00 s
wall time for SCC    0.00 s
speedup  0.98
cpu  time for grad    0.01 s
wall time for grad    0.01 s
 E :    -45.35932952  G :  0.020201    pred/act E change: -0.142D-02 -0.368D-03
Maxdispl :   0.0884   ||displ|| :   0.2058   Lambda : -0.880D-03
Largest |displ|/coords:  0.0884 (   3)  0.0706 (   1)  0.0550 (  19)
................................................................................
.............................. CYCLE   50 ......................................
................................................................................
   1    -45.6116238 -0.456116E+02  0.138E-01    8.54       0.0  T
   2    -45.6116591 -0.353086E-04  0.104E-01    8.53       1.0  T
   3    -45.6116770 -0.178933E-04  0.369E-02    8.51       1.0  T
   4    -45.6116801 -0.308600E-05  0.118E-02    8.51       1.8  T
   5    -45.6116803 -0.253187E-06  0.373E-03    8.51       5.6  T
   6    -45.6116804 -0.128972E-07  0.196E-03    8.51      10.7  T
speedup  1.09
cpu  time for SCC    0.00 s
wall time for SCC    0.00 s
speedup  0.99
cpu  time for grad    0.01 s
wall time for grad    0.01 s
 E :    -45.35996978  G :  0.017310    pred/act E change: -0.550D-03 -0.640D-03
Maxdispl :   0.0849   ||displ|| :   0.2409   Lambda : -0.129D-02
Largest |displ|/coords:  0.0849 (   8)  0.0792 (  19)  0.0773 (  33)
................................................................................
.............................. CYCLE   51 ......................................
................................................................................
   1    -45.6216089 -0.456216E+02  0.191E-01    8.52       0.0  T
   2    -45.6216441 -0.351985E-04  0.144E-01    8.50       1.0  T
   3    -45.6216656 -0.215235E-04  0.414E-02    8.46       1.0  T
   4    -45.6216695 -0.391846E-05  0.145E-02    8.46       1.4  T
   5    -45.6216698 -0.345482E-06  0.435E-03    8.47       4.8  T
   6    -45.6216699 -0.195004E-07  0.246E-03    8.47       8.5  T
   7    -45.6216699 -0.880312E-08  0.613E-04    8.47      34.0  T
speedup  0.93
cpu  time for SCC    0.00 s
wall time for SCC    0.01 s
speedup  1.01
cpu  time for grad    0.01 s
wall time for grad    0.01 s
 E :    -45.36040415  G :  0.018626    pred/act E change: -0.459D-03 -0.434D-03
Maxdispl :   0.1393   ||displ|| :   0.2587   Lambda : -0.798D-03
Largest |displ|/coords:  0.1393 (   5)  0.1211 (   2)  0.1161 (   4)
................................................................................
.............................. CYCLE   52 ......................................
................................................................................
   1    -45.6171101 -0.456171E+02  0.198E-01    8.36       0.0  T
   2    -45.6171227 -0.125300E-04  0.147E-01    8.37       1.0  T
   3    -45.6171344 -0.117956E-04  0.247E-02    8.38       1.0  T
   4    -45.6171356 -0.115722E-05  0.833E-03    8.38       2.5  T
   5    -45.6171357 -0.767056E-07  0.290E-03    8.38       7.2  T
   6    -45.6171357 -0.937733E-08  0.154E-03    8.38      13.6  T
speedup  1.09
cpu  time for SCC    0.00 s
wall time for SCC    0.00 s
speedup  1.08
cpu  time for grad    0.01 s
wall time for grad    0.01 s
 E :    -45.36057251  G :  0.016334    pred/act E change: -0.680D-03 -0.168D-03
Maxdispl :   0.1184   ||displ|| :   0.2377   Lambda : -0.569D-03
Largest |displ|/coords:  0.1184 (   1)  0.0916 (   5)  0.0846 (   8)

generating ANC from model Hessian ...
 Shifting diagonal of input Hessian by   5.201563078862728E-003
 Lowest  eigenvalues of input Hessian
    0.005000   -0.000000   -0.000000    0.000000    0.000000    0.000000
    0.000000    0.005497    0.005599    0.005760    0.006323    0.006360
    0.007099    0.007599    0.008196    0.009818    0.010125    0.013098
 Highest eigenvalues
    1.372866    1.400487    1.420664    2.700244    3.310149    3.740827
 
cpu  time for ANC gen    0.01 s
wall time for ANC gen    0.01 s
................................................................................
.............................. CYCLE   53 ......................................
................................................................................
   1    -45.6167491 -0.456167E+02  0.152E-01    8.40       0.0  T
   2    -45.6167602 -0.110938E-04  0.112E-01    8.41       1.0  T
   3    -45.6167671 -0.691412E-05  0.232E-02    8.42       1.0  T
   4    -45.6167685 -0.131639E-05  0.642E-03    8.41       3.3  T
   5    -45.6167685 -0.695284E-07  0.243E-03    8.41       8.6  T
   6    -45.6167685 -0.622953E-08  0.134E-03    8.41      15.5  T
   7    -45.6167685 -0.306992E-08  0.366E-04    8.41      57.0  T
   8    -45.6167685 -0.258460E-09  0.999E-05    8.41     208.8  T
speedup  1.02
cpu  time for SCC    0.01 s
wall time for SCC    0.01 s
speedup  1.02
cpu  time for grad    0.01 s
wall time for grad    0.01 s
 E :    -45.36068406  G :  0.015017    pred/act E change:  0.000D+00 -0.112D-03
Maxdispl :   0.0791   ||displ|| :   0.1172   Lambda : -0.339D-03
Largest |displ|/coords:  0.0791 (   4)  0.0401 (   7)  0.0318 (  10)
................................................................................
.............................. CYCLE   54 ......................................
................................................................................
   1    -45.6177867 -0.456178E+02  0.763E-02    8.40       0.0  T
   2    -45.6177881 -0.147994E-05  0.572E-02    8.40       1.0  T
   3    -45.6177895 -0.133014E-05  0.742E-03    8.39       2.8  T
   4    -45.6177896 -0.174118E-06  0.240E-03    8.39       8.7  T
   5    -45.6177897 -0.761275E-08  0.931E-04    8.39      22.4  T
speedup  1.05
cpu  time for SCC    0.00 s
wall time for SCC    0.00 s
speedup  0.97
cpu  time for grad    0.01 s
wall time for grad    0.01 s
 E :    -45.36090968  G :  0.005444    pred/act E change:  0.000D+00 -0.226D-03
Maxdispl :   0.0607   ||displ|| :   0.1134   Lambda : -0.143D-03
Largest |displ|/coords:  0.0607 (   3)  0.0508 (  13)  0.0457 (   4)
................................................................................
.............................. CYCLE   55 ......................................
................................................................................
   1    -45.6181927 -0.456182E+02  0.797E-02    8.39       0.0  T
   2    -45.6181941 -0.133472E-05  0.598E-02    8.38       1.0  T
   3    -45.6181951 -0.108543E-05  0.721E-03    8.38       2.9  T
   4    -45.6181953 -0.163115E-06  0.240E-03    8.38       8.7  T
   5    -45.6181953 -0.651525E-08  0.869E-04    8.38      24.0  T
speedup  1.05
cpu  time for SCC    0.00 s
wall time for SCC    0.00 s
speedup  0.97
cpu  time for grad    0.01 s
wall time for grad    0.01 s
 E :    -45.36100218  G :  0.003223    pred/act E change: -0.172D-03 -0.925D-04
Maxdispl :   0.0651   ||displ|| :   0.1212   Lambda : -0.707D-04
Largest |displ|/coords:  0.0651 (   3)  0.0513 (   4)  0.0471 (  13)
................................................................................
.............................. CYCLE   56 ......................................
................................................................................
   1    -45.6179004 -0.456179E+02  0.746E-02    8.37       0.0  T
   2    -45.6179014 -0.967772E-06  0.559E-02    8.37       1.0  T
   3    -45.6179021 -0.733272E-06  0.638E-03    8.37       3.3  T
   4    -45.6179022 -0.127023E-06  0.214E-03    8.37       9.8  T
   5    -45.6179022 -0.580616E-08  0.752E-04    8.37      27.7  T
   6    -45.6179022 -0.498417E-09  0.386E-04    8.37      54.0  T
speedup  1.06
cpu  time for SCC    0.00 s
wall time for SCC    0.00 s
speedup  1.03
cpu  time for grad    0.01 s
wall time for grad    0.01 s
 E :    -45.36105553  G :  0.004250    pred/act E change: -0.724D-04 -0.534D-04
Maxdispl :   0.1234   ||displ|| :   0.1890   Lambda : -0.856D-04
Largest |displ|/coords:  0.1234 (   3)  0.0761 (   4)  0.0583 (  13)
................................................................................
.............................. CYCLE   57 ......................................
................................................................................
   1    -45.6174117 -0.456174E+02  0.999E-02    8.37       0.0  T
   2    -45.6174135 -0.181779E-05  0.745E-02    8.37       1.0  T
   3    -45.6174147 -0.120581E-05  0.866E-03    8.37       2.4  T
   4    -45.6174149 -0.258939E-06  0.304E-03    8.37       6.9  T
   5    -45.6174150 -0.116067E-07  0.984E-04    8.37      21.2  T
   6    -45.6174150 -0.832792E-09  0.511E-04    8.37      40.8  T
speedup  1.11
cpu  time for SCC    0.00 s
wall time for SCC    0.00 s
speedup  1.09
cpu  time for grad    0.01 s
wall time for grad    0.01 s
 E :    -45.36111360  G :  0.003514    pred/act E change: -0.358D-04 -0.581D-04
Maxdispl :   0.1032   ||displ|| :   0.1545   Lambda : -0.559D-04
Largest |displ|/coords:  0.1032 (   3)  0.0611 (   4)  0.0430 (  11)
................................................................................
.............................. CYCLE   58 ......................................
................................................................................
   1    -45.6173946 -0.456174E+02  0.710E-02    8.37       0.0  T
   2    -45.6173956 -0.954128E-06  0.530E-02    8.38       1.0  T
   3    -45.6173962 -0.624919E-06  0.645E-03    8.38       3.2  T
   4    -45.6173964 -0.143697E-06  0.239E-03    8.38       8.7  T
   5    -45.6173964 -0.571247E-08  0.683E-04    8.38      30.5  T
   6    -45.6173964 -0.589360E-09  0.371E-04    8.38      56.3  T
speedup  1.11
cpu  time for SCC    0.00 s
wall time for SCC    0.00 s
speedup  1.05
cpu  time for grad    0.01 s
wall time for grad    0.01 s
 E :    -45.36115485  G :  0.002740    pred/act E change: -0.443D-04 -0.412D-04
Maxdispl :   0.1180   ||displ|| :   0.1720   Lambda : -0.554D-04
Largest |displ|/coords:  0.1180 (   3)  0.0652 (   4)  0.0485 (   5)
................................................................................
.............................. CYCLE   59 ......................................
................................................................................
   1    -45.6178076 -0.456178E+02  0.738E-02    8.39       0.0  T
   2    -45.6178084 -0.851323E-06  0.554E-02    8.39       1.0  T
   3    -45.6178091 -0.668629E-06  0.625E-03    8.40       3.3  T
   4    -45.6178092 -0.112554E-06  0.265E-03    8.40       7.9  T
   5    -45.6178092 -0.504726E-08  0.611E-04    8.40      34.1  T
   6    -45.6178092 -0.452900E-09  0.372E-04    8.40      56.1  T
speedup  0.89
cpu  time for SCC    0.00 s
wall time for SCC    0.00 s
speedup  0.96
cpu  time for grad    0.01 s
wall time for grad    0.01 s
 E :    -45.36119328  G :  0.003645    pred/act E change: -0.286D-04 -0.384D-04
Maxdispl :   0.0967   ||displ|| :   0.1406   Lambda : -0.384D-04
Largest |displ|/coords:  0.0967 (   3)  0.0468 (   4)  0.0466 (   5)
................................................................................
.............................. CYCLE   60 ......................................
................................................................................
   1    -45.6181325 -0.456181E+02  0.624E-02    8.40       0.0  T
   2    -45.6181330 -0.472890E-06  0.470E-02    8.40       1.0  T
   3    -45.6181335 -0.500387E-06  0.439E-03    8.40       4.8  T
   4    -45.6181335 -0.377526E-07  0.193E-03    8.40      10.8  T
   5    -45.6181336 -0.279609E-08  0.461E-04    8.40      45.2  T
   6    -45.6181336 -0.181458E-09  0.293E-04    8.40      71.1  T
speedup  0.89
cpu  time for SCC    0.00 s
wall time for SCC    0.00 s
speedup  0.96
cpu  time for grad    0.01 s
wall time for grad    0.01 s
 E :    -45.36122106  G :  0.003503    pred/act E change: -0.285D-04 -0.278D-04
Maxdispl :   0.0967   ||displ|| :   0.1341   Lambda : -0.342D-04
Largest |displ|/coords:  0.0967 (   3)  0.0378 (   5)  0.0377 (   4)
................................................................................
.............................. CYCLE   61 ......................................
................................................................................
   1    -45.6184765 -0.456185E+02  0.637E-02    8.40       0.0  T
   2    -45.6184770 -0.453336E-06  0.478E-02    8.40       1.0  T
   3    -45.6184775 -0.488049E-06  0.422E-03    8.39       4.9  T
   4    -45.6184775 -0.329112E-07  0.139E-03    8.39      15.0  T
   5    -45.6184775 -0.185430E-08  0.513E-04    8.39      40.6  T
   6    -45.6184775 -0.285453E-09  0.279E-04    8.39      74.8  T
speedup  1.09
cpu  time for SCC    0.00 s
wall time for SCC    0.00 s
speedup  1.04
cpu  time for grad    0.01 s
wall time for grad    0.01 s
 E :    -45.36124337  G :  0.002600    pred/act E change: -0.196D-04 -0.223D-04
Maxdispl :   0.0584   ||displ|| :   0.0812   Lambda : -0.202D-04
Largest |displ|/coords:  0.0584 (   3)  0.0233 (   5)  0.0218 (   2)
................................................................................
.............................. CYCLE   62 ......................................
................................................................................
   1    -45.6186001 -0.456186E+02  0.453E-02    8.39       0.0  T
   2    -45.6186004 -0.241653E-06  0.339E-02    8.39       1.0  T
   3    -45.6186006 -0.222045E-06  0.356E-03    8.39       5.9  T
   4    -45.6186006 -0.247300E-07  0.118E-03    8.39      17.7  T
   5    -45.6186006 -0.976122E-09  0.335E-04    8.39      62.3  T
   6    -45.6186006 -0.916742E-10  0.165E-04    8.39     126.2  T
speedup  0.91
cpu  time for SCC    0.00 s
wall time for SCC    0.00 s
speedup  0.97
cpu  time for grad    0.01 s
wall time for grad    0.01 s
 E :    -45.36125575  G :  0.001586    pred/act E change: -0.174D-04 -0.124D-04
Maxdispl :   0.0568   ||displ|| :   0.0743   Lambda : -0.123D-04
Largest |displ|/coords:  0.0568 (   3)  0.0254 (   8)  0.0186 (   2)
................................................................................
.............................. CYCLE   63 ......................................
................................................................................
   1    -45.6184921 -0.456185E+02  0.406E-02    8.38       0.0  T
   2    -45.6184923 -0.197339E-06  0.302E-02    8.38       1.0  T
   3    -45.6184924 -0.169414E-06  0.278E-03    8.38       7.5  T
   4    -45.6184925 -0.188066E-07  0.103E-03    8.38      20.3  T
   5    -45.6184925 -0.729443E-09  0.298E-04    8.38      69.9  T
   6    -45.6184925 -0.506830E-10  0.130E-04    8.38     160.9  T
speedup  0.89
cpu  time for SCC    0.00 s
wall time for SCC    0.00 s
speedup  0.96
cpu  time for grad    0.01 s
wall time for grad    0.01 s
 E :    -45.36126381  G :  0.001573    pred/act E change: -0.102D-04 -0.806D-05
Maxdispl :   0.0273   ||displ|| :   0.0560   Lambda : -0.124D-04
Largest |displ|/coords:  0.0273 (   4)  0.0210 (  10)  0.0205 (   3)
................................................................................
.............................. CYCLE   64 ......................................
................................................................................
   1    -45.6191912 -0.456192E+02  0.299E-02    8.38       0.0  T
   2    -45.6191915 -0.247681E-06  0.222E-02    8.38       1.0  T
   3    -45.6191916 -0.108382E-06  0.351E-03    8.38       5.9  T
   4    -45.6191916 -0.386033E-07  0.108E-03    8.38      19.3  T
   5    -45.6191916 -0.161963E-08  0.320E-04    8.38      65.3  T
   6    -45.6191916 -0.101032E-09  0.167E-04    8.38     124.6  T
speedup  0.87
cpu  time for SCC    0.00 s
wall time for SCC    0.00 s
speedup  0.87
[...]
   2    -45.6189469 -0.404597E-07  0.164E-02    8.36       1.3  T
   3    -45.6189469 -0.344824E-07  0.135E-03    8.36      15.4  T
   4    -45.6189469 -0.504966E-08  0.538E-04    8.36      38.8  T
   5    -45.6189469 -0.261849E-09  0.147E-04    8.36     141.5  T
speedup  1.05
cpu  time for SCC    0.00 s
wall time for SCC    0.00 s
speedup  1.04
cpu  time for grad    0.01 s
wall time for grad    0.01 s
 E :    -45.36140001  G :  0.000570    pred/act E change: -0.124D-05 -0.114D-05
Maxdispl :   0.0587   ||displ|| :   0.0685   Lambda : -0.177D-05
Largest |displ|/coords:  0.0587 (   2)  0.0254 (   3)  0.0110 (   5)
................................................................................
.............................. CYCLE   98 ......................................
................................................................................
   1    -45.6188118 -0.456188E+02  0.321E-02    8.36       0.0  T
   2    -45.6188118 -0.677040E-07  0.241E-02    8.36       1.0  T
   3    -45.6188119 -0.724699E-07  0.160E-03    8.36      13.0  T
   4    -45.6188119 -0.587422E-08  0.707E-04    8.36      29.5  T
   5    -45.6188119 -0.483205E-09  0.223E-04    8.36      93.5  T
speedup  1.05
cpu  time for SCC    0.00 s
wall time for SCC    0.00 s
speedup  1.04
cpu  time for grad    0.01 s
wall time for grad    0.01 s
 E :    -45.36140121  G :  0.000616    pred/act E change: -0.763D-06 -0.120D-05
Maxdispl :   0.0300   ||displ|| :   0.0381   Lambda : -0.116D-05
Largest |displ|/coords:  0.0300 (   2)  0.0181 (   3)  0.0061 (   7)
................................................................................
.............................. CYCLE   99 ......................................
................................................................................
   1    -45.6187903 -0.456188E+02  0.187E-02    8.36       0.0  T
   2    -45.6187903 -0.217989E-07  0.140E-02    8.36       1.5  T
   3    -45.6187904 -0.237663E-07  0.877E-04    8.36      23.8  T
   4    -45.6187904 -0.164103E-08  0.409E-04    8.36      51.0  T
speedup  0.97
cpu  time for SCC    0.00 s
wall time for SCC    0.00 s
speedup  1.00
cpu  time for grad    0.01 s
wall time for grad    0.01 s
 E :    -45.36140206  G :  0.000629    pred/act E change: -0.889D-06 -0.851D-06
Maxdispl :   0.0363   ||displ|| :   0.0459   Lambda : -0.121D-05
Largest |displ|/coords:  0.0363 (   2)  0.0183 (   3)  0.0095 (   1)
................................................................................
.............................. CYCLE  100 ......................................
................................................................................
   1    -45.6187589 -0.456188E+02  0.216E-02    8.36       0.0  T
   2    -45.6187589 -0.283820E-07  0.162E-02    8.36       1.3  T
   3    -45.6187590 -0.334819E-07  0.104E-03    8.36      20.0  T
   4    -45.6187590 -0.189863E-08  0.321E-04    8.36      65.1  T
   5    -45.6187590 -0.123428E-09  0.164E-04    8.36     127.4  T
speedup  1.05
cpu  time for SCC    0.00 s
wall time for SCC    0.00 s
speedup  1.03
cpu  time for grad    0.01 s
wall time for grad    0.01 s
 E :    -45.36140290  G :  0.000576    pred/act E change: -0.580D-06 -0.835D-06
Maxdispl :   0.0346   ||displ|| :   0.0436   Lambda : -0.974D-06
Largest |displ|/coords:  0.0346 (   2)  0.0163 (   3)  0.0130 (   1)
................................................................................
.............................. CYCLE  101 ......................................
................................................................................
   1    -45.6187714 -0.456188E+02  0.207E-02    8.36       0.0  T
   2    -45.6187714 -0.227341E-07  0.155E-02    8.36       1.3  T
   3    -45.6187715 -0.293342E-07  0.927E-04    8.36      22.5  T
   4    -45.6187715 -0.918860E-09  0.337E-04    8.36      62.0  T
speedup  1.00
cpu  time for SCC    0.00 s
wall time for SCC    0.00 s
speedup  1.01
cpu  time for grad    0.01 s
wall time for grad    0.01 s
 E :    -45.36140349  G :  0.000621    pred/act E change: -0.606D-06 -0.595D-06
Maxdispl :   0.0082   ||displ|| :   0.0161   Lambda : -0.713D-06
Largest |displ|/coords:  0.0082 (   4)  0.0080 (   3)  0.0079 (   1)
................................................................................
.............................. CYCLE  102 ......................................
................................................................................
   1    -45.6188878 -0.456189E+02  0.749E-03    8.36       0.0  T
   2    -45.6188878 -0.115715E-07  0.559E-03    8.36       3.7  T
   3    -45.6188878 -0.803795E-08  0.657E-04    8.36      31.7  T
   4    -45.6188878 -0.160120E-08  0.205E-04    8.36     101.8  T
speedup  0.97
cpu  time for SCC    0.00 s
wall time for SCC    0.00 s
speedup  0.98
cpu  time for grad    0.01 s
wall time for grad    0.01 s
 E :    -45.36140385  G :  0.000415    pred/act E change: -0.488D-06 -0.358D-06
Maxdispl :   0.0413   ||displ|| :   0.0489   Lambda : -0.590D-06
Largest |displ|/coords:  0.0413 (   2)  0.0147 (   1)  0.0138 (   3)
................................................................................
.............................. CYCLE  103 ......................................
................................................................................
   1    -45.6187806 -0.456188E+02  0.218E-02    8.36       0.0  T
   2    -45.6187807 -0.350335E-07  0.164E-02    8.36       1.3  T
   3    -45.6187807 -0.400863E-07  0.104E-03    8.36      20.0  T
   4    -45.6187807 -0.300664E-08  0.492E-04    8.36      42.4  T
   5    -45.6187807 -0.278256E-09  0.157E-04    8.36     133.2  T
speedup  1.05
cpu  time for SCC    0.00 s
wall time for SCC    0.00 s
speedup  1.03
cpu  time for grad    0.01 s
wall time for grad    0.01 s
 E :    -45.36140415  G :  0.000397    pred/act E change: -0.357D-06 -0.299D-06
Maxdispl :   0.0036   ||displ|| :   0.0068   Lambda : -0.324D-06
Largest |displ|/coords:  0.0036 (   5)  0.0030 (   1)  0.0029 (   3)
................................................................................
.............................. CYCLE  104 ......................................
................................................................................
   1    -45.6188406 -0.456188E+02  0.360E-03    8.36       0.0  T
   2    -45.6188406 -0.459486E-08  0.271E-03    8.36       7.7  T
   3    -45.6188406 -0.302699E-08  0.466E-04    8.36      44.8  T
   4    -45.6188406 -0.685255E-09  0.134E-04    8.36     156.0  T
speedup  0.97
cpu  time for SCC    0.00 s
wall time for SCC    0.00 s
speedup  1.00
cpu  time for grad    0.01 s
wall time for grad    0.01 s
 E :    -45.36140436  G :  0.000188    pred/act E change: -0.296D-06 -0.212D-06
Maxdispl :   0.0089   ||displ|| :   0.0142   Lambda : -0.216D-06
Largest |displ|/coords:  0.0089 (   2)  0.0073 (   1)  0.0072 (   3)
................................................................................
.............................. CYCLE  105 ......................................
................................................................................
   1    -45.6188619 -0.456189E+02  0.651E-03    8.36       0.0  T
   2    -45.6188619 -0.466420E-08  0.487E-03    8.36       4.3  T
   3    -45.6188619 -0.329872E-08  0.506E-04    8.36      41.2  T
   4    -45.6188619 -0.730125E-09  0.161E-04    8.36     129.5  T
speedup  0.97
cpu  time for SCC    0.00 s
wall time for SCC    0.00 s
speedup  1.00
cpu  time for grad    0.01 s
wall time for grad    0.01 s
 E :    -45.36140452  G :  0.000155    pred/act E change: -0.162D-06 -0.158D-06
Maxdispl :   0.0091   ||displ|| :   0.0149   Lambda : -0.161D-06
Largest |displ|/coords:  0.0091 (   1)  0.0089 (   2)  0.0065 (   3)
................................................................................
.............................. CYCLE  106 ......................................
................................................................................
   1    -45.6188855 -0.456189E+02  0.754E-03    8.36       0.0  T
   2    -45.6188855 -0.496432E-08  0.564E-03    8.36       3.7  T
   3    -45.6188855 -0.437814E-08  0.511E-04    8.36      40.8  T
   4    -45.6188855 -0.636270E-09  0.175E-04    8.36     118.8  T
speedup  1.00
cpu  time for SCC    0.00 s
wall time for SCC    0.00 s
speedup  1.01
cpu  time for grad    0.01 s
wall time for grad    0.01 s
 E :    -45.36140463  G :  0.000116    pred/act E change: -0.108D-06 -0.112D-06
Maxdispl :   0.0072   ||displ|| :   0.0113   Lambda : -0.717D-07
Largest |displ|/coords:  0.0072 (   2)  0.0066 (   1)  0.0042 (   3)
................................................................................
.............................. CYCLE  107 ......................................
................................................................................
   1    -45.6188950 -0.456189E+02  0.577E-03    8.36       0.0  T
   2    -45.6188950 -0.240463E-08  0.432E-03    8.36       4.8  T
   3    -45.6188950 -0.265178E-08  0.330E-04    8.36      63.2  T
   4    -45.6188950 -0.199748E-09  0.116E-04    8.36     179.7  T
speedup  0.97
cpu  time for SCC    0.00 s
wall time for SCC    0.00 s
speedup  1.00
cpu  time for grad    0.01 s
wall time for grad    0.01 s
 E :    -45.36140468  G :  0.000073    pred/act E change: -0.807D-07 -0.492D-07
Maxdispl :   0.0014   ||displ|| :   0.0024   Lambda : -0.269D-07
Largest |displ|/coords:  0.0014 (   1)  0.0010 (  11)  0.0009 (   8)

   *** GEOMETRY OPTIMIZATION CONVERGED AFTER 107 ITERATIONS ***

------------------------------------------------------------------------
 total energy gain (kcal):     -0.0278
------------------------------------------------------------------------
================
 final structure:
================
$coord
       -1.67762824679348        0.95232890748410       -1.85064324454204      S 
        0.34285622991087        2.68702243280480       -1.27977886963078      O 
       -1.77445629744554       -1.04634948898822        0.30715933677042      O 
       -4.25332427599405        2.22753101929527       -1.64651066442666      O 
       -1.48082475963335       -0.27876557703554       -4.24689084516454      O 
        4.74778418738273       -4.31753382785720       -1.25750856889597      O 
        4.71086928072538       -5.99108766918841       -0.56474507044520      H 
        2.79479019777427       -0.75600732279214        1.63369757812914      O 
        0.01175148333536       -1.13712310186117        1.03977985779739      H 
        3.69486010902222       -2.09469493969875        0.68088912456409      H 
        2.91460909494987        0.75399125288231        0.60870021169634      H 
       -4.97420269833155        2.37259130274466        3.07237779178336      O 
       -4.91744001944678        0.59584057909749        3.44465849312528      H 
       -3.30103931501997        3.08364301147112        3.62810378952740      H 
       -4.69376456020722        2.42742759023561        0.23608804503195      H 
        1.39353037249496       -4.33337832578872       -5.02178721505877      O 
        0.20917885340730       -2.94208035526119       -4.73484246204058      H 
        1.99230423743140       -4.12016088691123       -6.71935595148602      H 
        3.57772387855020       -4.33746622351124       -2.70565355287754      H 
       -0.32776020875638        3.94621947091805        3.91968819954156      N 
        0.06163954772693        5.67420288727847        4.63982404097146      H 
        0.12496053437963        3.95892243765579        2.04647525728869      H 
        0.82358233677642        2.67492686481720        4.77027473723666      H 
$end
 
 Bond Distances (Angstroems)
 ---------------------------
S1-O2=1.4412         S1-O3=1.5573         S1-O4=1.5247         S1-O5=1.4294         O2-S1=1.4412         O3-S1=1.5573         
O3-H9=1.0228         O4-S1=1.5247         O4-H15=1.0286        O5-S1=1.4294         O6-H7=0.9587         O6-H19=0.9853        
H7-O6=0.9587         O8-H10=0.9914        O8-H11=0.9678        H9-O3=1.0228         H10-O8=0.9914        H11-O8=0.9678        
O12-H13=0.9611       O12-H14=1.0060       H13-O12=0.9611       H14-O12=1.0060       H15-O4=1.0286        O16-H17=0.9787       
O16-H18=0.9592       H17-O16=0.9787       H18-O16=0.9592       H19-O6=0.9853        N20-H21=1.0118       N20-H22=1.0198       
N20-H23=1.0131       H21-N20=1.0118       H22-N20=1.0198       H23-N20=1.0131       
 N  H  Rav=1.0149 sigma=0.0035  Rmin=1.0118  Rmax=1.0198     3
 O  H  Rav=0.9860 sigma=0.0246  Rmin=0.9587  Rmax=1.0286    10
 S  O  Rav=1.4882 sigma=0.0542  Rmin=1.4294  Rmax=1.5573     4
 
 selected bond angles (degree)
 --------------------
O3-S1-O2=107.66                O4-S1-O2=111.50                O4-S1-O3=102.66                O5-S1-O2=114.97                
O5-S1-O3=110.08                O5-S1-O4=109.25                H9-O3-S1=106.23                H15-O4-S1=108.46               
H19-O6-H7=105.95               H11-O8-H10=105.87              
 
 selected dihedral angles (degree)
 ---------------------------------
H9-O3-S1-O2=333.66            H9-O3-S1-O4=215.90            H9-O3-S1-O5= 99.68            H15-O4-S1-O2=284.20           
H15-O4-S1-O3= 39.20           H15-O4-S1-O5=156.02           
 
 CMA Distance (Angstroems)
 ---------------------------
R(CMA):  1.9172

========================================================================
 FINAL SINGLEPOINT CALCULATION ON OPTIMIZED GEOMETRY
========================================================================

 Ncao       : 59
 Nao        : 58
 Nshell     : 34
 Nel        : 72
 T(el)      :   300.0
 intcut     :    25.0
 scfconv/Eh :  0.100E-05
   qconv/e  :  0.100E-03
 intneglect :  0.100E-07
 broydamp   :      0.250
 iter      E             dE          RMSdq      gap      omega  full diag
   1    -45.6188950 -0.456189E+02  0.440E-05    8.36       0.0  T
   2    -45.6188950 -0.131450E-11  0.286E-05    8.36     728.4  T
   3    -45.6188950 -0.738964E-12  0.657E-06    8.36    3173.6  T
speedup  0.87
cpu  time for SCC    0.00 s
wall time for SCC    0.00 s

   *** convergence criteria satisfied after 3 iterations ***

          eigenvalues
 #    :          24         25         26         27         28         29         30         31
 occ. :        2.000      2.000      2.000      2.000      2.000      2.000      2.000      2.000
 eps  :       -14.105    -13.837    -13.640    -13.112    -12.878    -12.731    -12.622    -12.494
 #    :          32         33         34         35         36         37         38         39
 occ. :        2.000      2.000      2.000      2.000      2.000      0.000      0.000      0.000
 eps  :       -12.389    -12.265    -12.191    -12.086    -11.344     -2.984     -1.048     -0.226
 #    :          40         41         42         43         44         45         46         47
 occ. :        0.000      0.000      0.000      0.000      0.000      0.000      0.000      0.000
 eps  :         0.331      0.678      1.120      2.306      2.842      4.046      5.051      5.447


   #   Z            q   n(s)   n(p)   n(d)      C6AA      α(0)
   1  16 S      1.706  1.581  1.776  0.938    88.640    15.846
   2   8 O     -0.720  1.763  4.957  0.000    29.246     7.251
   3   8 O     -0.642  1.762  4.879  0.000    26.180     6.907
   4   8 O     -0.605  1.754  4.851  0.000    25.273     6.786
   5   8 O     -0.678  1.751  4.926  0.000    28.110     7.109
   6   8 O     -0.611  1.749  4.862  0.000    25.454     6.809
   7   1 H      0.287  0.713  0.000  0.000     0.761     1.370
   8   8 O     -0.618  1.757  4.861  0.000    25.613     6.831
   9   1 H      0.389  0.611  0.000  0.000     0.502     1.111
  10   1 H      0.344  0.656  0.000  0.000     0.603     1.220
  11   1 H      0.314  0.686  0.000  0.000     0.682     1.297
  12   8 O     -0.599  1.754  4.845  0.000    25.160     6.770
  13   1 H      0.303  0.697  0.000  0.000     0.713     1.326
  14   1 H      0.329  0.671  0.000  0.000     0.640     1.256
  15   1 H      0.396  0.604  0.000  0.000     0.489     1.096
  16   8 O     -0.606  1.740  4.866  0.000    25.336     6.794
  17   1 H      0.327  0.673  0.000  0.000     0.646     1.263
  18   1 H      0.291  0.709  0.000  0.000     0.748     1.359
  19   1 H      0.332  0.668  0.000  0.000     0.631     1.248
  20   7 N     -0.460  1.370  4.090  0.000    32.116     8.417
  21   1 H      0.161  0.839  0.000  0.000     1.330     1.806
  22   1 H      0.192  0.808  0.000  0.000     1.148     1.679
  23   1 H      0.170  0.830  0.000  0.000     1.274     1.768

 Mol. C6AA /au·bohr⁶  :       4505.005804
 Mol. C8AA /au·bohr⁸  :      98939.302003
 Mol. α(0) /au        :         97.317635

 
 Wiberg/Mayer (AO) data. WBOs > 0.1 written file <wbo>
 largest (>0.05) Wiberg bond orders for each atom
           total WBO             WBO to atom ...
     1  S   4.829    O    5 1.416    O    2 1.356    O    4 1.043    O    3 0.973
     2  O   1.736    S    1 1.356    O    5 0.121    O    3 0.092    O    4 0.091
     3  O   1.944    S    1 0.973    H    9 0.672    O    2 0.092    O    5 0.088    O    4 0.059    O    8 0.053
     4  O   1.988    S    1 1.043    H   15 0.657    O    2 0.091    O    5 0.077    O    3 0.059    O   12 0.052
     5  O   1.786    S    1 1.416    O    2 0.121    O    3 0.088    O    4 0.077    H   17 0.053
     6  O   1.884    H    7 0.915    H   19 0.819    H   10 0.081
     7  H   0.917    O    6 0.915
     8  O   1.947    H   11 0.877    H   10 0.799    H    9 0.159    O    3 0.053
     9  H   0.849    O    3 0.672    O    8 0.159
    10  H   0.882    O    8 0.799    O    6 0.081
    11  H   0.902    O    8 0.877
    12  O   1.963    H   13 0.904    H   14 0.774    H   15 0.169    O    4 0.052    N   20 0.051
    13  H   0.908    O   12 0.904
    14  H   0.892    O   12 0.774    N   20 0.116
    15  H   0.843    O    4 0.657    O   12 0.169
    16  O   1.876    H   18 0.912    H   17 0.837    H   19 0.069
    17  H   0.893    O   16 0.837    O    5 0.053
    18  H   0.915    O   16 0.912
    19  H   0.889    O    6 0.819    O   16 0.069
    20  N   3.060    H   21 0.971    H   23 0.967    H   22 0.931    H   14 0.116    O   12 0.051
    21  H   0.974    N   20 0.971
    22  H   0.963    N   20 0.931
    23  H   0.971    N   20 0.967
 MOs/occ written to file <molden.input>
 
molecular dipole:
                 x           y           z       tot (Debye)
 q only:        0.389      -0.270       1.141
   full:        0.673      -0.294       0.942       3.037
molecular quadrupole (traceless):
                xx          xy          yy          xz          yz          zz
 q only:       -5.633      -0.028       3.231      -4.848       4.520       2.403
  q+dip:       -8.890       3.037       4.768      -3.571       5.038       4.123
   full:       -9.225       2.570       4.974      -3.471       4.690       4.251

SCC energy    :     -45.6188950
rep           :       0.2573914
ES            :       0.2031245
AES           :      -0.0481657
AXC           :      -0.0067579
disp          :      -0.0161535
XB            :       0.0000000
fix           :       0.0000000
total E       :     -45.3614047
atomizationE  :       4.4444672     2788.95
(atE without considering molecular charge,
 total energy contains solvation terms)
H-L gap (eV)  :          8.3599
optimized geometry written to: xtbopt.xyz


------------------------------------------------------------------------
 * finished run on 2019/09/16 at 11:24:48.359     
------------------------------------------------------------------------
 total:
 * wall-time:     0 d,  0 h,  0 min,  2.034 sec
 *  cpu-time:     0 d,  0 h,  0 min,  2.016 sec
 * ratio c/w:     0.991 speedup
 SCF:
 * wall-time:     0 d,  0 h,  0 min,  0.125 sec
 *  cpu-time:     0 d,  0 h,  0 min,  0.122 sec
 * ratio c/w:     0.973 speedup
 ANC optimizer:
 * wall-time:     0 d,  0 h,  0 min,  1.883 sec
 *  cpu-time:     0 d,  0 h,  0 min,  1.871 sec
 * ratio c/w:     0.993 speedup

