      -----------------------------------------------------------      
     |                   =====================                   |     
     |                           x T B                           |     
     |                   =====================                   |     
     |                         S. Grimme                         |     
     |          Mulliken Center for Theoretical Chemistry        |     
     |                    University of Bonn                     |     
     |                 Version 6.0.1 (SAW181210)                 |     
      -----------------------------------------------------------      

   This program is distributed in the hope that it will be useful,
   but WITHOUT ANY WARRANTY; without even the implied warranty of
   MERCHANTABILITY or FITNESS FOR A PARTICULAR PURPOSE.
   
   FOR NON-COMMERCIAL, ACADEMIA USE ONLY.
   
   Cite this work as:
   S. Grimme, C. Bannwarth, P. Shushkov, J. Comput. Theory Chem., 2017,
   13, 1989-2009.
   C. Bannwarth, S. Ehlert and S. Grimme., ChemRxiv, 2018, preprint.
   http://doi.org/10.26434/chemrxiv.7246238.v1
   
   for sTDA-xTB:
   S. Grimme and C. Bannwarth, J. Chem. Phys., 2016, 145, 054103.
   
   in the mass-spec context:
   V. Asgeirsson, C. Bauer and S. Grimme, Chem. Sci., 2017, 8, 4879.
   
   if GBSA is used:
   P. Shushkov, F. März and S. Grimme, unpublished.
   
   for ANC optimizer:
   S. Grimme, unpublished.
   Rational Function algorithm used in ANCopt:
   F. Eckert, P. Pulay, H.-J. Werner, J. Comput. Chem., 1997, 18, 1473.
   
   with help from (in alphabetical order)
   C. Bannwarth, F. Bohle, G. Brandenburg, E. Caldeweyher, M. Checinski,
   S. Dohm, S. Ehlert, S. Ehrlich, F. März, H. Neugebauer, J. Pisarek,
   P. Pracht, P. Shushkov, and S. Spicher.
   
 * started run on 2019/09/16 at 11:34:53.617     
========================================================================
 # omp threads = 1
========================================================================
number of atoms            : 23
number of electrons        : 72
charge                     : 0
spin                       : .0
first test random number   : .0719

########################################################################
# WARNING! Please study the warnings concerning your input carefully
#  - XTBPATH is not set, using XTBHOME instead
#  - the use of '-opt' is discouraged, please use '--opt' next time
#  - the use of '-chrg' is discouraged, please use '--chrg' next time
#  - the use of '-uhf' is discouraged, please use '--uhf' next time
########################################################################

           ------------------------------------------------- 
          |                 G F N 2 - x T B                 |
          | Geometry, Frequencies, Noncovalent interactions |
          |            JCTC 2018 parametrisation            |
           ------------------------------------------------- 
      method parameters     
 k(s)        :  1.8500
 k(p)        :  2.2300
 k(d)        :  2.2300
 k(f)        :  2.0000
 kEN (H0ij)  : -2.0000
 D4 a1       :  0.5200
 D4 a2       :  5.0000
 D4 s6       :  1.0000
 D4 s8       :  2.7000
 D4 s9       :  5.0000
 alphaj      :  2.0000


            Z     q(EN)     CN     RAES       Cart. coordinates
     1  S   6.0    0.67    4.13    3.92    -0.79246     0.38037     0.13459
     2  O   6.0   -0.31    1.22    1.80    -0.78565     1.32770     2.78612
     3  O   6.0   -0.32    1.23    1.80     1.82586     0.46162    -0.89784
     4  O   6.0   -0.31    1.20    1.80    -1.73795    -2.27142     0.08777
     5  O   6.0   -0.31    1.17    1.80    -2.47211     2.00358    -1.43770
     6  O   6.0   -0.36    1.56    1.80     2.40495    -5.09115     5.04929
     7  H   1.0    0.17    0.94    1.42     3.46480    -6.00490     6.28441
     8  O   6.0   -0.22    2.91    2.57    -1.26308    -2.54698     5.74285
     9  H   1.0    0.13    0.96    1.43    -2.70166    -3.42487     4.93684
    10  H   1.0    0.17    1.22    1.47     0.29807    -3.57199     5.69617
    11  H   1.0    0.15    1.07    1.44    -0.99916    -0.83908     5.03226
    12  O   6.0   -0.22    2.90    2.54     1.75186     4.74770    -3.33799
    13  H   1.0    0.15    1.09    1.44     2.11119     3.06114    -2.61947
    14  H   1.0    0.13    1.07    1.44     0.23560     4.73552    -4.42924
    15  H   1.0    0.12    0.96    1.43     1.65053     6.06398    -2.01563
    16  O   6.0   -0.22    2.93    2.60     2.56102    -4.64588     0.57193
    17  H   1.0    0.13    0.97    1.43     3.67576    -3.22923     0.08174
    18  H   1.0    0.17    1.22    1.47     2.69231    -5.04275     2.39272
    19  H   1.0    0.15    1.05    1.44     0.79149    -4.35773     0.04539
    20  N   5.0   -0.22    3.05    1.93    -2.65086     4.76019    -6.00223
    21  H   1.0    0.11    0.99    1.43    -2.96112     3.63579    -7.53536
    22  H   1.0    0.11    0.99    1.43    -3.97739     6.15379    -6.09853
    23  H   1.0    0.13    1.03    1.43    -3.12200     3.69461    -4.46807

  Z AO/shell   Hii/eV     exponent
  1     Wed Apr 25 08:07:45 CEST 2018   EN: 2.200 GM2: 0.406  GM3: 0.0800  RAES: 1.40
     1s    -10.707211    1.230000
  7     Wed Apr 25 08:07:45 CEST 2018   EN: 3.040 GM2: 0.461  GM3:-0.0640  RAES: 1.90
     2s    -16.686243    2.339881
     2p    -12.523956    2.014332
  8     Wed Apr 25 08:07:45 CEST 2018   EN: 3.440 GM2: 0.452  GM3:-0.0517  RAES: 1.80
     2s    -20.229985    2.439742
     2p    -15.503117    2.137023
 16     Tue Apr 24 11:44:34 CEST 2018   EN: 2.580 GM2: 0.340  GM3:-0.0502  RAES: 3.10
     3s    -20.029654    1.981333
     3p    -11.377694    2.025643
     3d     -0.420282    1.702555
 no old-style atom pair restraining (fixing) potential

molecular fragmentation (1/2 indicates fragments):
11111222222222222222222
# atoms in fragment 1/2:     5    18
 fragment masses (1/2) :       96.06       91.11
CMA distance (Bohr)    :   1.693
constraining FC (au)   :  0.0500
           ------------------------------------------------- 
          |        Self-Consistent Charge Iterations        |
           ------------------------------------------------- 

 Ncao       : 59
 Nao        : 58
 Nshell     : 34
 Nel        : 72
 T(el)      :   300.0
 intcut     :    25.0
 scfconv/Eh :  0.100E-05
   qconv/e  :  0.100E-03
 intneglect :  0.100E-07
 broydamp   :      0.250
 iter      E             dE          RMSdq      gap      omega  full diag
   1    -45.3966994 -0.453967E+02  0.717E+00   10.27       0.0  T
   2    -45.4337954 -0.370960E-01  0.516E+00   10.02       1.0  T
   3    -45.4651381 -0.313428E-01  0.113E+00    6.78       1.0  T
   4    -45.4692164 -0.407831E-02  0.520E-01    7.19       1.0  T
   5    -45.4698132 -0.596726E-03  0.249E-01    7.24       1.0  T
   6    -45.4700650 -0.251785E-03  0.123E-01    7.36       1.0  T
   7    -45.4701432 -0.782472E-04  0.447E-02    7.38       1.0  T
   8    -45.4701513 -0.811696E-05  0.260E-02    7.38       1.0  T
   9    -45.4701548 -0.347646E-05  0.110E-02    7.40       1.9  T
  10    -45.4701553 -0.505443E-06  0.191E-03    7.40      10.9  T
  11    -45.4701553 -0.113441E-07  0.949E-04    7.40      22.0  T
  12    -45.4701553 -0.265155E-08  0.350E-04    7.40      59.6  T
speedup  1.04
cpu  time for SCC    0.01 s
wall time for SCC    0.01 s

   *** convergence criteria satisfied after 12 iterations ***

          eigenvalues
 #    :          24         25         26         27         28         29         30         31
 occ. :        2.000      2.000      2.000      2.000      2.000      2.000      2.000      2.000
 eps  :       -12.150    -12.082    -11.450    -10.904    -10.651    -10.109     -9.902     -9.879
 #    :          32         33         34         35         36         37         38         39
 occ. :        2.000      2.000      2.000      2.000      2.000      0.000      0.000      0.000
 eps  :        -9.782     -9.664     -9.498     -9.391     -9.203     -1.801     -0.658      0.574
 #    :          40         41         42         43         44         45         46         47
 occ. :        0.000      0.000      0.000      0.000      0.000      0.000      0.000      0.000
 eps  :         0.618      1.532      2.595      2.738      2.862      4.109      4.998      5.674


   #   Z            q   n(s)   n(p)   n(d)      C6AA      α(0)
   1  16 S      1.458  1.609  1.926  1.007    94.488    16.360
   2   8 O     -0.784  1.783  5.001  0.000    31.092     7.476
   3   8 O     -0.809  1.777  5.033  0.000    31.862     7.568
   4   8 O     -0.787  1.778  5.009  0.000    31.196     7.488
   5   8 O     -0.792  1.778  5.014  0.000    31.347     7.507
   6   8 O     -0.879  1.816  5.062  0.000    33.964     7.817
   7   1 H      0.193  0.807  0.000  0.000     1.158     1.691
   8   8 O     -0.422  1.651  4.771  0.000    21.226     6.222
   9   1 H      0.369  0.631  0.000  0.000     0.545     1.160
  10   1 H      0.409  0.591  0.000  0.000     0.462     1.064
  11   1 H      0.403  0.597  0.000  0.000     0.480     1.088
  12   8 O     -0.387  1.631  4.756  0.000    20.543     6.121
  13   1 H      0.418  0.582  0.000  0.000     0.453     1.057
  14   1 H      0.409  0.591  0.000  0.000     0.468     1.075
  15   1 H      0.384  0.616  0.000  0.000     0.516     1.129
  16   8 O     -0.421  1.647  4.774  0.000    21.201     6.219
  17   1 H      0.377  0.623  0.000  0.000     0.529     1.143
  18   1 H      0.410  0.590  0.000  0.000     0.459     1.060
  19   1 H      0.399  0.601  0.000  0.000     0.486     1.095
  20   7 N     -0.468  1.380  4.089  0.000    32.363     8.449
  21   1 H      0.152  0.848  0.000  0.000     1.388     1.845
  22   1 H      0.151  0.849  0.000  0.000     1.391     1.848
  23   1 H      0.217  0.783  0.000  0.000     1.023     1.585

 Mol. C6AA /au·bohr⁶  :       4596.663850
 Mol. C8AA /au·bohr⁸  :     101740.239914
 Mol. α(0) /au        :         98.069256

 
 Wiberg/Mayer (AO) data. WBOs > 0.1 written file <wbo>
 largest (>0.05) Wiberg bond orders for each atom
           total WBO             WBO to atom ...
     1  S   5.034    O    5 1.293    O    4 1.259    O    2 1.249    O    3 1.204
     2  O   1.681    S    1 1.249    H   11 0.105    O    4 0.100    O    5 0.093    O    3 0.091
     3  O   1.668    S    1 1.204    H   13 0.120    O    5 0.098    O    2 0.091    O    4 0.090
     4  O   1.669    S    1 1.259    O    2 0.100    O    5 0.092    O    3 0.090    H   19 0.085
     5  O   1.640    S    1 1.293    O    3 0.098    O    2 0.093    O    4 0.092
     6  O   1.510    H    7 0.946    H   10 0.211    H   18 0.209    O    8 0.063    O   16 0.062
     7  H   0.963    O    6 0.946
     8  O   2.306    H    9 0.854    H   11 0.723    H   10 0.616    O    6 0.063
     9  H   0.864    O    8 0.854
    10  H   0.833    O    8 0.616    O    6 0.211
    11  H   0.838    O    8 0.723    O    2 0.105
    12  O   2.349    H   15 0.847    H   14 0.718    H   13 0.696
    13  H   0.825    O   12 0.696    O    3 0.120
    14  H   0.833    O   12 0.718    N   20 0.104
    15  H   0.853    O   12 0.847
    16  O   2.311    H   17 0.837    H   19 0.747    H   18 0.615    O    6 0.062
    17  H   0.858    O   16 0.837
    18  H   0.832    O   16 0.615    O    6 0.209
    19  H   0.841    O   16 0.747    O    4 0.085
    20  N   3.026    H   21 0.973    H   22 0.972    H   23 0.910    H   14 0.104
    21  H   0.977    N   20 0.973
    22  H   0.977    N   20 0.972
    23  H   0.953    N   20 0.910
 MOs/occ written to file <molden.input>
 
molecular dipole:
                 x           y           z       tot (Debye)
 q only:        1.293       1.360      -1.488
   full:        0.865       1.282      -1.391       5.287
molecular quadrupole (traceless):
                xx          xy          yy          xz          yz          zz
 q only:      -10.730       6.977      10.345      -9.657     -14.050       0.386
  q+dip:       -7.589       3.714       8.371      -3.002     -13.821      -0.783
   full:       -7.725       3.439       8.393      -2.926     -13.929      -0.668

SCC energy    :     -45.4701553
rep           :       0.2431697
ES            :       0.3547756
AES           :      -0.0693485
AXC           :      -0.0076754
disp          :      -0.0154029
XB            :       0.0000000
fix           :       0.0000000
total E       :     -45.2269782
atomizationE  :       4.3100407     2704.59
(atE without considering molecular charge,
 total energy contains solvation terms)
H-L gap (eV)  :          7.4017
           ------------------------------------------------- 
          |                 ===============                 |
          |                   A N C O P T                   |
          |                 ===============                 |
          |          Approximate Normal Coordinate          |
          |           Rational Function Optimizer           |
           ------------------------------------------------- 
dumping coords to <xtbopt.coord> and <xtbopt.log>
 optlevel               2
 Maxcycle             460
 Maxmicro              25
 Econv         1.000000000000000E-007
 Gconv         2.000000000000000E-004
 Maxdispl       1.00000000000000     
 Hlow          5.000000000000000E-003
 S6             20.0000000000000     
 Nvar               63

generating ANC from model Hessian ...
 Shifting diagonal of input Hessian by   5.038900492917381E-003
 Lowest  eigenvalues of input Hessian
    0.005000   -0.000000   -0.000000   -0.000000   -0.000000   -0.000000
    0.000000    0.005140    0.005473    0.005682    0.006395    0.006464
    0.006820    0.007022    0.007441    0.008470    0.009026    0.009147
 Highest eigenvalues
    1.554637    1.585695    1.588000    3.073827    3.076047    3.085924
 
cpu  time for ANC gen    0.01 s
wall time for ANC gen    0.01 s
................................................................................
.............................. CYCLE    1 ......................................
................................................................................
   1    -45.4701553 -0.454702E+02  0.871E-05    7.40       0.0  T
   2    -45.4701553 -0.187796E-10  0.693E-05    7.40     301.1  T
   3    -45.4701553 -0.119229E-10  0.373E-05    7.40     558.6  T
speedup  0.83
cpu  time for SCC    0.00 s
wall time for SCC    0.00 s
speedup  0.99
cpu  time for grad    0.01 s
wall time for grad    0.01 s
 E :    -45.22697823  G :  0.198482    pred/act E change:  0.000D+00  0.125D-07
Maxdispl :   0.2295   ||displ|| :   0.4462   Lambda : -0.490D-01
Largest |displ|/coords:  0.2295 (  21)  0.1973 (  26)  0.1195 (  48)
................................................................................
.............................. CYCLE    2 ......................................
................................................................................
   1    -45.4932385 -0.454932E+02  0.402E-01    7.78       0.0  T
   2    -45.4936772 -0.438692E-03  0.292E-01    7.92       1.0  T
   3    -45.4938993 -0.222084E-03  0.984E-02    8.18       1.0  T
   4    -45.4939220 -0.227164E-04  0.200E-02    8.16       1.0  T
   5    -45.4939225 -0.498337E-06  0.911E-03    8.16       2.3  T
   6    -45.4939226 -0.159877E-06  0.416E-03    8.16       5.0  T
   7    -45.4939227 -0.535453E-07  0.193E-03    8.16      10.8  T
speedup  0.94
cpu  time for SCC    0.00 s
wall time for SCC    0.01 s
speedup  1.03
cpu  time for grad    0.01 s
wall time for grad    0.01 s
 E :    -45.26907957  G :  0.130194    pred/act E change:  0.000D+00 -0.421D-01
Maxdispl :   0.2611   ||displ|| :   0.5038   Lambda : -0.346D-01
Largest |displ|/coords:  0.2611 (  21)  0.2595 (  26)  0.1388 (  27)
................................................................................
.............................. CYCLE    3 ......................................
................................................................................
   1    -45.5086123 -0.455086E+02  0.440E-01    8.43       0.0  T
   2    -45.5094156 -0.803280E-03  0.309E-01    8.56       1.0  T
   3    -45.5097979 -0.382367E-03  0.122E-01    8.74       1.0  T
   4    -45.5098207 -0.227398E-04  0.222E-02    8.71       1.0  T
   5    -45.5098215 -0.804526E-06  0.119E-02    8.71       1.8  T
   6    -45.5098217 -0.275170E-06  0.537E-03    8.71       3.9  T
   7    -45.5098218 -0.877414E-07  0.237E-03    8.71       8.8  T
speedup  0.94
cpu  time for SCC    0.00 s
wall time for SCC    0.01 s
speedup  1.03
cpu  time for grad    0.01 s
wall time for grad    0.01 s
 E :    -45.29773263  G :  0.089493    pred/act E change: -0.293D-01 -0.287D-01
Maxdispl :   0.2183   ||displ|| :   0.4629   Lambda : -0.192D-01
Largest |displ|/coords:  0.2183 (  21)  0.1914 (  26)  0.1344 (  16)
................................................................................
.............................. CYCLE    4 ......................................
................................................................................
   1    -45.5167281 -0.455167E+02  0.404E-01    8.87       0.0  T
   2    -45.5176598 -0.931714E-03  0.274E-01    8.96       1.0  T
   3    -45.5180900 -0.430169E-03  0.117E-01    9.07       1.0  T
   4    -45.5181069 -0.168991E-04  0.217E-02    9.04       1.0  T
   5    -45.5181078 -0.914661E-06  0.120E-02    9.04       1.7  T
   6    -45.5181080 -0.256521E-06  0.552E-03    9.04       3.8  T
   7    -45.5181081 -0.820951E-07  0.216E-03    9.05       9.7  T
speedup  1.13
cpu  time for SCC    0.01 s
wall time for SCC    0.01 s
speedup  1.03
cpu  time for grad    0.01 s
wall time for grad    0.01 s
 E :    -45.31200934  G :  0.065395    pred/act E change: -0.217D-01 -0.143D-01
Maxdispl :   0.1589   ||displ|| :   0.3728   Lambda : -0.777D-02
Largest |displ|/coords:  0.1589 (  16)  0.1207 (   8)  0.1205 (   3)
................................................................................
.............................. CYCLE    5 ......................................
................................................................................
   1    -45.5236407 -0.455236E+02  0.256E-01    9.22       0.0  T
   2    -45.5240035 -0.362859E-03  0.175E-01    9.27       1.0  T
   3    -45.5241693 -0.165809E-03  0.752E-02    9.29       1.0  T
   4    -45.5241764 -0.704250E-05  0.125E-02    9.30       1.7  T
   5    -45.5241767 -0.352083E-06  0.642E-03    9.30       3.2  T
   6    -45.5241768 -0.651796E-07  0.328E-03    9.30       6.4  T
   7    -45.5241768 -0.182403E-07  0.965E-04    9.30      21.6  T
speedup  1.13
cpu  time for SCC    0.01 s
wall time for SCC    0.01 s
speedup  1.03
cpu  time for grad    0.01 s
wall time for grad    0.01 s
 E :    -45.31824884  G :  0.051393    pred/act E change: -0.116D-01 -0.624D-02
Maxdispl :   0.1663   ||displ|| :   0.3552   Lambda : -0.521D-02
Largest |displ|/coords:  0.1663 (   8)  0.1455 (   3)  0.1085 (   4)
................................................................................
.............................. CYCLE    6 ......................................
................................................................................
   1    -45.5296173 -0.455296E+02  0.346E-01    9.35       0.0  T
   2    -45.5298912 -0.273951E-03  0.252E-01    9.36       1.0  T
   3    -45.5300098 -0.118615E-03  0.870E-02    9.37       1.0  T
   4    -45.5300276 -0.178072E-04  0.189E-02    9.37       1.1  T
   5    -45.5300285 -0.919481E-06  0.603E-03    9.37       3.5  T
   6    -45.5300286 -0.385331E-07  0.358E-03    9.37       5.8  T
   7    -45.5300286 -0.168169E-07  0.995E-04    9.37      20.9  T
speedup  0.96
cpu  time for SCC    0.00 s
wall time for SCC    0.01 s
speedup  0.95
cpu  time for grad    0.01 s
wall time for grad    0.01 s
 E :    -45.32296949  G :  0.043340    pred/act E change: -0.443D-02 -0.472D-02
Maxdispl :   0.2895   ||displ|| :   0.7133   Lambda : -0.132D-01
Largest |displ|/coords:  0.2895 (   8)  0.2816 (   7)  0.2200 (  12)
................................................................................
.............................. CYCLE    7 ......................................
................................................................................
   1    -45.5268236 -0.455268E+02  0.103E+00    9.22       0.0  T
   2    -45.5303499 -0.352627E-02  0.705E-01    9.14       1.0  T
   3    -45.5316689 -0.131902E-02  0.281E-01    9.00       1.0  T
   4    -45.5317804 -0.111503E-03  0.628E-02    8.97       1.0  T
   5    -45.5317900 -0.963513E-05  0.264E-02    8.98       1.0  T
   6    -45.5317925 -0.243254E-05  0.133E-02    8.98       1.6  T
   7    -45.5317926 -0.188111E-06  0.297E-03    8.98       7.0  T
   8    -45.5317927 -0.180181E-07  0.964E-04    8.98      21.6  T
speedup  1.00
cpu  time for SCC    0.01 s
wall time for SCC    0.01 s
speedup  0.97
cpu  time for grad    0.01 s
wall time for grad    0.01 s
 E :    -45.32629333  G :  0.097435    pred/act E change: -0.293D-02 -0.332D-02
Maxdispl :   0.3246   ||displ|| :   0.6032   Lambda : -0.288D-01
Largest |displ|/coords:  0.3246 (  12)  0.2009 (   8)  0.1999 (   9)
................................................................................
.............................. CYCLE    8 ......................................
................................................................................
   1    -45.5546375 -0.455546E+02  0.101E+00    9.47       0.0  T
   2    -45.5551705 -0.532964E-03  0.754E-01    9.46       1.0  T
   3    -45.5555400 -0.369528E-03  0.140E-01    9.44       1.0  T
   4    -45.5556044 -0.643465E-04  0.336E-02    9.45       1.0  T
   5    -45.5556063 -0.196566E-05  0.144E-02    9.45       1.4  T
   6    -45.5556064 -0.890202E-07  0.621E-03    9.45       3.4  T
   7    -45.5556066 -0.146239E-06  0.113E-03    9.45      18.4  T
   8    -45.5556066 -0.465571E-08  0.323E-04    9.45      64.6  T
speedup  0.98
cpu  time for SCC    0.01 s
wall time for SCC    0.01 s
speedup  1.02
cpu  time for grad    0.01 s
wall time for grad    0.01 s
 E :    -45.32684925  G :  0.092682    pred/act E change: -0.996D-02 -0.556D-03
Maxdispl :   0.1431   ||displ|| :   0.2901   Lambda : -0.869D-02
Largest |displ|/coords:  0.1431 (  13)  0.1025 (  14)  0.0993 (   3)
................................................................................
.............................. CYCLE    9 ......................................
................................................................................
   1    -45.5544885 -0.455545E+02  0.339E-01    9.31       0.0  T
   2    -45.5545889 -0.100381E-03  0.255E-01    9.30       1.0  T
   3    -45.5546441 -0.552234E-04  0.607E-02    9.28       1.0  T
   4    -45.5546569 -0.127907E-04  0.187E-02    9.29       1.1  T
   5    -45.5546575 -0.602849E-06  0.563E-03    9.29       3.7  T
   6    -45.5546575 -0.408288E-07  0.321E-03    9.29       6.5  T
speedup  1.11
cpu  time for SCC    0.00 s
wall time for SCC    0.00 s
speedup  1.01
cpu  time for grad    0.01 s
wall time for grad    0.01 s
 E :    -45.33297508  G :  0.036972    pred/act E change: -0.196D-01 -0.613D-02
Maxdispl :   0.2502   ||displ|| :   0.5723   Lambda : -0.803D-02
Largest |displ|/coords:  0.2502 (   8)  0.2280 (   7)  0.1709 (  13)
................................................................................
.............................. CYCLE   10 ......................................
................................................................................
   1    -45.5436833 -0.455437E+02  0.770E-01    8.66       0.0  T
   2    -45.5447059 -0.102256E-02  0.545E-01    8.58       1.0  T
   3    -45.5451126 -0.406758E-03  0.173E-01    8.41       1.0  T
   4    -45.5451842 -0.715988E-04  0.383E-02    8.40       1.0  T
   5    -45.5451860 -0.181708E-05  0.156E-02    8.42       1.3  T
   6    -45.5451874 -0.133626E-05  0.869E-03    8.41       2.4  T
   7    -45.5451875 -0.959855E-07  0.206E-03    8.41      10.1  T
   8    -45.5451875 -0.870148E-08  0.593E-04    8.41      35.1  T
speedup  1.00
cpu  time for SCC    0.01 s
wall time for SCC    0.01 s
speedup  0.97
cpu  time for grad    0.01 s
wall time for grad    0.01 s
 E :    -45.33207057  G :  0.091312    pred/act E change: -0.471D-02  0.905D-03
Maxdispl :   0.1789   ||displ|| :   0.4868   Lambda : -0.188D-01
Largest |displ|/coords:  0.1789 (   7)  0.1775 (   8)  0.1767 (  12)
................................................................................
.............................. CYCLE   11 ......................................
................................................................................
   1    -45.5606735 -0.455607E+02  0.795E-01    9.16       0.0  T
   2    -45.5611678 -0.494357E-03  0.588E-01    9.19       1.0  T
   3    -45.5614483 -0.280497E-03  0.134E-01    9.24       1.0  T
   4    -45.5615036 -0.553236E-04  0.328E-02    9.24       1.0  T
   5    -45.5615060 -0.235269E-05  0.121E-02    9.23       1.7  T
   6    -45.5615061 -0.765089E-07  0.593E-03    9.23       3.5  T
   7    -45.5615062 -0.118177E-06  0.128E-03    9.23      16.3  T
speedup  0.94
cpu  time for SCC    0.00 s
wall time for SCC    0.01 s
speedup  1.03
cpu  time for grad    0.01 s
wall time for grad    0.01 s
 E :    -45.33465997  G :  0.042590    pred/act E change: -0.533D-02 -0.259D-02
Maxdispl :   0.0968   ||displ|| :   0.2281   Lambda : -0.375D-02
Largest |displ|/coords:  0.0968 (   1)  0.0924 (   8)  0.0660 (   7)
................................................................................
.............................. CYCLE   12 ......................................
................................................................................
   1    -45.5671314 -0.455671E+02  0.253E-01    9.13       0.0  T
   2    -45.5672285 -0.970521E-04  0.188E-01    9.09       1.0  T
   3    -45.5672842 -0.556943E-04  0.622E-02    8.99       1.0  T
   4    -45.5672931 -0.897815E-05  0.175E-02    8.99       1.2  T
   5    -45.5672937 -0.532912E-06  0.629E-03    9.00       3.3  T
   6    -45.5672937 -0.340226E-07  0.357E-03    9.00       5.8  T
   7    -45.5672937 -0.155865E-07  0.866E-04    9.00      24.1  T
speedup  0.93
cpu  time for SCC    0.00 s
wall time for SCC    0.01 s
speedup  1.02
cpu  time for grad    0.01 s
wall time for grad    0.01 s
 E :    -45.33722830  G :  0.031342    pred/act E change: -0.117D-01 -0.257D-02
Maxdispl :   0.2317   ||displ|| :   0.4821   Lambda : -0.754D-02
Largest |displ|/coords:  0.2317 (   8)  0.1572 (   9)  0.1508 (   7)
................................................................................
.............................. CYCLE   13 ......................................
................................................................................
   1    -45.5590254 -0.455590E+02  0.617E-01    8.41       0.0  T
   2    -45.5594239 -0.398508E-03  0.443E-01    8.34       1.0  T
   3    -45.5596028 -0.178941E-03  0.113E-01    8.22       1.0  T
   4    -45.5596381 -0.352817E-04  0.258E-02    8.25       1.0  T
   5    -45.5596393 -0.119117E-05  0.953E-03    8.25       2.2  T
   6    -45.5596397 -0.360703E-06  0.556E-03    8.25       3.7  T
   7    -45.5596397 -0.466091E-07  0.145E-03    8.25      14.4  T
speedup  0.96
cpu  time for SCC    0.00 s
wall time for SCC    0.01 s
speedup  0.95
cpu  time for grad    0.01 s
wall time for grad    0.01 s
 E :    -45.33549794  G :  0.082147    pred/act E change: -0.197D-02  0.173D-02
Maxdispl :   0.1539   ||displ|| :   0.4275   Lambda : -0.168D-01
Largest |displ|/coords:  0.1539 (  13)  0.1480 (   8)  0.1407 (  12)
................................................................................
.............................. CYCLE   14 ......................................
................................................................................
   1    -45.5700680 -0.455701E+02  0.665E-01    8.86       0.0  T
   2    -45.5703391 -0.271094E-03  0.491E-01    8.89       1.0  T
   3    -45.5705030 -0.163855E-03  0.101E-01    8.95       1.0  T
   4    -45.5705305 -0.275720E-04  0.281E-02    8.93       1.0  T
   5    -45.5705323 -0.173232E-05  0.906E-03    8.93       2.3  T
   6    -45.5705323 -0.486662E-07  0.434E-03    8.93       4.8  T
   7    -45.5705324 -0.588161E-07  0.974E-04    8.93      21.4  T
speedup  0.94
cpu  time for SCC    0.00 s
wall time for SCC    0.01 s
speedup  1.03
cpu  time for grad    0.01 s
wall time for grad    0.01 s
 E :    -45.33756825  G :  0.037618    pred/act E change: -0.465D-02 -0.207D-02
Maxdispl :   0.0793   ||displ|| :   0.1913   Lambda : -0.405D-02
Largest |displ|/coords:  0.0793 (   8)  0.0589 (  14)  0.0547 (   1)
................................................................................
.............................. CYCLE   15 ......................................
................................................................................
   1    -45.5709349 -0.455709E+02  0.228E-01    8.83       0.0  T
   2    -45.5709623 -0.273785E-04  0.170E-01    8.81       1.0  T
   3    -45.5709808 -0.185055E-04  0.312E-02    8.78       1.0  T
   4    -45.5709837 -0.290769E-05  0.943E-03    8.79       2.2  T
   5    -45.5709839 -0.156131E-06  0.294E-03    8.79       7.1  T
   6    -45.5709839 -0.106877E-07  0.152E-03    8.79      13.7  T
speedup  1.09
cpu  time for SCC    0.01 s
wall time for SCC    0.00 s
speedup  1.00
cpu  time for grad    0.01 s
wall time for grad    0.01 s
 E :    -45.34029950  G :  0.020082    pred/act E change: -0.996D-02 -0.273D-02
Maxdispl :   0.1456   ||displ|| :   0.2878   Lambda : -0.211D-02
Largest |displ|/coords:  0.1456 (   8)  0.0985 (   7)  0.0972 (   1)
................................................................................
.............................. CYCLE   16 ......................................
................................................................................
   1    -45.5728639 -0.455729E+02  0.306E-01    8.66       0.0  T
   2    -45.5729541 -0.901201E-04  0.223E-01    8.62       1.0  T
   3    -45.5729972 -0.431424E-04  0.551E-02    8.55       1.0  T
   4    -45.5730066 -0.941934E-05  0.125E-02    8.55       1.7  T
   5    -45.5730069 -0.304663E-06  0.505E-03    8.55       4.1  T
   6    -45.5730070 -0.401210E-07  0.311E-03    8.55       6.7  T
speedup  0.83
cpu  time for SCC    0.00 s
wall time for SCC    0.00 s
speedup  0.98
cpu  time for grad    0.01 s
wall time for grad    0.01 s
 E :    -45.34111681  G :  0.041515    pred/act E change: -0.210D-02 -0.817D-03
Maxdispl :   0.0731   ||displ|| :   0.1123   Lambda : -0.107D-02
Largest |displ|/coords:  0.0731 (   3)  0.0455 (   1)  0.0282 (   2)
................................................................................
.............................. CYCLE   17 ......................................
................................................................................
   1    -45.5733577 -0.455734E+02  0.785E-02    8.61       0.0  T
   2    -45.5733643 -0.656933E-05  0.569E-02    8.62       1.0  T
   3    -45.5733675 -0.322057E-05  0.150E-02    8.63       1.4  T
   4    -45.5733681 -0.616231E-06  0.387E-03    8.62       5.4  T
   5    -45.5733681 -0.247338E-07  0.144E-03    8.62      14.5  T
speedup  0.77
cpu  time for SCC    0.00 s
wall time for SCC    0.00 s
speedup  0.97
cpu  time for grad    0.01 s
wall time for grad    0.01 s
 E :    -45.34199263  G :  0.029526    pred/act E change: -0.114D-02 -0.876D-03
Maxdispl :   0.1814   ||displ|| :   0.3969   Lambda : -0.248D-02
Largest |displ|/coords:  0.1814 (   3)  0.1772 (   8)  0.1396 (   1)
................................................................................
.............................. CYCLE   18 ......................................
................................................................................
   1    -45.5754135 -0.455754E+02  0.232E-01    8.63       0.0  T
   2    -45.5754264 -0.128740E-04  0.173E-01    8.63       1.0  T
   3    -45.5754371 -0.107646E-04  0.244E-02    8.62       1.0  T
   4    -45.5754384 -0.130775E-05  0.853E-03    8.61       2.4  T
   5    -45.5754385 -0.681881E-07  0.260E-03    8.61       8.0  T
   6    -45.5754385 -0.722594E-08  0.138E-03    8.61      15.1  T
speedup  0.87
cpu  time for SCC    0.00 s
wall time for SCC    0.00 s
speedup  1.00
cpu  time for grad    0.01 s
wall time for grad    0.01 s
 E :    -45.34374333  G :  0.017199    pred/act E change: -0.543D-03 -0.175D-02
Maxdispl :   0.2693   ||displ|| :   0.4605   Lambda : -0.179D-02
Largest |displ|/coords:  0.2693 (   3)  0.1882 (   8)  0.1718 (   1)
................................................................................
.............................. CYCLE   19 ......................................
................................................................................
   1    -45.5762632 -0.455763E+02  0.273E-01    8.52       0.0  T
   2    -45.5762784 -0.151640E-04  0.203E-01    8.52       1.0  T
   3    -45.5762916 -0.131806E-04  0.268E-02    8.49       1.0  T
   4    -45.5762931 -0.150168E-05  0.694E-03    8.49       3.0  T
   5    -45.5762931 -0.583504E-07  0.316E-03    8.49       6.6  T
   6    -45.5762932 -0.171529E-07  0.121E-03    8.49      17.2  T
   7    -45.5762932 -0.188326E-08  0.418E-04    8.49      49.9  T
speedup  1.13
cpu  time for SCC    0.01 s
wall time for SCC    0.01 s
speedup  1.02
cpu  time for grad    0.01 s
wall time for grad    0.01 s
 E :    -45.34501330  G :  0.019527    pred/act E change: -0.144D-02 -0.127D-02
Maxdispl :   0.2573   ||displ|| :   0.5206   Lambda : -0.229D-02
Largest |displ|/coords:  0.2573 (   8)  0.2320 (   4)  0.1800 (   3)
................................................................................
.............................. CYCLE   20 ......................................
................................................................................
   1    -45.5768579 -0.455769E+02  0.357E-01    8.40       0.0  T
   2    -45.5769039 -0.460313E-04  0.266E-01    8.39       1.0  T
   3    -45.5769439 -0.399894E-04  0.435E-02    8.35       1.0  T
   4    -45.5769492 -0.530060E-05  0.130E-02    8.35       1.6  T
   5    -45.5769494 -0.168195E-06  0.545E-03    8.35       3.8  T
   6    -45.5769494 -0.405470E-07  0.237E-03    8.35       8.8  T
   7    -45.5769495 -0.104934E-07  0.780E-04    8.35      26.7  T
speedup  0.94
cpu  time for SCC    0.00 s
wall time for SCC    0.01 s
speedup  0.94
cpu  time for grad    0.01 s
wall time for grad    0.01 s
 E :    -45.34629265  G :  0.029651    pred/act E change: -0.108D-02 -0.128D-02
Maxdispl :   0.1081   ||displ|| :   0.2935   Lambda : -0.168D-02
Largest |displ|/coords:  0.1081 (   3)  0.0994 (   8)  0.0866 (  11)
................................................................................
.............................. CYCLE   21 ......................................
................................................................................
   1    -45.5827386 -0.455827E+02  0.177E-01    8.36       0.0  T
   2    -45.5827850 -0.464603E-04  0.129E-01    8.35       1.0  T
   3    -45.5828067 -0.216468E-04  0.398E-02    8.33       1.0  T
   4    -45.5828111 -0.437411E-05  0.913E-03    8.33       2.3  T
   5    -45.5828112 -0.177365E-06  0.399E-03    8.33       5.2  T
   6    -45.5828112 -0.177207E-07  0.179E-03    8.33      11.7  T
speedup  1.09
cpu  time for SCC    0.00 s
wall time for SCC    0.00 s
speedup  1.00
cpu  time for grad    0.01 s
wall time for grad    0.01 s
 E :    -45.34740283  G :  0.022751    pred/act E change: -0.146D-02 -0.111D-02
Maxdispl :   0.2682   ||displ|| :   0.4804   Lambda : -0.231D-02
Largest |displ|/coords:  0.2682 (   3)  0.1850 (   8)  0.1278 (   9)
................................................................................
.............................. CYCLE   22 ......................................
................................................................................
   1    -45.5856911 -0.455857E+02  0.277E-01    8.34       0.0  T
   2    -45.5858652 -0.174125E-03  0.201E-01    8.33       1.0  T
   3    -45.5859385 -0.732799E-04  0.706E-02    8.31       1.0  T
   4    -45.5859512 -0.127863E-04  0.125E-02    8.31       1.7  T
   5    -45.5859516 -0.349392E-06  0.614E-03    8.31       3.4  T
   6    -45.5859516 -0.327175E-07  0.277E-03    8.31       7.5  T
   7    -45.5859516 -0.105684E-07  0.721E-04    8.31      28.9  T
speedup  0.94
cpu  time for SCC    0.00 s
wall time for SCC    0.01 s
speedup  1.03
cpu  time for grad    0.01 s
wall time for grad    0.01 s
 E :    -45.34911006  G :  0.024345    pred/act E change: -0.911D-03 -0.171D-02
Maxdispl :   0.2644   ||displ|| :   0.6239   Lambda : -0.302D-02
Largest |displ|/coords:  0.2644 (   8)  0.2539 (   3)  0.2436 (  11)
................................................................................
.............................. CYCLE   23 ......................................
................................................................................
   1    -45.5837629 -0.455838E+02  0.410E-01    8.31       0.0  T
   2    -45.5839370 -0.174021E-03  0.306E-01    8.30       1.0  T
   3    -45.5840369 -0.999341E-04  0.801E-02    8.27       1.0  T
   4    -45.5840583 -0.214172E-04  0.220E-02    8.27       1.0  T
   5    -45.5840593 -0.100332E-05  0.927E-03    8.28       2.2  T
   6    -45.5840594 -0.698037E-07  0.420E-03    8.28       5.0  T
   7    -45.5840594 -0.304586E-07  0.106E-03    8.28      19.6  T
speedup  1.13
cpu  time for SCC    0.01 s
wall time for SCC    0.01 s
speedup  1.03
cpu  time for grad    0.01 s
wall time for grad    0.01 s
 E :    -45.35097267  G :  0.027935    pred/act E change: -0.142D-02 -0.186D-02
Maxdispl :   0.1173   ||displ|| :   0.3354   Lambda : -0.226D-02
Largest |displ|/coords:  0.1173 (  24)  0.1143 (  21)  0.1047 (   4)
................................................................................
.............................. CYCLE   24 ......................................
................................................................................
   1    -45.5980084 -0.455980E+02  0.286E-01    8.48       0.0  T
   2    -45.5981059 -0.974473E-04  0.211E-01    8.48       1.0  T
   3    -45.5981643 -0.584194E-04  0.595E-02    8.47       1.0  T
   4    -45.5981730 -0.872684E-05  0.197E-02    8.47       1.1  T
   5    -45.5981736 -0.531907E-06  0.644E-03    8.47       3.2  T
   6    -45.5981736 -0.287520E-07  0.315E-03    8.47       6.6  T
   7    -45.5981736 -0.140277E-07  0.700E-04    8.47      29.8  T
speedup  0.93
cpu  time for SCC    0.00 s
wall time for SCC    0.01 s
speedup  1.02
cpu  time for grad    0.01 s
wall time for grad    0.01 s
 E :    -45.35146308  G :  0.029907    pred/act E change: -0.210D-02 -0.490D-03
Maxdispl :   0.1069   ||displ|| :   0.2164   Lambda : -0.219D-02
Largest |displ|/coords:  0.1069 (   1)  0.1057 (   3)  0.0626 (   7)
................................................................................
.............................. CYCLE   25 ......................................
................................................................................
   1    -45.5948336 -0.455948E+02  0.151E-01    8.46       0.0  T
   2    -45.5948674 -0.338642E-04  0.110E-01    8.46       1.0  T
   3    -45.5948821 -0.146780E-04  0.321E-02    8.45       1.0  T
   4    -45.5948846 -0.245071E-05  0.679E-03    8.45       3.1  T
   5    -45.5948847 -0.977705E-07  0.218E-03    8.45       9.6  T
   6    -45.5948847 -0.489585E-08  0.122E-03    8.45      17.1  T
speedup  1.09
cpu  time for SCC    0.00 s
wall time for SCC    0.00 s
speedup  1.00
cpu  time for grad    0.01 s
wall time for grad    0.01 s
 E :    -45.35262275  G :  0.021200    pred/act E change: -0.126D-02 -0.116D-02
Maxdispl :   0.1640   ||displ|| :   0.2764   Lambda : -0.134D-02
Largest |displ|/coords:  0.1640 (   3)  0.1378 (   4)  0.0802 (   2)

generating ANC from model Hessian ...
 Shifting diagonal of input Hessian by   5.057534183663361E-003
 Lowest  eigenvalues of input Hessian
    0.005000   -0.000000   -0.000000    0.000000    0.000000    0.000000
    0.000000    0.005202    0.005384    0.005791    0.006425    0.006891
    0.007667    0.007736    0.009893    0.011517    0.011929    0.014471
 Highest eigenvalues
    1.357613    1.377939    1.392339    2.640127    3.291036    3.638936
 
cpu  time for ANC gen    0.01 s
wall time for ANC gen    0.01 s
................................................................................
.............................. CYCLE   26 ......................................
................................................................................
   1    -45.5924784 -0.455925E+02  0.159E-01    8.37       0.0  T
   2    -45.5924950 -0.166015E-04  0.119E-01    8.37       1.0  T
   3    -45.5925049 -0.989291E-05  0.254E-02    8.38       1.0  T
   4    -45.5925072 -0.233927E-05  0.945E-03    8.38       2.2  T
   5    -45.5925073 -0.115199E-06  0.275E-03    8.38       7.6  T
   6    -45.5925073 -0.106306E-07  0.147E-03    8.38      14.2  T
   7    -45.5925073 -0.347247E-08  0.396E-04    8.38      52.7  T
   8    -45.5925073 -0.354973E-09  0.978E-05    8.38     213.2  T
speedup  0.98
cpu  time for SCC    0.01 s
wall time for SCC    0.01 s
speedup  1.01
cpu  time for grad    0.01 s
wall time for grad    0.01 s
 E :    -45.35318423  G :  0.025152    pred/act E change:  0.000D+00 -0.561D-03
Maxdispl :   0.2683   ||displ|| :   0.3700   Lambda : -0.251D-02
Largest |displ|/coords:  0.2683 (  10)  0.1289 (   8)  0.0815 (  18)
................................................................................
.............................. CYCLE   27 ......................................
................................................................................
   1    -45.5933208 -0.455933E+02  0.223E-01    8.45       0.0  T
   2    -45.5933365 -0.157110E-04  0.169E-01    8.45       1.0  T
   3    -45.5933500 -0.134926E-04  0.245E-02    8.46       1.0  T
   4    -45.5933521 -0.215201E-05  0.845E-03    8.46       2.5  T
   5    -45.5933523 -0.120159E-06  0.315E-03    8.46       6.6  T
   6    -45.5933523 -0.583872E-08  0.160E-03    8.46      13.0  T
speedup  1.06
cpu  time for SCC    0.00 s
wall time for SCC    0.00 s
speedup  0.99
cpu  time for grad    0.01 s
wall time for grad    0.01 s
 E :    -45.35455987  G :  0.022566    pred/act E change:  0.000D+00 -0.138D-02
Maxdispl :   0.1366   ||displ|| :   0.2858   Lambda : -0.141D-02
Largest |displ|/coords:  0.1366 (   2)  0.0971 (   3)  0.0923 (   1)
................................................................................
.............................. CYCLE   28 ......................................
................................................................................
   1    -45.5964306 -0.455964E+02  0.153E-01    8.49       0.0  T
   2    -45.5964409 -0.103270E-04  0.114E-01    8.50       1.0  T
   3    -45.5964463 -0.537770E-05  0.221E-02    8.51       1.0  T
   4    -45.5964478 -0.150136E-05  0.649E-03    8.51       3.2  T
   5    -45.5964479 -0.804322E-07  0.205E-03    8.51      10.2  T
   6    -45.5964479 -0.205331E-08  0.122E-03    8.51      17.1  T
speedup  0.89
cpu  time for SCC    0.00 s
wall time for SCC    0.00 s
speedup  1.00
cpu  time for grad    0.01 s
wall time for grad    0.01 s
 E :    -45.35540520  G :  0.012653    pred/act E change: -0.143D-02 -0.845D-03
Maxdispl :   0.1154   ||displ|| :   0.2124   Lambda : -0.499D-03
Largest |displ|/coords:  0.1154 (   3)  0.1025 (   2)  0.0644 (  10)
................................................................................
.............................. CYCLE   29 ......................................
................................................................................
   1    -45.5975002 -0.455975E+02  0.135E-01    8.52       0.0  T
   2    -45.5975054 -0.525128E-05  0.101E-01    8.52       1.0  T
   3    -45.5975093 -0.390345E-05  0.155E-02    8.53       1.3  T
   4    -45.5975100 -0.720561E-06  0.524E-03    8.53       4.0  T
   5    -45.5975101 -0.388216E-07  0.180E-03    8.53      11.6  T
   6    -45.5975101 -0.246241E-08  0.101E-03    8.53      20.5  T
speedup  1.09
cpu  time for SCC    0.01 s
wall time for SCC    0.00 s
speedup  0.99
cpu  time for grad    0.01 s
wall time for grad    0.01 s
 E :    -45.35577326  G :  0.011214    pred/act E change: -0.760D-03 -0.368D-03
Maxdispl :   0.1922   ||displ|| :   0.3112   Lambda : -0.625D-03
Largest |displ|/coords:  0.1922 (   3)  0.1570 (   2)  0.0847 (   5)
................................................................................
.............................. CYCLE   30 ......................................
................................................................................
   1    -45.5999115 -0.455999E+02  0.165E-01    8.52       0.0  T
   2    -45.5999241 -0.125874E-04  0.123E-01    8.52       1.0  T
   3    -45.5999328 -0.872844E-05  0.225E-02    8.52       1.0  T
   4    -45.5999345 -0.163436E-05  0.683E-03    8.52       3.1  T
   5    -45.5999345 -0.661471E-07  0.274E-03    8.52       7.6  T
   6    -45.5999345 -0.587482E-08  0.152E-03    8.52      13.8  T
speedup  1.09
cpu  time for SCC    0.00 s
wall time for SCC    0.00 s
speedup  0.99
cpu  time for grad    0.01 s
wall time for grad    0.01 s
 E :    -45.35617068  G :  0.010726    pred/act E change: -0.261D-03 -0.397D-03
Maxdispl :   0.1874   ||displ|| :   0.2868   Lambda : -0.466D-03
Largest |displ|/coords:  0.1874 (   3)  0.1110 (   6)  0.0997 (   2)
................................................................................
.............................. CYCLE   31 ......................................
................................................................................
   1    -45.6018026 -0.456018E+02  0.146E-01    8.51       0.0  T
   2    -45.6018138 -0.112519E-04  0.110E-01    8.50       1.0  T
   3    -45.6018230 -0.916619E-05  0.214E-02    8.49       1.0  T
   4    -45.6018245 -0.145179E-05  0.648E-03    8.49       3.2  T
   5    -45.6018245 -0.587350E-07  0.276E-03    8.49       7.6  T
   6    -45.6018245 -0.863088E-08  0.145E-03    8.49      14.4  T
speedup  1.11
cpu  time for SCC    0.00 s
wall time for SCC    0.00 s
speedup  0.98
cpu  time for grad    0.01 s
wall time for grad    0.01 s
 E :    -45.35650637  G :  0.010639    pred/act E change: -0.343D-03 -0.336D-03
Maxdispl :   0.2726   ||displ|| :   0.4078   Lambda : -0.541D-03
Largest |displ|/coords:  0.2726 (   3)  0.1526 (   2)  0.1519 (   6)
................................................................................
.............................. CYCLE   32 ......................................
................................................................................
   1    -45.6015859 -0.456016E+02  0.205E-01    8.44       0.0  T
   2    -45.6016109 -0.250470E-04  0.154E-01    8.43       1.0  T
   3    -45.6016289 -0.179846E-04  0.309E-02    8.41       1.0  T
   4    -45.6016325 -0.352746E-05  0.107E-02    8.41       2.0  T
   5    -45.6016326 -0.169295E-06  0.414E-03    8.41       5.0  T
   6    -45.6016327 -0.216725E-07  0.215E-03    8.41       9.7  T
   7    -45.6016327 -0.753445E-08  0.569E-04    8.41      36.7  T
speedup  0.96
cpu  time for SCC    0.00 s
wall time for SCC    0.01 s
speedup  0.94
cpu  time for grad    0.01 s
wall time for grad    0.01 s
 E :    -45.35693821  G :  0.012888    pred/act E change: -0.252D-03 -0.432D-03
Maxdispl :   0.3704   ||displ|| :   0.5422   Lambda : -0.954D-03
Largest |displ|/coords:  0.3704 (   3)  0.1616 (   1)  0.1575 (   6)
................................................................................
.............................. CYCLE   33 ......................................
................................................................................
   1    -45.6031114 -0.456031E+02  0.257E-01    8.36       0.0  T
   2    -45.6032031 -0.916801E-04  0.193E-01    8.35       1.0  T
   3    -45.6032523 -0.491899E-04  0.607E-02    8.32       1.0  T
   4    -45.6032626 -0.102889E-04  0.210E-02    8.32       1.0  T
   5    -45.6032635 -0.902621E-06  0.687E-03    8.33       3.0  T
   6    -45.6032635 -0.557445E-07  0.335E-03    8.33       6.2  T
   7    -45.6032635 -0.165777E-07  0.934E-04    8.33      22.3  T
   8    -45.6032635 -0.189789E-08  0.277E-04    8.33      75.3  T
speedup  1.00
cpu  time for SCC    0.01 s
wall time for SCC    0.01 s
speedup  1.05
cpu  time for grad    0.01 s
wall time for grad    0.01 s
 E :    -45.35752976  G :  0.019825    pred/act E change: -0.316D-03 -0.592D-03
Maxdispl :   0.3419   ||displ|| :   0.5385   Lambda : -0.105D-02
Largest |displ|/coords:  0.3419 (   3)  0.2041 (   1)  0.1728 (   6)
................................................................................
.............................. CYCLE   34 ......................................
................................................................................
   1    -45.6005029 -0.456005E+02  0.286E-01    8.25       0.0  T
   2    -45.6006060 -0.103063E-03  0.216E-01    8.24       1.0  T
   3    -45.6006601 -0.541418E-04  0.640E-02    8.22       1.0  T
   4    -45.6006728 -0.126362E-04  0.223E-02    8.22       1.0  T
   5    -45.6006737 -0.961847E-06  0.739E-03    8.22       2.8  T
   6    -45.6006738 -0.641735E-07  0.370E-03    8.22       5.6  T
   7    -45.6006738 -0.204596E-07  0.964E-04    8.22      21.6  T
   8    -45.6006738 -0.232714E-08  0.314E-04    8.22      66.4  T
speedup  1.00
cpu  time for SCC    0.01 s
wall time for SCC    0.01 s
speedup  1.05
cpu  time for grad    0.01 s
wall time for grad    0.01 s
 E :    -45.35827151  G :  0.025017    pred/act E change: -0.617D-03 -0.742D-03
Maxdispl :   0.2072   ||displ|| :   0.3669   Lambda : -0.175D-02
Largest |displ|/coords:  0.2072 (   1)  0.1295 (   3)  0.1207 (   8)
................................................................................
.............................. CYCLE   35 ......................................
................................................................................
   1    -45.6060002 -0.456060E+02  0.223E-01    8.35       0.0  T
   2    -45.6061077 -0.107525E-03  0.169E-01    8.35       1.0  T
   3    -45.6061547 -0.470303E-04  0.675E-02    8.35       1.0  T
   4    -45.6061629 -0.810983E-05  0.211E-02    8.34       1.0  T
   5    -45.6061637 -0.819449E-06  0.603E-03    8.34       3.5  T
   6    -45.6061637 -0.367977E-07  0.318E-03    8.34       6.5  T
   7    -45.6061637 -0.147648E-07  0.803E-04    8.34      26.0  T
speedup  0.96
cpu  time for SCC    0.00 s
wall time for SCC    0.01 s
speedup  0.95
cpu  time for grad    0.01 s
wall time for grad    0.01 s
 E :    -45.35942230  G :  0.027266    pred/act E change: -0.679D-03 -0.115D-02
Maxdispl :   0.2415   ||displ|| :   0.4442   Lambda : -0.215D-02
Largest |displ|/coords:  0.2415 (   3)  0.2287 (   1)  0.1108 (   2)
................................................................................
.............................. CYCLE   36 ......................................
................................................................................
   1    -45.6103668 -0.456104E+02  0.270E-01    8.39       0.0  T
   2    -45.6104774 -0.110542E-03  0.201E-01    8.38       1.0  T
   3    -45.6105325 -0.551374E-04  0.640E-02    8.36       1.0  T
   4    -45.6105432 -0.107419E-04  0.204E-02    8.35       1.0  T
   5    -45.6105441 -0.833045E-06  0.711E-03    8.35       2.9  T
   6    -45.6105441 -0.588387E-07  0.365E-03    8.35       5.7  T
   7    -45.6105441 -0.210938E-07  0.794E-04    8.35      26.3  T
speedup  0.96
cpu  time for SCC    0.00 s
wall time for SCC    0.01 s
speedup  1.03
cpu  time for grad    0.01 s
wall time for grad    0.01 s
 E :    -45.36077959  G :  0.022904    pred/act E change: -0.992D-03 -0.136D-02
Maxdispl :   0.1047   ||displ|| :   0.2947   Lambda : -0.170D-02
Largest |displ|/coords:  0.1047 (   7)  0.0964 (   8)  0.0820 (  24)
................................................................................
.............................. CYCLE   37 ......................................
................................................................................
   1    -45.6229129 -0.456229E+02  0.205E-01    8.46       0.0  T
   2    -45.6229345 -0.216039E-04  0.152E-01    8.43       1.0  T
   3    -45.6229458 -0.112367E-04  0.273E-02    8.39       1.0  T
   4    -45.6229486 -0.281511E-05  0.629E-03    8.40       3.3  T
   5    -45.6229487 -0.803035E-07  0.296E-03    8.40       7.1  T
   6    -45.6229487 -0.892983E-08  0.155E-03    8.40      13.5  T
speedup  1.11
cpu  time for SCC    0.00 s
wall time for SCC    0.00 s
speedup  1.01
cpu  time for grad    0.01 s
wall time for grad    0.01 s
 E :    -45.36141027  G :  0.023420    pred/act E change: -0.129D-02 -0.631D-03
Maxdispl :   0.2423   ||displ|| :   0.3425   Lambda : -0.132D-02
Largest |displ|/coords:  0.2423 (   3)  0.1214 (   1)  0.0845 (  25)
................................................................................
.............................. CYCLE   38 ......................................
................................................................................
   1    -45.6217094 -0.456217E+02  0.215E-01    8.27       0.0  T
   2    -45.6217405 -0.310693E-04  0.161E-01    8.27       1.0  T
   3    -45.6217639 -0.234859E-04  0.343E-02    8.26       1.0  T
   4    -45.6217679 -0.401047E-05  0.105E-02    8.26       2.0  T
   5    -45.6217681 -0.149074E-06  0.516E-03    8.26       4.0  T
   6    -45.6217681 -0.316732E-07  0.230E-03    8.26       9.1  T
speedup  0.89
cpu  time for SCC    0.00 s
wall time for SCC    0.00 s
speedup  1.00
cpu  time for grad    0.01 s
wall time for grad    0.01 s
 E :    -45.36197227  G :  0.012990    pred/act E change: -0.924D-03 -0.562D-03
Maxdispl :   0.1571   ||displ|| :   0.3254   Lambda : -0.849D-03
Largest |displ|/coords:  0.1571 (   2)  0.1456 (   6)  0.1388 (   3)
................................................................................
.............................. CYCLE   39 ......................................
................................................................................
   1    -45.6142090 -0.456142E+02  0.175E-01    8.22       0.0  T
   2    -45.6142336 -0.245733E-04  0.130E-01    8.23       1.0  T
   3    -45.6142510 -0.174185E-04  0.330E-02    8.26       1.0  T
   4    -45.6142537 -0.272163E-05  0.956E-03    8.25       2.2  T
   5    -45.6142539 -0.145900E-06  0.413E-03    8.25       5.0  T
   6    -45.6142539 -0.240958E-07  0.213E-03    8.25       9.8  T
   7    -45.6142539 -0.522697E-08  0.639E-04    8.25      32.6  T
speedup  1.13
cpu  time for SCC    0.01 s
wall time for SCC    0.01 s
speedup  1.02
cpu  time for grad    0.01 s
wall time for grad    0.01 s
 E :    -45.36205195  G :  0.019435    pred/act E change: -0.737D-03 -0.797D-04
Maxdispl :   0.0885   ||displ|| :   0.1830   Lambda : -0.864D-03
Largest |displ|/coords:  0.0885 (   6)  0.0649 (   7)  0.0616 (   1)
................................................................................
.............................. CYCLE   40 ......................................
................................................................................
   1    -45.6192387 -0.456192E+02  0.130E-01    8.26       0.0  T
   2    -45.6192535 -0.147923E-04  0.964E-02    8.24       1.0  T
   3    -45.6192607 -0.728855E-05  0.237E-02    8.21       1.0  T
   4    -45.6192627 -0.193336E-05  0.699E-03    8.22       3.0  T
   5    -45.6192627 -0.654679E-07  0.276E-03    8.22       7.5  T
   6    -45.6192628 -0.787791E-08  0.138E-03    8.22      15.1  T
speedup  0.89
cpu  time for SCC    0.00 s
wall time for SCC    0.00 s
speedup  1.00
cpu  time for grad    0.01 s
wall time for grad    0.01 s
 E :    -45.36235825  G :  0.013602    pred/act E change: -0.469D-03 -0.306D-03
Maxdispl :   0.0690   ||displ|| :   0.1394   Lambda : -0.411D-03
Largest |displ|/coords:  0.0690 (   5)  0.0610 (   6)  0.0468 (  10)
................................................................................
.............................. CYCLE   41 ......................................
................................................................................
   1    -45.6216724 -0.456217E+02  0.103E-01    8.19       0.0  T
   2    -45.6216789 -0.651529E-05  0.768E-02    8.19       1.0  T
   3    -45.6216827 -0.377387E-05  0.162E-02    8.19       1.3  T
   4    -45.6216835 -0.832326E-06  0.442E-03    8.19       4.7  T
   5    -45.6216836 -0.393309E-07  0.179E-03    8.19      11.6  T
   6    -45.6216836 -0.256754E-08  0.894E-04    8.19      23.3  T
speedup  0.89
cpu  time for SCC    0.00 s
wall time for SCC    0.00 s
speedup  1.00
cpu  time for grad    0.01 s
wall time for grad    0.01 s
 E :    -45.36242104  G :  0.012915    pred/act E change: -0.446D-03 -0.628D-04
Maxdispl :   0.0505   ||displ|| :   0.0834   Lambda : -0.259D-03
Largest |displ|/coords:  0.0505 (   1)  0.0303 (  10)  0.0292 (   3)
................................................................................
.............................. CYCLE   42 ......................................
................................................................................
   1    -45.6200768 -0.456201E+02  0.592E-02    8.18       0.0  T
   2    -45.6200779 -0.115693E-05  0.442E-02    8.18       1.0  T
   3    -45.6200787 -0.775042E-06  0.746E-03    8.18       2.8  T
   4    -45.6200788 -0.134771E-06  0.256E-03    8.18       8.1  T
   5    -45.6200789 -0.790565E-08  0.731E-04    8.18      28.5  T
speedup  1.03
cpu  time for SCC    0.00 s
wall time for SCC    0.00 s
speedup  1.06
cpu  time for grad    0.01 s
wall time for grad    0.01 s
 E :    -45.36255770  G :  0.004309    pred/act E change: -0.210D-03 -0.137D-03
Maxdispl :   0.0245   ||displ|| :   0.0629   Lambda : -0.746D-04
Largest |displ|/coords:  0.0245 (   3)  0.0229 (   1)  0.0224 (   7)
................................................................................
.............................. CYCLE   43 ......................................
................................................................................
   1    -45.6188190 -0.456188E+02  0.507E-02    8.15       0.0  T
   2    -45.6188197 -0.684829E-06  0.376E-02    8.15       1.0  T
   3    -45.6188202 -0.544779E-06  0.671E-03    8.16       3.1  T
   4    -45.6188203 -0.709850E-07  0.193E-03    8.16      10.8  T
   5    -45.6188203 -0.479230E-08  0.547E-04    8.16      38.1  T
speedup  0.77
cpu  time for SCC    0.00 s
wall time for SCC    0.00 s
speedup  0.97
cpu  time for grad    0.01 s
wall time for grad    0.01 s
 E :    -45.36259952  G :  0.004578    pred/act E change: -0.131D-03 -0.418D-04
Maxdispl :   0.0687   ||displ|| :   0.1232   Lambda : -0.755D-04
Largest |displ|/coords:  0.0687 (   2)  0.0682 (   1)  0.0391 (   7)
................................................................................
.............................. CYCLE   44 ......................................
................................................................................
   1    -45.6187581 -0.456188E+02  0.694E-02    8.15       0.0  T
   2    -45.6187595 -0.142728E-05  0.516E-02    8.16       1.0  T
   3    -45.6187604 -0.880709E-06  0.763E-03    8.16       2.7  T
   4    -45.6187606 -0.195547E-06  0.286E-03    8.16       7.3  T
   5    -45.6187606 -0.774545E-08  0.755E-04    8.16      27.6  T
speedup  0.79
cpu  time for SCC    0.00 s
wall time for SCC    0.00 s
speedup  0.97
cpu  time for grad    0.01 s
wall time for grad    0.01 s
 E :    -45.36264895  G :  0.005763    pred/act E change: -0.374D-04 -0.494D-04
Maxdispl :   0.0793   ||displ|| :   0.1614   Lambda : -0.975D-04
Largest |displ|/coords:  0.0793 (   1)  0.0716 (   2)  0.0543 (   6)
................................................................................
.............................. CYCLE   45 ......................................
................................................................................
   1    -45.6187734 -0.456188E+02  0.937E-02    8.15       0.0  T
   2    -45.6187749 -0.154297E-05  0.701E-02    8.15       1.0  T
   3    -45.6187763 -0.141804E-05  0.797E-03    8.16       2.6  T
   4    -45.6187765 -0.147156E-06  0.291E-03    8.16       7.2  T
   5    -45.6187765 -0.692866E-08  0.837E-04    8.16      24.9  T
speedup  1.08
cpu  time for SCC    0.00 s
wall time for SCC    0.00 s
speedup  1.08
cpu  time for grad    0.01 s
wall time for grad    0.01 s
 E :    -45.36269565  G :  0.004405    pred/act E change: -0.383D-04 -0.467D-04
Maxdispl :   0.0341   ||displ|| :   0.0750   Lambda : -0.473D-04
Largest |displ|/coords:  0.0341 (   1)  0.0305 (   7)  0.0263 (   5)
................................................................................
.............................. CYCLE   46 ......................................
................................................................................
   1    -45.6189000 -0.456189E+02  0.458E-02    8.17       0.0  T
   2    -45.6189002 -0.275094E-06  0.343E-02    8.17       1.0  T
   3    -45.6189005 -0.294031E-06  0.382E-03    8.18       5.5  T
   4    -45.6189005 -0.224323E-07  0.131E-03    8.18      15.9  T
   5    -45.6189005 -0.213785E-08  0.420E-04    8.18      49.6  T
speedup  1.05
cpu  time for SCC    0.00 s
wall time for SCC    0.00 s
speedup  0.98
cpu  time for grad    0.01 s
wall time for grad    0.01 s
 E :    -45.36272726  G :  0.004183    pred/act E change: -0.500D-04 -0.316D-04
Maxdispl :   0.0349   ||displ|| :   0.0850   Lambda : -0.577D-04
Largest |displ|/coords:  0.0349 (   1)  0.0336 (   7)  0.0294 (  15)
................................................................................
.............................. CYCLE   47 ......................................
................................................................................
   1    -45.6196364 -0.456196E+02  0.592E-02    8.22       0.0  T
   2    -45.6196369 -0.485996E-06  0.440E-02    8.22       1.0  T
   3    -45.6196374 -0.471193E-06  0.609E-03    8.22       3.4  T
   4    -45.6196374 -0.389315E-07  0.186E-03    8.22      11.2  T
   5    -45.6196374 -0.455525E-08  0.503E-04    8.22      41.5  T
speedup  1.03
cpu  time for SCC    0.00 s
wall time for SCC    0.00 s
speedup  0.97
cpu  time for grad    0.01 s
wall time for grad    0.01 s
 E :    -45.36276804  G :  0.003524    pred/act E change: -0.238D-04 -0.408D-04
Maxdispl :   0.0641   ||displ|| :   0.1372   Lambda : -0.509D-04
Largest |displ|/coords:  0.0641 (   6)  0.0549 (   1)  0.0470 (   7)
................................................................................
.............................. CYCLE   48 ......................................
................................................................................
   1    -45.6189490 -0.456189E+02  0.917E-02    8.23       0.0  T
   2    -45.6189502 -0.117777E-05  0.685E-02    8.23       1.0  T
   3    -45.6189513 -0.117651E-05  0.817E-03    8.24       2.6  T
   4    -45.6189514 -0.102058E-06  0.303E-03    8.24       6.9  T
   5    -45.6189515 -0.932689E-08  0.773E-04    8.24      27.0  T
   6    -45.6189515 -0.611273E-09  0.490E-04    8.24      42.6  T
speedup  1.11
cpu  time for SCC    0.00 s
wall time for SCC    0.00 s
speedup  1.06
cpu  time for grad    0.01 s
wall time for grad    0.01 s
 E :    -45.36279946  G :  0.003316    pred/act E change: -0.291D-04 -0.314D-04
Maxdispl :   0.0388   ||displ|| :   0.0813   Lambda : -0.345D-04
Largest |displ|/coords:  0.0388 (   6)  0.0325 (   7)  0.0322 (   1)
................................................................................
.............................. CYCLE   49 ......................................
................................................................................
   1    -45.6196276 -0.456196E+02  0.599E-02    8.25       0.0  T
   2    -45.6196282 -0.686221E-06  0.445E-02    8.25       1.0  T
   3    -45.6196288 -0.580826E-06  0.620E-03    8.25       3.4  T
   4    -45.6196289 -0.723549E-07  0.225E-03    8.25       9.2  T
   5    -45.6196289 -0.519000E-08  0.555E-04    8.25      37.6  T
   6    -45.6196289 -0.450662E-09  0.341E-04    8.25      61.1  T
speedup  0.91
cpu  time for SCC    0.00 s
wall time for SCC    0.00 s
speedup  0.97
cpu  time for grad    0.01 s
wall time for grad    0.01 s
 E :    -45.36281963  G :  0.002764    pred/act E change: -0.259D-04 -0.202D-04
Maxdispl :   0.0503   ||displ|| :   0.0925   Lambda : -0.267D-04
Largest |displ|/coords:  0.0503 (   6)  0.0464 (   1)  0.0280 (  16)
................................................................................
.............................. CYCLE   50 ......................................
................................................................................
   1    -45.6194183 -0.456194E+02  0.598E-02    8.24       0.0  T
   2    -45.6194189 -0.580535E-06  0.445E-02    8.24       1.0  T
   3    -45.6194194 -0.547881E-06  0.599E-03    8.24       3.5  T
   4    -45.6194195 -0.541678E-07  0.188E-03    8.24      11.1  T
   5    -45.6194195 -0.547067E-08  0.556E-04    8.24      37.5  T
   6    -45.6194195 -0.435016E-09  0.350E-04    8.24      59.6  T
speedup  0.89
cpu  time for SCC    0.00 s
wall time for SCC    0.00 s
speedup  0.96
cpu  time for grad    0.01 s
wall time for grad    0.01 s
 E :    -45.36283908  G :  0.002297    pred/act E change: -0.174D-04 -0.194D-04
Maxdispl :   0.0481   ||displ|| :   0.0895   Lambda : -0.293D-04
Largest |displ|/coords:  0.0481 (   6)  0.0474 (   1)  0.0262 (  16)
................................................................................
.............................. CYCLE   51 ......................................
................................................................................
   1    -45.6196386 -0.456196E+02  0.590E-02    8.22       0.0  T
   2    -45.6196390 -0.476115E-06  0.435E-02    8.22       1.0  T
   3    -45.6196395 -0.448684E-06  0.606E-03    8.22       3.4  T
   4    -45.6196395 -0.357189E-07  0.161E-03    8.22      13.0  T
   5    -45.6196395 -0.373266E-08  0.494E-04    8.22      42.2  T
   6    -45.6196395 -0.270454E-09  0.310E-04    8.22      67.2  T
speedup  1.11
cpu  time for SCC    0.00 s
wall time for SCC    0.00 s
speedup  1.06
cpu  time for grad    0.01 s
wall time for grad    0.01 s
 E :    -45.36285761  G :  0.001860    pred/act E change: -0.134D-04 -0.185D-04
Maxdispl :   0.0356   ||displ|| :   0.0555   Lambda : -0.122D-04
Largest |displ|/coords:  0.0356 (   1)  0.0318 (   6)  0.0145 (  11)
................................................................................
.............................. CYCLE   52 ......................................
................................................................................
   1    -45.6197438 -0.456197E+02  0.324E-02    8.22       0.0  T
   2    -45.6197440 -0.146224E-06  0.239E-02    8.22       1.0  T
   3    -45.6197441 -0.137952E-06  0.323E-03    8.22       6.5  T
   4    -45.6197441 -0.111891E-07  0.821E-04    8.22      25.4  T
   5    -45.6197441 -0.992912E-09  0.305E-04    8.22      68.3  T
speedup  0.81
cpu  time for SCC    0.00 s
wall time for SCC    0.00 s
speedup  0.94
cpu  time for grad    0.01 s
wall time for grad    0.01 s
 E :    -45.36286593  G :  0.001712    pred/act E change: -0.148D-04 -0.833D-05
Maxdispl :   0.0422   ||displ|| :   0.0651   Lambda : -0.122D-04
Largest |displ|/coords:  0.0422 (   1)  0.0321 (   6)  0.0214 (  11)

generating ANC from model Hessian ...
 Shifting diagonal of input Hessian by   5.241561872323962E-003
 Lowest  eigenvalues of input Hessian
    0.005000   -0.000000   -0.000000    0.000000    0.000000    0.000000
    0.000000    0.005317    0.005625    0.005793    0.005821    0.006191
    0.006808    0.007237    0.007954    0.009340    0.011521    0.012575
 Highest eigenvalues
    1.375176    1.392545    1.399727    2.635383    3.220878    3.830641
 
cpu  time for ANC gen    0.01 s
wall time for ANC gen    0.01 s
................................................................................
.............................. CYCLE   53 ......................................
................................................................................
   1    -45.6200213 -0.456200E+02  0.359E-02    8.22       0.0  T
   2    -45.6200214 -0.139374E-06  0.267E-02    8.22       1.0  T
   3    -45.6200215 -0.140760E-06  0.320E-03    8.22       6.5  T
   4    -45.6200216 -0.101276E-07  0.901E-04    8.22      23.1  T
   5    -45.6200216 -0.837083E-09  0.297E-04    8.22      70.2  T
speedup  1.05
cpu  time for SCC    0.00 s
wall time for SCC    0.00 s
speedup  1.03
cpu  time for grad    0.01 s
wall time for grad    0.01 s
 E :    -45.36287436  G :  0.001642    pred/act E change:  0.000D+00 -0.843D-05
Maxdispl :   0.0286   ||displ|| :   0.0342   Lambda : -0.123D-04
Largest |displ|/coords:  0.0286 (   3)  0.0066 (   4)  0.0063 (  12)
................................................................................
.............................. CYCLE   54 ......................................
................................................................................
   1    -45.6202425 -0.456202E+02  0.227E-02    8.23       0.0  T
   2    -45.6202426 -0.776396E-07  0.171E-02    8.23       1.2  T
   3    -45.6202426 -0.868371E-07  0.155E-03    8.22      13.5  T
   4    -45.6202426 -0.782795E-08  0.616E-04    8.22      33.8  T
   5    -45.6202426 -0.433531E-09  0.230E-04    8.22      90.6  T
speedup  1.03
cpu  time for SCC    0.00 s
wall time for SCC    0.00 s
speedup  1.02
cpu  time for grad    0.01 s
wall time for grad    0.01 s
 E :    -45.36288204  G :  0.000958    pred/act E change:  0.000D+00 -0.768D-05
Maxdispl :   0.0265   ||displ|| :   0.0439   Lambda : -0.880D-05
Largest |displ|/coords:  0.0265 (   1)  0.0241 (   3)  0.0137 (   9)
................................................................................
.............................. CYCLE   55 ......................................
................................................................................
   1    -45.6204244 -0.456204E+02  0.199E-02    8.23       0.0  T
   2    -45.6204244 -0.742617E-07  0.148E-02    8.23       1.4  T
   3    -45.6204245 -0.442676E-07  0.200E-03    8.23      10.4  T
   4    -45.6204245 -0.117880E-07  0.576E-04    8.23      36.2  T
   5    -45.6204245 -0.358021E-09  0.179E-04    8.23     116.2  T
speedup  1.05
cpu  time for SCC    0.00 s
wall time for SCC    0.00 s
speedup  0.93
cpu  time for grad    0.01 s
wall time for grad    0.01 s
 E :    -45.36288838  G :  0.000760    pred/act E change: -0.614D-05 -0.634D-05
Maxdispl :   0.0511   ||displ|| :   0.0777   Lambda : -0.948D-05
Largest |displ|/coords:  0.0511 (   1)  0.0425 (   3)  0.0227 (   9)
................................................................................
.............................. CYCLE   56 ......................................
................................................................................
   1    -45.6204089 -0.456204E+02  0.320E-02    8.23       0.0  T
   2    -45.6204090 -0.128373E-06  0.240E-02    8.23       1.0  T
   3    -45.6204091 -0.106874E-06  0.233E-03    8.23       8.9  T
   4    -45.6204092 -0.158418E-07  0.753E-04    8.23      27.7  T
   5    -45.6204092 -0.531202E-09  0.294E-04    8.23      70.9  T
speedup  1.05
cpu  time for SCC    0.00 s
wall time for SCC    0.00 s
speedup  1.03
cpu  time for grad    0.01 s
wall time for grad    0.01 s
 E :    -45.36289500  G :  0.000902    pred/act E change: -0.441D-05 -0.662D-05
Maxdispl :   0.0653   ||displ|| :   0.0920   Lambda : -0.792D-05
Largest |displ|/coords:  0.0653 (   1)  0.0480 (   3)  0.0204 (   2)
................................................................................
.............................. CYCLE   57 ......................................
................................................................................
   1    -45.6201956 -0.456202E+02  0.339E-02    8.23       0.0  T
   2    -45.6201957 -0.109915E-06  0.255E-02    8.23       1.0  T
   3    -45.6201958 -0.112003E-06  0.194E-03    8.23      10.8  T
   4    -45.6201959 -0.854254E-08  0.613E-04    8.23      34.0  T
   5    -45.6201959 -0.262666E-09  0.274E-04    8.23      76.1  T
speedup  1.05
cpu  time for SCC    0.00 s
wall time for SCC    0.00 s
speedup  1.03
cpu  time for grad    0.01 s
wall time for grad    0.01 s
 E :    -45.36290086  G :  0.000956    pred/act E change: -0.477D-05 -0.586D-05
Maxdispl :   0.0893   ||displ|| :   0.1237   Lambda : -0.930D-05
Largest |displ|/coords:  0.0893 (   1)  0.0651 (   3)  0.0314 (   2)
................................................................................
.............................. CYCLE   58 ......................................
................................................................................
   1    -45.6198280 -0.456198E+02  0.456E-02    8.23       0.0  T
   2    -45.6198282 -0.176325E-06  0.342E-02    8.24       1.0  T
   3    -45.6198284 -0.193420E-06  0.251E-03    8.24       8.3  T
   4    -45.6198284 -0.113013E-07  0.745E-04    8.24      28.0  T
   5    -45.6198284 -0.503093E-09  0.372E-04    8.24      56.0  T
speedup  0.79
cpu  time for SCC    0.00 s
wall time for SCC    0.00 s
speedup  0.96
cpu  time for grad    0.01 s
wall time for grad    0.01 s
 E :    -45.36290755  G :  0.001224    pred/act E change: -0.400D-05 -0.669D-05
Maxdispl :   0.0871   ||displ|| :   0.1217   Lambda : -0.905D-05
Largest |displ|/coords:  0.0871 (   1)  0.0648 (   3)  0.0327 (   2)
................................................................................
.............................. CYCLE   59 ......................................
................................................................................
   1    -45.6195571 -0.456196E+02  0.445E-02    8.24       0.0  T
   2    -45.6195573 -0.181323E-06  0.333E-02    8.24       1.0  T
   3    -45.6195575 -0.179193E-06  0.307E-03    8.24       6.8  T
   4    -45.6195575 -0.157165E-07  0.108E-03    8.24      19.3  T
   5    -45.6195575 -0.106090E-08  0.352E-04    8.24      59.2  T
   6    -45.6195575 -0.106262E-09  0.198E-04    8.24     105.6  T
speedup  0.89
cpu  time for SCC    0.00 s
wall time for SCC    0.00 s
speedup  0.96
cpu  time for grad    0.01 s
wall time for grad    0.01 s
 E :    -45.36291416  G :  0.001388    pred/act E change: -0.472D-05 -0.661D-05
Maxdispl :   0.0782   ||displ|| :   0.1153   Lambda : -0.884D-05
Largest |displ|/coords:  0.0782 (   1)  0.0639 (   3)  0.0345 (   2)
................................................................................
.............................. CYCLE   60 ......................................
................................................................................
   1    -45.6194379 -0.456194E+02  0.451E-02    8.24       0.0  T
   2    -45.6194382 -0.222021E-06  0.337E-02    8.24       1.0  T
   3    -45.6194384 -0.214201E-06  0.375E-03    8.24       5.6  T
   4    -45.6194384 -0.214436E-07  0.145E-03    8.24      14.4  T
   5    -45.6194384 -0.191640E-08  0.389E-04    8.24      53.6  T
   6    -45.6194384 -0.145050E-09  0.240E-04    8.24      86.9  T
speedup  1.11
cpu  time for SCC    0.00 s
wall time for SCC    0.00 s
speedup  0.96
cpu  time for grad    0.01 s
wall time for grad    0.01 s
 E :    -45.36292043  G :  0.001276    pred/act E change: -0.459D-05 -0.627D-05
Maxdispl :   0.0570   ||displ|| :   0.0946   Lambda : -0.644D-05
Largest |displ|/coords:  0.0570 (   1)  0.0557 (   3)  0.0292 (   2)
................................................................................
.............................. CYCLE   61 ......................................
................................................................................
   1    -45.6194988 -0.456195E+02  0.372E-02    8.24       0.0  T
   2    -45.6194990 -0.193230E-06  0.278E-02    8.24       1.0  T
   3    -45.6194992 -0.163619E-06  0.346E-03    8.24       6.0  T
   4    -45.6194992 -0.233193E-07  0.157E-03    8.24      13.3  T
   5    -45.6194992 -0.192136E-08  0.346E-04    8.24      60.3  T
   6    -45.6194992 -0.125894E-09  0.219E-04    8.24      95.1  T
speedup  1.09
cpu  time for SCC    0.00 s
wall time for SCC    0.00 s
speedup  1.05
cpu  time for grad    0.01 s
wall time for grad    0.01 s
 E :    -45.36292505  G :  0.001009    pred/act E change: -0.448D-05 -0.462D-05
Maxdispl :   0.0612   ||displ|| :   0.0995   Lambda : -0.513D-05
Largest |displ|/coords:  0.0612 (   3)  0.0570 (   1)  0.0324 (   2)
................................................................................
.............................. CYCLE   62 ......................................
................................................................................
   1    -45.6195557 -0.456196E+02  0.384E-02    8.24       0.0  T
   2    -45.6195559 -0.205193E-06  0.288E-02    8.24       1.0  T
   3    -45.6195561 -0.192694E-06  0.337E-03    8.24       6.2  T
   4    -45.6195561 -0.231164E-07  0.165E-03    8.24      12.6  T
   5    -45.6195561 -0.214587E-08  0.366E-04    8.24      56.9  T
   6    -45.6195561 -0.152468E-09  0.238E-04    8.24      87.8  T
speedup  0.83
cpu  time for SCC    0.00 s
wall time for SCC    0.00 s
speedup  1.03
cpu  time for grad    0.01 s
wall time for grad    0.01 s
 E :    -45.36292866  G :  0.000827    pred/act E change: -0.325D-05 -0.361D-05
Maxdispl :   0.0410   ||displ|| :   0.0670   Lambda : -0.359D-05
Largest |displ|/coords:  0.0410 (   3)  0.0319 (   1)  0.0235 (   2)
................................................................................
.............................. CYCLE   63 ......................................
................................................................................
   1    -45.6198496 -0.456198E+02  0.239E-02    8.24       0.0  T
   2    -45.6198497 -0.121419E-06  0.179E-02    8.24       1.2  T
   3    -45.6198498 -0.904227E-07  0.243E-03    8.24       8.6  T
   4    -45.6198498 -0.179262E-07  0.120E-03    8.24      17.3  T
   5    -45.6198498 -0.119852E-08  0.260E-04    8.24      80.1  T
   6    -45.6198498 -0.102382E-09  0.153E-04    8.24     136.6  T
speedup  1.11
cpu  time for SCC    0.00 s
wall time for SCC    0.00 s
speedup  1.05
cpu  time for grad    0.01 s
wall time for grad    0.01 s
 E :    -45.36293099  G :  0.000695    pred/act E change: -0.259D-05 -0.234D-05
Maxdispl :   0.0448   ||displ|| :   0.0708   Lambda : -0.202D-05
Largest |displ|/coords:  0.0448 (   3)  0.0375 (   1)  0.0255 (   2)
................................................................................
.............................. CYCLE   64 ......................................
................................................................................
   1    -45.6198071 -0.456198E+02  0.257E-02    8.24       0.0  T
   2    -45.6198072 -0.818950E-07  0.193E-02    8.24       1.1  T
   3    -45.6198073 -0.880430E-07  0.194E-03    8.24      10.8  T
   4    -45.6198073 -0.776615E-08  0.867E-04    8.24      24.1  T
   5    -45.6198073 -0.724754E-09  0.244E-04    8.24      85.4  T
speedup  0.79
cpu  time for SCC    0.00 s
wall time for SCC    0.00 s
speedup  0.93
cpu  time for grad    0.01 s
wall time for grad    0.01 s
 E :    -45.36293213  G :  0.000664    pred/act E change: -0.181D-05 -0.114D-05
Maxdispl :   0.0068   ||displ|| :   0.0142   Lambda : -0.114D-05
Largest |displ|/coords:  0.0068 (   2)  0.0062 (   4)  0.0051 (   1)
................................................................................
.............................. CYCLE   65 ......................................
................................................................................
   1    -45.6200320 -0.456200E+02  0.729E-03    8.24       0.0  T
   2    -45.6200320 -0.174017E-07  0.547E-03    8.24       3.8  T
   3    -45.6200320 -0.128062E-07  0.854E-04    8.24      24.4  T
   4    -45.6200320 -0.245895E-08  0.287E-04    8.24      72.6  T
speedup  0.97
cpu  time for SCC    0.00 s
wall time for SCC    0.00 s
speedup  1.01
cpu  time for grad    0.01 s
wall time for grad    0.01 s
 E :    -45.36293283  G :  0.000518    pred/act E change: -0.101D-05 -0.698D-06
Maxdispl :   0.0097   ||displ|| :   0.0163   Lambda : -0.685D-06
Largest |displ|/coords:  0.0097 (   2)  0.0066 (   3)  0.0056 (   8)
................................................................................
.............................. CYCLE   66 ......................................
................................................................................
   1    -45.6200164 -0.456200E+02  0.742E-03    8.24       0.0  T
   2    -45.6200164 -0.922572E-08  0.553E-03    8.24       3.8  T
   3    -45.6200164 -0.921663E-08  0.522E-04    8.24      39.9  T
   4    -45.6200164 -0.785604E-09  0.256E-04    8.24      81.5  T
speedup  0.97
cpu  time for SCC    0.00 s
wall time for SCC    0.00 s
speedup  1.00
cpu  time for grad    0.01 s
wall time for grad    0.01 s
 E :    -45.36293334  G :  0.000325    pred/act E change: -0.570D-06 -0.505D-06
Maxdispl :   0.0108   ||displ|| :   0.0162   Lambda : -0.577D-06
Largest |displ|/coords:  0.0108 (   2)  0.0062 (   1)  0.0047 (   8)
................................................................................
.............................. CYCLE   67 ......................................
................................................................................
   1    -45.6199867 -0.456200E+02  0.836E-03    8.24       0.0  T
   2    -45.6199867 -0.126742E-07  0.622E-03    8.24       3.3  T
   3    -45.6199867 -0.106581E-07  0.642E-04    8.24      32.5  T
   4    -45.6199867 -0.134371E-08  0.279E-04    8.24      74.8  T
speedup  0.91
cpu  time for SCC    0.00 s
wall time for SCC    0.00 s
speedup  0.98
cpu  time for grad    0.01 s
wall time for grad    0.01 s
 E :    -45.36293372  G :  0.000262    pred/act E change: -0.343D-06 -0.381D-06
Maxdispl :   0.0081   ||displ|| :   0.0117   Lambda : -0.222D-06
Largest |displ|/coords:  0.0081 (   2)  0.0037 (   5)  0.0031 (   1)
................................................................................
.............................. CYCLE   68 ......................................
................................................................................
   1    -45.6199515 -0.456200E+02  0.566E-03    8.24       0.0  T
   2    -45.6199515 -0.413411E-08  0.423E-03    8.24       4.9  T
   3    -45.6199515 -0.432298E-08  0.347E-04    8.24      60.1  T
   4    -45.6199515 -0.307786E-09  0.105E-04    8.24     198.6  T
speedup  0.97
cpu  time for SCC    0.00 s
wall time for SCC    0.00 s
speedup  1.00
cpu  time for grad    0.01 s
wall time for grad    0.01 s
 E :    -45.36293389  G :  0.000288    pred/act E change: -0.289D-06 -0.172D-06
Maxdispl :   0.0129   ||displ|| :   0.0181   Lambda : -0.287D-06
Largest |displ|/coords:  0.0129 (   2)  0.0058 (   5)  0.0048 (   1)
................................................................................
.............................. CYCLE   69 ......................................
................................................................................
   1    -45.6199235 -0.456199E+02  0.886E-03    8.24       0.0  T
   2    -45.6199235 -0.977964E-08  0.664E-03    8.24       3.1  T
   3    -45.6199235 -0.101798E-07  0.582E-04    8.24      35.8  T
   4    -45.6199235 -0.786343E-09  0.252E-04    8.24      82.7  T
speedup  1.00
cpu  time for SCC    0.00 s
wall time for SCC    0.00 s
speedup  1.01
cpu  time for grad    0.01 s
wall time for grad    0.01 s
 E :    -45.36293409  G :  0.000260    pred/act E change: -0.111D-06 -0.198D-06
Maxdispl :   0.0083   ||displ|| :   0.0112   Lambda : -0.175D-06
Largest |displ|/coords:  0.0083 (   2)  0.0043 (   5)  0.0040 (   1)
................................................................................
.............................. CYCLE   70 ......................................
................................................................................
   1    -45.6199126 -0.456199E+02  0.584E-03    8.24       0.0  T
   2    -45.6199126 -0.415596E-08  0.437E-03    8.24       4.8  T
   3    -45.6199126 -0.339684E-08  0.441E-04    8.24      47.2  T
   4    -45.6199126 -0.489898E-09  0.205E-04    8.24     101.7  T
speedup  0.91
cpu  time for SCC    0.00 s
wall time for SCC    0.00 s
speedup  0.99
cpu  time for grad    0.01 s
wall time for grad    0.01 s
 E :    -45.36293422  G :  0.000177    pred/act E change: -0.143D-06 -0.136D-06
Maxdispl :   0.0134   ||displ|| :   0.0173   Lambda : -0.216D-06
Largest |displ|/coords:  0.0134 (   2)  0.0069 (   5)  0.0048 (   3)
................................................................................
.............................. CYCLE   71 ......................................
................................................................................
   1    -45.6198997 -0.456199E+02  0.866E-03    8.24       0.0  T
   2    -45.6198997 -0.103100E-07  0.646E-03    8.24       3.2  T
   3    -45.6198997 -0.833248E-08  0.756E-04    8.24      27.6  T
   4    -45.6198997 -0.119336E-08  0.346E-04    8.24      60.2  T
speedup  0.97
cpu  time for SCC    0.00 s
wall time for SCC    0.00 s
speedup  1.00
cpu  time for grad    0.01 s
wall time for grad    0.01 s
 E :    -45.36293437  G :  0.000129    pred/act E change: -0.874D-07 -0.149D-06
Maxdispl :   0.0050   ||displ|| :   0.0064   Lambda : -0.853D-07
Largest |displ|/coords:  0.0050 (   2)  0.0026 (   5)  0.0012 (   3)
................................................................................
.............................. CYCLE   72 ......................................
................................................................................
   1    -45.6199086 -0.456199E+02  0.308E-03    8.24       0.0  T
   2    -45.6199086 -0.150334E-08  0.228E-03    8.24       9.1  T
   3    -45.6199086 -0.113714E-08  0.314E-04    8.24      66.4  T
   4    -45.6199086 -0.157996E-09  0.120E-04    8.24     173.7  T
speedup  1.29
cpu  time for SCC    0.00 s
wall time for SCC    0.00 s
speedup  1.00
cpu  time for grad    0.01 s
wall time for grad    0.01 s
 E :    -45.36293444  G :  0.000123    pred/act E change: -0.108D-06 -0.659D-07
Maxdispl :   0.0118   ||displ|| :   0.0146   Lambda : -0.982D-07
Largest |displ|/coords:  0.0118 (   2)  0.0056 (   3)  0.0053 (   5)

   *** GEOMETRY OPTIMIZATION CONVERGED AFTER 72 ITERATIONS ***

------------------------------------------------------------------------
 total energy gain (kcal):     -0.0377
------------------------------------------------------------------------
================
 final structure:
================
$coord
       -1.71119952640021       -0.54509507648732       -0.71582756867290      S 
       -1.45566571320276        1.44849963773559        1.40455459496579      O 
        0.98176900691327       -0.67330348444471       -1.84218875293002      O 
       -2.24545719142894       -2.97319377464832        0.37866834877897      O 
       -3.44108648327467        0.37412403821651       -2.56729503773188      O 
        3.50671888731609       -3.15010777909265        4.77504189462528      O 
        4.09630892645105       -4.39908014018154        5.94704729586262      H 
       -1.16334255234782       -1.40833377140468        5.17411754678186      O 
       -2.00190994928533       -2.73331771985286        4.23715668206328      H 
        0.63932017719155       -1.90909755195757        5.25663096948101      H 
       -1.31229470517288        0.48450318779253        3.09660588117111      H 
        1.89928588769988        3.98964141019699       -2.08571362713247      O 
        1.54071833548095        1.17300585944074       -2.08468877002370      H 
        0.52542222049817        4.58774675342398       -3.25510851782315      H 
        1.36035932229675        4.43813695408966       -0.40874417349570      H 
        2.26476654814125       -5.34130484582021        0.41296451959063      O 
        3.06253353599746       -4.44861532353363       -0.95241110451986      H 
        3.24359484740375       -4.03359553582817        3.15363034467347      H 
        0.50263760870732       -4.80520894379807        0.35554115208778      H 
       -2.10589984548393        5.04395268828618       -4.85520199629572      N 
       -1.97472423636076        4.95512769402967       -6.76120370375602      H 
       -3.25847283444126        6.50596341561512       -4.41576960941437      H 
       -2.95338228558638        3.41955230818253       -4.24780634936617      H 
$end
 
 Bond Distances (Angstroems)
 ---------------------------
S1-O2=1.5460         S1-O3=1.5462         S1-O4=1.4375         S1-O5=1.4264         O2-S1=1.5460         O2-H11=1.0333        
O3-S1=1.5462         O3-H13=1.0289        O4-S1=1.4375         O5-S1=1.4264         O6-H7=0.9585         O6-H18=0.9870        
H7-O6=0.9585         O8-H9=0.9666         O8-H10=0.9910        H9-O8=0.9666         H10-O8=0.9910        H11-O2=1.0333        
O12-H14=1.0058       O12-H15=0.9619       H13-O3=1.0289        H14-O12=1.0058       H15-O12=0.9619       O16-H17=0.9609       
O16-H19=0.9752       H17-O16=0.9609       H18-O6=0.9870        H19-O16=0.9752       N20-H21=1.0121       N20-H22=1.0122       
N20-H23=1.0214       H21-N20=1.0121       H22-N20=1.0122       H23-N20=1.0214       
 N  H  Rav=1.0153 sigma=0.0044  Rmin=1.0121  Rmax=1.0214     3
 O  H  Rav=0.9869 sigma=0.0263  Rmin=0.9585  Rmax=1.0333    10
 S  O  Rav=1.4890 sigma=0.0572  Rmin=1.4264  Rmax=1.5462     4
 
 selected bond angles (degree)
 --------------------
O3-S1-O2=103.24                O4-S1-O2=109.56                O4-S1-O3=107.30                O5-S1-O2=108.78                
O5-S1-O3=109.98                O5-S1-O4=117.09                H11-O2-S1=107.36               H13-O3-S1=105.75               
H18-O6-H7=106.37               H10-O8-H9=105.70               
 
 selected dihedral angles (degree)
 ---------------------------------
H11-O2-S1-O3=259.06           H11-O2-S1-O4= 13.13           H11-O2-S1-O5=142.26           H13-O3-S1-O2=313.49           
H13-O3-S1-O4=197.80           H13-O3-S1-O5= 69.43           
 
 CMA Distance (Angstroems)
 ---------------------------
R(CMA):  1.4971

========================================================================
 FINAL SINGLEPOINT CALCULATION ON OPTIMIZED GEOMETRY
========================================================================

 Ncao       : 59
 Nao        : 58
 Nshell     : 34
 Nel        : 72
 T(el)      :   300.0
 intcut     :    25.0
 scfconv/Eh :  0.100E-05
   qconv/e  :  0.100E-03
 intneglect :  0.100E-07
 broydamp   :      0.250
 iter      E             dE          RMSdq      gap      omega  full diag
   1    -45.6199086 -0.456199E+02  0.513E-05    8.24       0.0  T
   2    -45.6199086 -0.909495E-12  0.326E-05    8.24     640.2  T
   3    -45.6199086 -0.582645E-12  0.401E-06    8.24    5199.7  T
speedup  0.87
cpu  time for SCC    0.00 s
wall time for SCC    0.00 s

   *** convergence criteria satisfied after 3 iterations ***

          eigenvalues
 #    :          24         25         26         27         28         29         30         31
 occ. :        2.000      2.000      2.000      2.000      2.000      2.000      2.000      2.000
 eps  :       -14.083    -13.820    -13.478    -13.434    -12.903    -12.830    -12.693    -12.458
 #    :          32         33         34         35         36         37         38         39
 occ. :        2.000      2.000      2.000      2.000      2.000      0.000      0.000      0.000
 eps  :       -12.422    -12.313    -12.184    -12.101    -11.273     -3.029     -0.946     -0.340
 #    :          40         41         42         43         44         45         46         47
 occ. :        0.000      0.000      0.000      0.000      0.000      0.000      0.000      0.000
 eps  :         0.415      0.733      0.938      2.442      2.804      3.895      5.142      5.418


   #   Z            q   n(s)   n(p)   n(d)      C6AA      α(0)
   1  16 S      1.706  1.581  1.775  0.938    88.628    15.845
   2   8 O     -0.641  1.762  4.879  0.000    26.176     6.906
   3   8 O     -0.633  1.759  4.874  0.000    25.964     6.878
   4   8 O     -0.705  1.757  4.948  0.000    28.854     7.202
   5   8 O     -0.681  1.755  4.926  0.000    28.198     7.120
   6   8 O     -0.615  1.751  4.865  0.000    25.558     6.823
   7   1 H      0.286  0.714  0.000  0.000     0.763     1.372
   8   8 O     -0.601  1.756  4.845  0.000    25.191     6.775
   9   1 H      0.315  0.685  0.000  0.000     0.677     1.293
  10   1 H      0.346  0.654  0.000  0.000     0.597     1.214
  11   1 H      0.392  0.608  0.000  0.000     0.495     1.103
  12   8 O     -0.601  1.752  4.848  0.000    25.198     6.775
  13   1 H      0.390  0.610  0.000  0.000     0.498     1.106
  14   1 H      0.330  0.670  0.000  0.000     0.637     1.253
  15   1 H      0.304  0.696  0.000  0.000     0.709     1.323
  16   8 O     -0.601  1.740  4.861  0.000    25.216     6.777
  17   1 H      0.299  0.701  0.000  0.000     0.724     1.337
  18   1 H      0.330  0.670  0.000  0.000     0.637     1.254
  19   1 H      0.318  0.682  0.000  0.000     0.669     1.285
  20   7 N     -0.455  1.368  4.087  0.000    31.963     8.396
  21   1 H      0.160  0.840  0.000  0.000     1.337     1.811
  22   1 H      0.159  0.841  0.000  0.000     1.344     1.816
  23   1 H      0.198  0.802  0.000  0.000     1.114     1.654

 Mol. C6AA /au·bohr⁶  :       4504.970329
 Mol. C8AA /au·bohr⁸  :      98927.048650
 Mol. α(0) /au        :         97.318376

 
 Wiberg/Mayer (AO) data. WBOs > 0.1 written file <wbo>
 largest (>0.05) Wiberg bond orders for each atom
           total WBO             WBO to atom ...
     1  S   4.831    O    5 1.427    O    4 1.381    O    2 0.995    O    3 0.993
     2  O   1.950    S    1 0.995    H   11 0.652    O    4 0.090    O    5 0.083    O    3 0.066    O    8 0.056
     3  O   1.956    S    1 0.993    H   13 0.661    O    5 0.095    O    4 0.075    O    2 0.066    O   12 0.055
     4  O   1.760    S    1 1.381    O    5 0.118    O    2 0.090    O    3 0.075
     5  O   1.776    S    1 1.427    O    4 0.118    O    3 0.095    O    2 0.083
     6  O   1.877    H    7 0.914    H   18 0.816    H   10 0.076
     7  H   0.918    O    6 0.914
     8  O   1.973    H    9 0.884    H   10 0.802    H   11 0.179    O    2 0.056
     9  H   0.901    O    8 0.884
    10  H   0.880    O    8 0.802    O    6 0.076
    11  H   0.846    O    2 0.652    O    8 0.179
    12  O   1.963    H   15 0.902    H   14 0.775    H   13 0.169    O    3 0.055    N   20 0.050
    13  H   0.848    O    3 0.661    O   12 0.169
    14  H   0.891    O   12 0.775    N   20 0.114
    15  H   0.908    O   12 0.902
    16  O   1.890    H   17 0.904    H   19 0.851    H   18 0.073
    17  H   0.911    O   16 0.904
    18  H   0.891    O    6 0.816    O   16 0.073
    19  H   0.899    O   16 0.851
    20  N   3.058    H   21 0.972    H   22 0.971    H   23 0.928    H   14 0.114    O   12 0.050
    21  H   0.974    N   20 0.972
    22  H   0.975    N   20 0.971
    23  H   0.961    N   20 0.928
 MOs/occ written to file <molden.input>
 
molecular dipole:
                 x           y           z       tot (Debye)
 q only:        0.482       0.751       0.002
   full:        0.129       0.682      -0.250       1.876
molecular quadrupole (traceless):
                xx          xy          yy          xz          yz          zz
 q only:       -6.631      -5.953       3.326       1.442      -8.400       3.305
  q+dip:       -6.963      -9.387       3.655       4.852     -10.650       3.309
   full:       -7.198      -9.452       3.560       4.672     -10.647       3.637

SCC energy    :     -45.6199086
rep           :       0.2568857
ES            :       0.2007515
AES           :      -0.0473701
AXC           :      -0.0068167
disp          :      -0.0159795
XB            :       0.0000000
fix           :       0.0000000
total E       :     -45.3629344
atomizationE  :       4.4459969     2789.91
(atE without considering molecular charge,
 total energy contains solvation terms)
H-L gap (eV)  :          8.2432
optimized geometry written to: xtbopt.xyz


------------------------------------------------------------------------
 * finished run on 2019/09/16 at 11:34:55.163     
------------------------------------------------------------------------
 total:
 * wall-time:     0 d,  0 h,  0 min,  1.544 sec
 *  cpu-time:     0 d,  0 h,  0 min,  1.435 sec
 * ratio c/w:     0.930 speedup
 SCF:
 * wall-time:     0 d,  0 h,  0 min,  0.130 sec
 *  cpu-time:     0 d,  0 h,  0 min,  0.127 sec
 * ratio c/w:     0.978 speedup
 ANC optimizer:
 * wall-time:     0 d,  0 h,  0 min,  1.388 sec
 *  cpu-time:     0 d,  0 h,  0 min,  1.285 sec
 * ratio c/w:     0.926 speedup

