      -----------------------------------------------------------      
     |                   =====================                   |     
     |                           x T B                           |     
     |                   =====================                   |     
     |                         S. Grimme                         |     
     |          Mulliken Center for Theoretical Chemistry        |     
     |                    University of Bonn                     |     
     |                 Version 6.0.1 (SAW181210)                 |     
      -----------------------------------------------------------      

   This program is distributed in the hope that it will be useful,
   but WITHOUT ANY WARRANTY; without even the implied warranty of
   MERCHANTABILITY or FITNESS FOR A PARTICULAR PURPOSE.
   
   FOR NON-COMMERCIAL, ACADEMIA USE ONLY.
   
   Cite this work as:
   S. Grimme, C. Bannwarth, P. Shushkov, J. Comput. Theory Chem., 2017,
   13, 1989-2009.
   C. Bannwarth, S. Ehlert and S. Grimme., ChemRxiv, 2018, preprint.
   http://doi.org/10.26434/chemrxiv.7246238.v1
   
   for sTDA-xTB:
   S. Grimme and C. Bannwarth, J. Chem. Phys., 2016, 145, 054103.
   
   in the mass-spec context:
   V. Asgeirsson, C. Bauer and S. Grimme, Chem. Sci., 2017, 8, 4879.
   
   if GBSA is used:
   P. Shushkov, F. März and S. Grimme, unpublished.
   
   for ANC optimizer:
   S. Grimme, unpublished.
   Rational Function algorithm used in ANCopt:
   F. Eckert, P. Pulay, H.-J. Werner, J. Comput. Chem., 1997, 18, 1473.
   
   with help from (in alphabetical order)
   C. Bannwarth, F. Bohle, G. Brandenburg, E. Caldeweyher, M. Checinski,
   S. Dohm, S. Ehlert, S. Ehrlich, F. März, H. Neugebauer, J. Pisarek,
   P. Pracht, P. Shushkov, and S. Spicher.
   
 * started run on 2019/09/16 at 11:51:44.992     
========================================================================
 # omp threads = 1
========================================================================
number of atoms            : 23
number of electrons        : 72
charge                     : 0
spin                       : .0
first test random number   : .0961

########################################################################
# WARNING! Please study the warnings concerning your input carefully
#  - XTBPATH is not set, using XTBHOME instead
#  - the use of '-opt' is discouraged, please use '--opt' next time
#  - the use of '-chrg' is discouraged, please use '--chrg' next time
#  - the use of '-uhf' is discouraged, please use '--uhf' next time
########################################################################

           ------------------------------------------------- 
          |                 G F N 2 - x T B                 |
          | Geometry, Frequencies, Noncovalent interactions |
          |            JCTC 2018 parametrisation            |
           ------------------------------------------------- 
      method parameters     
 k(s)        :  1.8500
 k(p)        :  2.2300
 k(d)        :  2.2300
 k(f)        :  2.0000
 kEN (H0ij)  : -2.0000
 D4 a1       :  0.5200
 D4 a2       :  5.0000
 D4 s6       :  1.0000
 D4 s8       :  2.7000
 D4 s9       :  5.0000
 alphaj      :  2.0000


            Z     q(EN)     CN     RAES       Cart. coordinates
     1  S   6.0    0.68    4.11    3.88    -0.78965     2.91248    -2.21177
     2  O   6.0   -0.26    1.11    1.80    -0.51732     4.97635    -4.10766
     3  O   6.0   -0.31    1.22    1.80    -3.49947     2.17463    -2.01033
     4  O   6.0   -0.33    1.25    1.80     0.73148     0.68620    -3.02289
     5  O   6.0   -0.31    1.22    1.80     0.12670     3.81276     0.29381
     6  O   6.0   -0.40    1.68    1.81    -1.58800    -2.05750     2.69888
     7  H   1.0    0.17    0.95    1.42    -1.81218    -3.39971     3.97637
     8  O   6.0   -0.22    2.92    2.58    -4.14417     1.75686     2.82001
     9  H   1.0    0.13    0.96    1.43    -3.24714     3.16870     3.65179
    10  H   1.0    0.15    1.07    1.44    -4.50936     2.12012     1.02426
    11  H   1.0    0.16    1.17    1.46    -3.24485     0.13321     3.03561
    12  O   6.0   -0.22    2.93    2.61     2.46785     0.09740     2.43428
    13  H   1.0    0.15    1.07    1.44     1.99992     1.81664     1.87296
    14  H   1.0    0.16    1.16    1.46     0.96779    -0.97952     2.71722
    15  H   1.0    0.12    1.06    1.44     3.69643    -0.70558     1.27784
    16  O   6.0   -0.22    2.92    2.58    -2.18688    -3.03091    -1.74722
    17  H   1.0    0.13    0.96    1.43    -3.91204    -2.58730    -2.31014
    18  H   1.0    0.15    1.07    1.44    -0.88158    -2.03474    -2.63820
    19  H   1.0    0.16    1.17    1.46    -2.00629    -2.91764     0.10913
    20  N   5.0   -0.22    3.04    1.93     5.45321    -1.52611    -1.41979
    21  H   1.0    0.13    1.02    1.43     4.06124    -0.71669    -2.47731
    22  H   1.0    0.11    0.99    1.43     5.80389    -3.23519    -2.23656
    23  H   1.0    0.11    0.99    1.43     7.03041    -0.46446    -1.73029

  Z AO/shell   Hii/eV     exponent
  1     Wed Apr 25 08:07:45 CEST 2018   EN: 2.200 GM2: 0.406  GM3: 0.0800  RAES: 1.40
     1s    -10.707211    1.230000
  7     Wed Apr 25 08:07:45 CEST 2018   EN: 3.040 GM2: 0.461  GM3:-0.0640  RAES: 1.90
     2s    -16.686243    2.339881
     2p    -12.523956    2.014332
  8     Wed Apr 25 08:07:45 CEST 2018   EN: 3.440 GM2: 0.452  GM3:-0.0517  RAES: 1.80
     2s    -20.229985    2.439742
     2p    -15.503117    2.137023
 16     Tue Apr 24 11:44:34 CEST 2018   EN: 2.580 GM2: 0.340  GM3:-0.0502  RAES: 3.10
     3s    -20.029654    1.981333
     3p    -11.377694    2.025643
     3d     -0.420282    1.702555
 no old-style atom pair restraining (fixing) potential

molecular fragmentation (1/2 indicates fragments):
11111222222222222222222
# atoms in fragment 1/2:     5    18
 fragment masses (1/2) :       96.06       91.11
CMA distance (Bohr)    :   5.007
constraining FC (au)   :  0.0500
           ------------------------------------------------- 
          |        Self-Consistent Charge Iterations        |
           ------------------------------------------------- 

 Ncao       : 59
 Nao        : 58
 Nshell     : 34
 Nel        : 72
 T(el)      :   300.0
 intcut     :    25.0
 scfconv/Eh :  0.100E-05
   qconv/e  :  0.100E-03
 intneglect :  0.100E-07
 broydamp   :      0.250
 iter      E             dE          RMSdq      gap      omega  full diag
   1    -45.4127393 -0.454127E+02  0.712E+00   10.29       0.0  T
   2    -45.4485528 -0.358135E-01  0.513E+00    9.68       1.0  T
   3    -45.4777050 -0.291522E-01  0.116E+00    6.39       1.0  T
   4    -45.4820844 -0.437941E-02  0.477E-01    6.56       1.0  T
   5    -45.4824161 -0.331738E-03  0.299E-01    6.37       1.0  T
   6    -45.4827786 -0.362519E-03  0.129E-01    6.41       1.0  T
   7    -45.4828649 -0.862911E-04  0.539E-02    6.50       1.0  T
   8    -45.4828781 -0.131962E-04  0.299E-02    6.50       1.0  T
   9    -45.4828825 -0.434883E-05  0.122E-02    6.50       1.7  T
  10    -45.4828832 -0.707354E-06  0.205E-03    6.50      10.2  T
  11    -45.4828832 -0.175868E-07  0.805E-04    6.50      25.9  T
  12    -45.4828832 -0.172450E-08  0.412E-04    6.50      50.6  T
speedup  0.98
cpu  time for SCC    0.01 s
wall time for SCC    0.01 s

   *** convergence criteria satisfied after 12 iterations ***

          eigenvalues
 #    :          24         25         26         27         28         29         30         31
 occ. :        2.000      2.000      2.000      2.000      2.000      2.000      2.000      2.000
 eps  :       -12.155    -12.049    -12.027    -11.674    -11.424    -10.558    -10.506     -9.883
 #    :          32         33         34         35         36         37         38         39
 occ. :        2.000      2.000      2.000      2.000      2.000      0.000      0.000      0.000
 eps  :        -9.813     -9.745     -9.289     -8.470     -8.452     -1.953     -0.525     -0.032
 #    :          40         41         42         43         44         45         46         47
 occ. :        0.000      0.000      0.000      0.000      0.000      0.000      0.000      0.000
 eps  :         0.719      1.769      2.528      2.998      3.117      3.680      4.989      5.759


   #   Z            q   n(s)   n(p)   n(d)      C6AA      α(0)
   1  16 S      1.447  1.610  1.933  1.009    94.746    16.383
   2   8 O     -0.747  1.794  4.953  0.000    30.017     7.346
   3   8 O     -0.804  1.776  5.029  0.000    31.717     7.551
   4   8 O     -0.803  1.774  5.029  0.000    31.665     7.545
   5   8 O     -0.802  1.775  5.027  0.000    31.636     7.541
   6   8 O     -0.833  1.825  5.008  0.000    32.561     7.652
   7   1 H      0.223  0.777  0.000  0.000     1.006     1.576
   8   8 O     -0.420  1.647  4.774  0.000    21.190     6.217
   9   1 H      0.382  0.618  0.000  0.000     0.520     1.133
  10   1 H      0.410  0.590  0.000  0.000     0.467     1.074
  11   1 H      0.405  0.595  0.000  0.000     0.471     1.076
  12   8 O     -0.453  1.652  4.801  0.000    21.845     6.313
  13   1 H      0.401  0.599  0.000  0.000     0.483     1.092
  14   1 H      0.395  0.605  0.000  0.000     0.489     1.097
  15   1 H      0.381  0.619  0.000  0.000     0.521     1.134
  16   8 O     -0.421  1.647  4.774  0.000    21.210     6.220
  17   1 H      0.380  0.620  0.000  0.000     0.523     1.136
  18   1 H      0.409  0.591  0.000  0.000     0.468     1.075
  19   1 H      0.405  0.595  0.000  0.000     0.471     1.076
  20   7 N     -0.465  1.383  4.082  0.000    32.251     8.434
  21   1 H      0.209  0.791  0.000  0.000     1.062     1.615
  22   1 H      0.147  0.853  0.000  0.000     1.423     1.869
  23   1 H      0.153  0.847  0.000  0.000     1.382     1.842

 Mol. C6AA /au·bohr⁶  :       4589.391856
 Mol. C8AA /au·bohr⁸  :     101626.594594
 Mol. α(0) /au        :         97.993418

 
 Wiberg/Mayer (AO) data. WBOs > 0.1 written file <wbo>
 largest (>0.05) Wiberg bond orders for each atom
           total WBO             WBO to atom ...
     1  S   5.043    O    2 1.369    O    5 1.224    O    3 1.220    O    4 1.201
     2  O   1.674    S    1 1.369    O    5 0.098    O    3 0.097    O    4 0.095
     3  O   1.663    S    1 1.220    H   10 0.108    O    2 0.097    O    5 0.093    O    4 0.089
     4  O   1.675    S    1 1.201    H   18 0.110    O    2 0.095    O    5 0.092    O    3 0.089
     5  O   1.664    S    1 1.224    H   13 0.106    O    2 0.098    O    3 0.093    O    4 0.092
     6  O   1.671    H    7 0.944    H   19 0.183    H   11 0.181    H   14 0.169    O   16 0.059    O    8 0.059    O   12 0.057
     7  H   0.950    O    6 0.944
     8  O   2.314    H    9 0.842    H   10 0.714    H   11 0.651    O    6 0.059
     9  H   0.854    O    8 0.842
    10  H   0.832    O    8 0.714    O    3 0.108
    11  H   0.836    O    8 0.651    O    6 0.181
    12  O   2.292    H   15 0.756    H   13 0.724    H   14 0.671    O    6 0.057
    13  H   0.839    O   12 0.724    O    5 0.106
    14  H   0.844    O   12 0.671    O    6 0.169
    15  H   0.855    O   12 0.756    N   20 0.091
    16  O   2.313    H   17 0.843    H   18 0.713    H   19 0.648    O    6 0.059
    17  H   0.855    O   16 0.843
    18  H   0.833    O   16 0.713    O    4 0.110
    19  H   0.836    O   16 0.648    O    6 0.183
    20  N   3.019    H   23 0.974    H   22 0.973    H   21 0.922    H   15 0.091
    21  H   0.956    N   20 0.922
    22  H   0.978    N   20 0.973
    23  H   0.977    N   20 0.974
 MOs/occ written to file <molden.input>
 
molecular dipole:
                 x           y           z       tot (Debye)
 q only:       -0.395      -4.189       3.755
   full:       -0.264      -4.056       3.260      13.244
molecular quadrupole (traceless):
                xx          xy          yy          xz          yz          zz
 q only:       19.612       2.640     -14.988      -6.700      26.611      -4.623
  q+dip:       19.334       2.681     -15.317      -9.900      25.527      -4.018
   full:       19.385       2.716     -15.137      -9.809      25.456      -4.248

SCC energy    :     -45.4828832
rep           :       0.2431828
ES            :       0.3496881
AES           :      -0.0726324
AXC           :      -0.0078071
disp          :      -0.0173745
XB            :       0.0000000
fix           :       0.0000000
total E       :     -45.2394825
atomizationE  :       4.3225450     2712.44
(atE without considering molecular charge,
 total energy contains solvation terms)
H-L gap (eV)  :          6.4991
           ------------------------------------------------- 
          |                 ===============                 |
          |                   A N C O P T                   |
          |                 ===============                 |
          |          Approximate Normal Coordinate          |
          |           Rational Function Optimizer           |
           ------------------------------------------------- 
dumping coords to <xtbopt.coord> and <xtbopt.log>
 optlevel               2
 Maxcycle             460
 Maxmicro              25
 Econv         1.000000000000000E-007
 Gconv         2.000000000000000E-004
 Maxdispl       1.00000000000000     
 Hlow          5.000000000000000E-003
 S6             20.0000000000000     
 Nvar               63

generating ANC from model Hessian ...
 Shifting diagonal of input Hessian by   4.771163127173775E-003
 Lowest  eigenvalues of input Hessian
   -0.000000   -0.000000   -0.000000   -0.000000    0.000000    0.000000
    0.005000    0.005901    0.006248    0.006568    0.006636    0.007739
    0.008001    0.008526    0.009758    0.009907    0.010618    0.012058
 Highest eigenvalues
    1.575244    1.576135    1.578548    3.078030    3.078387    3.078689
 
cpu  time for ANC gen    0.02 s
wall time for ANC gen    0.02 s
................................................................................
.............................. CYCLE    1 ......................................
................................................................................
   1    -45.4828832 -0.454829E+02  0.708E-05    6.50       0.0  T
   2    -45.4828832 -0.808598E-11  0.511E-05    6.50     408.1  T
   3    -45.4828832 -0.485301E-11  0.347E-05    6.50     601.7  T
speedup  1.25
cpu  time for SCC    0.00 s
wall time for SCC    0.00 s
speedup  1.04
cpu  time for grad    0.01 s
wall time for grad    0.01 s
 E :    -45.23948248  G :  0.212563    pred/act E change:  0.000D+00  0.335D-07
Maxdispl :   0.2825   ||displ|| :   0.4842   Lambda : -0.546D-01
Largest |displ|/coords:  0.2825 (  26)  0.2008 (  17)  0.1352 (  47)
................................................................................
.............................. CYCLE    2 ......................................
................................................................................
   1    -45.5081089 -0.455081E+02  0.413E-01    6.84       0.0  T
   2    -45.5086159 -0.506957E-03  0.307E-01    7.04       1.0  T
   3    -45.5088554 -0.239521E-03  0.119E-01    7.38       1.0  T
   4    -45.5088743 -0.189003E-04  0.366E-02    7.41       1.0  T
   5    -45.5088794 -0.512432E-05  0.116E-02    7.39       1.8  T
   6    -45.5088796 -0.238365E-06  0.562E-03    7.39       3.7  T
   7    -45.5088798 -0.136201E-06  0.243E-03    7.38       8.6  T
speedup  1.11
cpu  time for SCC    0.01 s
wall time for SCC    0.01 s
speedup  1.07
cpu  time for grad    0.01 s
wall time for grad    0.01 s
 E :    -45.28644510  G :  0.141289    pred/act E change:  0.000D+00 -0.470D-01
Maxdispl :   0.3910   ||displ|| :   0.5298   Lambda : -0.391D-01
Largest |displ|/coords:  0.3910 (  26)  0.1976 (  17)  0.1313 (  15)
................................................................................
.............................. CYCLE    3 ......................................
................................................................................
   1    -45.5234041 -0.455234E+02  0.468E-01    7.72       0.0  T
   2    -45.5244094 -0.100521E-02  0.336E-01    7.94       1.0  T
   3    -45.5248996 -0.490244E-03  0.142E-01    8.26       1.0  T
   4    -45.5249269 -0.272766E-04  0.405E-02    8.30       1.0  T
   5    -45.5249316 -0.472783E-05  0.144E-02    8.30       1.5  T
   6    -45.5249321 -0.472449E-06  0.722E-03    8.29       2.9  T
   7    -45.5249323 -0.198841E-06  0.300E-03    8.29       7.0  T
   8    -45.5249323 -0.428612E-07  0.116E-03    8.29      17.9  T
speedup  1.13
cpu  time for SCC    0.01 s
wall time for SCC    0.01 s
speedup  1.00
cpu  time for grad    0.01 s
wall time for grad    0.01 s
 E :    -45.31717855  G :  0.089462    pred/act E change: -0.337D-01 -0.307D-01
Maxdispl :   0.2645   ||displ|| :   0.4379   Lambda : -0.166D-01
Largest |displ|/coords:  0.2645 (  26)  0.1541 (  17)  0.1371 (   7)
................................................................................
.............................. CYCLE    4 ......................................
................................................................................
   1    -45.5294262 -0.455294E+02  0.383E-01    8.49       0.0  T
   2    -45.5303018 -0.875623E-03  0.265E-01    8.62       1.0  T
   3    -45.5307200 -0.418201E-03  0.120E-01    8.80       1.0  T
   4    -45.5307388 -0.188300E-04  0.335E-02    8.84       1.0  T
   5    -45.5307412 -0.237301E-05  0.118E-02    8.84       1.8  T
   6    -45.5307415 -0.328908E-06  0.621E-03    8.83       3.4  T
   7    -45.5307417 -0.109971E-06  0.233E-03    8.83       8.9  T
   8    -45.5307417 -0.221621E-07  0.100E-03    8.83      20.9  T
speedup  0.97
cpu  time for SCC    0.01 s
wall time for SCC    0.01 s
speedup  0.92
cpu  time for grad    0.01 s
wall time for grad    0.01 s
 E :    -45.32820376  G :  0.057663    pred/act E change: -0.250D-01 -0.110D-01
Maxdispl :   0.1463   ||displ|| :   0.3385   Lambda : -0.484D-02
Largest |displ|/coords:  0.1463 (   4)  0.1333 (   8)  0.1178 (   7)
................................................................................
.............................. CYCLE    5 ......................................
................................................................................
   1    -45.5328948 -0.455329E+02  0.205E-01    8.80       0.0  T
   2    -45.5329932 -0.984220E-04  0.148E-01    8.84       1.0  T
   3    -45.5330334 -0.402306E-04  0.580E-02    8.91       1.0  T
   4    -45.5330368 -0.343915E-05  0.129E-02    8.91       1.6  T
   5    -45.5330375 -0.613884E-06  0.354E-03    8.91       5.9  T
   6    -45.5330375 -0.186107E-07  0.168E-03    8.91      12.4  T
speedup  1.09
cpu  time for SCC    0.00 s
wall time for SCC    0.00 s
speedup  1.04
cpu  time for grad    0.01 s
wall time for grad    0.01 s
 E :    -45.33156842  G :  0.039055    pred/act E change: -0.990D-02 -0.336D-02
Maxdispl :   0.1950   ||displ|| :   0.3847   Lambda : -0.509D-02
Largest |displ|/coords:  0.1950 (   4)  0.1524 (   1)  0.1110 (  20)
................................................................................
.............................. CYCLE    6 ......................................
................................................................................
   1    -45.5389603 -0.455390E+02  0.306E-01    9.01       0.0  T
   2    -45.5394530 -0.492683E-03  0.212E-01    9.08       1.0  T
   3    -45.5396710 -0.218009E-03  0.948E-02    9.16       1.0  T
   4    -45.5396806 -0.956492E-05  0.242E-02    9.17       1.0  T
   5    -45.5396817 -0.108397E-05  0.790E-03    9.17       2.6  T
   6    -45.5396818 -0.133756E-06  0.417E-03    9.17       5.0  T
   7    -45.5396819 -0.389923E-07  0.147E-03    9.17      14.1  T
speedup  0.93
cpu  time for SCC    0.01 s
wall time for SCC    0.01 s
speedup  0.96
cpu  time for grad    0.01 s
wall time for grad    0.01 s
 E :    -45.33412563  G :  0.033448    pred/act E change: -0.270D-02 -0.256D-02
Maxdispl :   0.0884   ||displ|| :   0.1762   Lambda : -0.174D-02
Largest |displ|/coords:  0.0884 (   1)  0.0703 (  13)  0.0567 (   6)
................................................................................
.............................. CYCLE    7 ......................................
................................................................................
   1    -45.5442299 -0.455442E+02  0.124E-01    9.14       0.0  T
   2    -45.5442569 -0.269827E-04  0.906E-02    9.14       1.0  T
   3    -45.5442692 -0.122443E-04  0.273E-02    9.16       1.0  T
   4    -45.5442713 -0.215638E-05  0.793E-03    9.16       2.6  T
   5    -45.5442715 -0.134588E-06  0.237E-03    9.16       8.8  T
   6    -45.5442715 -0.685644E-08  0.123E-03    9.16      17.0  T
speedup  1.06
cpu  time for SCC    0.00 s
wall time for SCC    0.00 s
speedup  1.04
cpu  time for grad    0.01 s
wall time for grad    0.01 s
 E :    -45.33512726  G :  0.029494    pred/act E change: -0.292D-02 -0.100D-02
Maxdispl :   0.0967   ||displ|| :   0.2105   Lambda : -0.132D-02
Largest |displ|/coords:  0.0967 (   4)  0.0758 (   9)  0.0758 (  14)
................................................................................
.............................. CYCLE    8 ......................................
................................................................................
   1    -45.5430527 -0.455431E+02  0.150E-01    9.07       0.0  T
   2    -45.5430802 -0.274242E-04  0.110E-01    9.07       1.0  T
   3    -45.5430934 -0.132612E-04  0.282E-02    9.07       1.0  T
   4    -45.5430963 -0.284898E-05  0.864E-03    9.08       2.4  T
   5    -45.5430964 -0.127102E-06  0.276E-03    9.07       7.6  T
   6    -45.5430964 -0.899320E-08  0.156E-03    9.07      13.4  T
speedup  0.87
cpu  time for SCC    0.00 s
wall time for SCC    0.00 s
speedup  0.96
cpu  time for grad    0.01 s
wall time for grad    0.01 s
 E :    -45.33596062  G :  0.021876    pred/act E change: -0.898D-03 -0.833D-03
Maxdispl :   0.1396   ||displ|| :   0.2490   Lambda : -0.172D-02
Largest |displ|/coords:  0.1396 (   2)  0.0758 (   1)  0.0673 (  10)
................................................................................
.............................. CYCLE    9 ......................................
................................................................................
   1    -45.5459369 -0.455459E+02  0.227E-01    9.03       0.0  T
   2    -45.5461177 -0.180831E-03  0.163E-01    9.02       1.0  T
   3    -45.5461998 -0.820478E-04  0.680E-02    9.02       1.0  T
   4    -45.5462060 -0.625853E-05  0.219E-02    9.03       1.0  T
   5    -45.5462069 -0.811708E-06  0.628E-03    9.03       3.3  T
   6    -45.5462069 -0.549851E-07  0.342E-03    9.03       6.1  T
   7    -45.5462069 -0.167533E-07  0.111E-03    9.03      18.8  T
speedup  1.11
cpu  time for SCC    0.01 s
wall time for SCC    0.01 s
speedup  0.98
cpu  time for grad    0.01 s
wall time for grad    0.01 s
 E :    -45.33705243  G :  0.025260    pred/act E change: -0.690D-03 -0.109D-02
Maxdispl :   0.0800   ||displ|| :   0.2392   Lambda : -0.169D-02
Largest |displ|/coords:  0.0800 (   8)  0.0752 (  20)  0.0657 (  10)
................................................................................
.............................. CYCLE   10 ......................................
................................................................................
   1    -45.5540741 -0.455541E+02  0.261E-01    8.97       0.0  T
   2    -45.5542733 -0.199129E-03  0.191E-01    8.87       1.0  T
   3    -45.5543710 -0.977677E-04  0.749E-02    8.69       1.0  T
   4    -45.5543807 -0.967692E-05  0.261E-02    8.68       1.0  T
   5    -45.5543819 -0.116687E-05  0.718E-03    8.68       2.9  T
   6    -45.5543819 -0.636726E-07  0.397E-03    8.69       5.3  T
   7    -45.5543820 -0.185852E-07  0.116E-03    8.69      18.0  T
speedup  1.13
cpu  time for SCC    0.01 s
wall time for SCC    0.01 s
speedup  1.07
cpu  time for grad    0.01 s
wall time for grad    0.01 s
 E :    -45.33776677  G :  0.036745    pred/act E change: -0.911D-03 -0.714D-03
Maxdispl :   0.1015   ||displ|| :   0.2633   Lambda : -0.178D-02
Largest |displ|/coords:  0.1015 (  14)  0.0906 (  13)  0.0802 (   4)
................................................................................
.............................. CYCLE   11 ......................................
................................................................................
   1    -45.5519414 -0.455519E+02  0.256E-01    8.66       0.0  T
   2    -45.5520289 -0.875810E-04  0.186E-01    8.61       1.0  T
   3    -45.5520688 -0.398509E-04  0.512E-02    8.50       1.0  T
   4    -45.5520767 -0.788433E-05  0.172E-02    8.51       1.2  T
   5    -45.5520771 -0.440043E-06  0.543E-03    8.51       3.8  T
   6    -45.5520772 -0.441445E-07  0.307E-03    8.51       6.8  T
speedup  0.87
cpu  time for SCC    0.00 s
wall time for SCC    0.00 s
speedup  0.96
cpu  time for grad    0.01 s
wall time for grad    0.01 s
 E :    -45.33854771  G :  0.032259    pred/act E change: -0.894D-03 -0.781D-03
Maxdispl :   0.0931   ||displ|| :   0.2311   Lambda : -0.212D-02
Largest |displ|/coords:  0.0931 (   7)  0.0888 (  12)  0.0651 (   9)
................................................................................
.............................. CYCLE   12 ......................................
................................................................................
   1    -45.5573239 -0.455573E+02  0.168E-01    8.64       0.0  T
   2    -45.5573572 -0.333208E-04  0.123E-01    8.66       1.0  T
   3    -45.5573728 -0.156034E-04  0.379E-02    8.70       1.0  T
   4    -45.5573758 -0.301657E-05  0.120E-02    8.70       1.7  T
   5    -45.5573760 -0.206017E-06  0.340E-03    8.70       6.1  T
   6    -45.5573760 -0.197889E-07  0.173E-03    8.70      12.0  T
speedup  1.09
cpu  time for SCC    0.01 s
wall time for SCC    0.00 s
speedup  1.04
cpu  time for grad    0.01 s
wall time for grad    0.01 s
 E :    -45.33960600  G :  0.024213    pred/act E change: -0.950D-03 -0.106D-02
Maxdispl :   0.1401   ||displ|| :   0.2958   Lambda : -0.239D-02
Largest |displ|/coords:  0.1401 (  21)  0.1035 (   6)  0.0916 (   9)
................................................................................
.............................. CYCLE   13 ......................................
................................................................................
   1    -45.5636376 -0.455636E+02  0.183E-01    8.79       0.0  T
   2    -45.5636794 -0.418027E-04  0.139E-01    8.80       1.0  T
   3    -45.5637064 -0.270142E-04  0.468E-02    8.81       1.0  T
   4    -45.5637113 -0.488858E-05  0.170E-02    8.81       1.2  T
   5    -45.5637118 -0.467309E-06  0.499E-03    8.80       4.2  T
   6    -45.5637118 -0.370391E-07  0.260E-03    8.81       8.0  T
speedup  1.09
cpu  time for SCC    0.00 s
wall time for SCC    0.00 s
speedup  1.05
cpu  time for grad    0.01 s
wall time for grad    0.01 s
 E :    -45.34068372  G :  0.029175    pred/act E change: -0.111D-02 -0.108D-02
Maxdispl :   0.1105   ||displ|| :   0.3140   Lambda : -0.234D-02
Largest |displ|/coords:  0.1105 (   8)  0.1097 (  21)  0.0949 (  24)
................................................................................
.............................. CYCLE   14 ......................................
................................................................................
   1    -45.5689851 -0.455690E+02  0.199E-01    8.90       0.0  T
   2    -45.5690581 -0.729973E-04  0.149E-01    8.90       1.0  T
   3    -45.5690949 -0.368297E-04  0.535E-02    8.90       1.0  T
   4    -45.5691018 -0.683823E-05  0.176E-02    8.89       1.2  T
   5    -45.5691023 -0.531591E-06  0.514E-03    8.89       4.1  T
   6    -45.5691023 -0.292135E-07  0.253E-03    8.89       8.2  T
speedup  1.04
cpu  time for SCC    0.00 s
wall time for SCC    0.00 s
speedup  1.03
cpu  time for grad    0.01 s
wall time for grad    0.01 s
 E :    -45.34214818  G :  0.035407    pred/act E change: -0.130D-02 -0.146D-02
Maxdispl :   0.1955   ||displ|| :   0.4251   Lambda : -0.283D-02
Largest |displ|/coords:  0.1955 (  21)  0.1524 (  18)  0.1488 (   1)
................................................................................
.............................. CYCLE   15 ......................................
................................................................................
   1    -45.5754936 -0.455755E+02  0.306E-01    8.88       0.0  T
   2    -45.5757120 -0.218402E-03  0.224E-01    8.92       1.0  T
   3    -45.5758323 -0.120320E-03  0.865E-02    8.97       1.0  T
   4    -45.5758512 -0.188831E-04  0.212E-02    8.96       1.0  T
   5    -45.5758522 -0.942076E-06  0.788E-03    8.96       2.6  T
   6    -45.5758522 -0.282515E-07  0.385E-03    8.96       5.4  T
   7    -45.5758522 -0.205532E-07  0.940E-04    8.96      22.2  T
speedup  1.11
cpu  time for SCC    0.01 s
wall time for SCC    0.01 s
speedup  1.06
cpu  time for grad    0.01 s
wall time for grad    0.01 s
 E :    -45.34420196  G :  0.043895    pred/act E change: -0.129D-02 -0.205D-02
Maxdispl :   0.2351   ||displ|| :   0.4817   Lambda : -0.405D-02
Largest |displ|/coords:  0.2351 (  21)  0.2285 (  20)  0.1763 (   1)
................................................................................
.............................. CYCLE   16 ......................................
................................................................................
   1    -45.5690374 -0.455690E+02  0.427E-01    8.80       0.0  T
   2    -45.5694813 -0.443840E-03  0.303E-01    8.88       1.0  T
   3    -45.5697201 -0.238854E-03  0.110E-01    8.85       1.0  T
   4    -45.5697508 -0.307193E-04  0.200E-02    8.85       1.0  T
   5    -45.5697514 -0.569775E-06  0.100E-02    8.85       2.1  T
   6    -45.5697515 -0.890990E-07  0.408E-03    8.85       5.1  T
   7    -45.5697515 -0.246125E-07  0.127E-03    8.85      16.4  T
speedup  0.94
cpu  time for SCC    0.01 s
wall time for SCC    0.01 s
speedup  0.98
cpu  time for grad    0.01 s
wall time for grad    0.01 s
 E :    -45.34613926  G :  0.063256    pred/act E change: -0.167D-02 -0.194D-02
Maxdispl :   0.1092   ||displ|| :   0.3107   Lambda : -0.582D-02
Largest |displ|/coords:  0.1092 (  17)  0.0859 (  18)  0.0783 (   4)
................................................................................
.............................. CYCLE   17 ......................................
................................................................................
   1    -45.5929835 -0.455930E+02  0.308E-01    8.88       0.0  T
   2    -45.5931641 -0.180595E-03  0.221E-01    8.85       1.0  T
   3    -45.5932710 -0.106943E-03  0.784E-02    8.77       1.0  T
   4    -45.5932831 -0.120657E-04  0.266E-02    8.76       1.0  T
   5    -45.5932848 -0.169671E-05  0.893E-03    8.77       2.3  T
   6    -45.5932848 -0.766896E-07  0.444E-03    8.77       4.7  T
   7    -45.5932849 -0.199991E-07  0.125E-03    8.77      16.7  T
speedup  0.91
cpu  time for SCC    0.00 s
wall time for SCC    0.01 s
speedup  0.98
cpu  time for grad    0.01 s
wall time for grad    0.01 s
 E :    -45.34721647  G :  0.059835    pred/act E change: -0.249D-02 -0.108D-02
Maxdispl :   0.1358   ||displ|| :   0.3247   Lambda : -0.925D-02
Largest |displ|/coords:  0.1358 (  20)  0.0877 (  11)  0.0796 (  49)
................................................................................
.............................. CYCLE   18 ......................................
................................................................................
   1    -45.5720692 -0.455721E+02  0.400E-01    8.61       0.0  T
   2    -45.5726003 -0.531080E-03  0.280E-01    8.61       1.0  T
   3    -45.5728764 -0.276140E-03  0.115E-01    8.59       1.0  T
   4    -45.5729001 -0.236521E-04  0.344E-02    8.60       1.0  T
   5    -45.5729031 -0.298055E-05  0.122E-02    8.60       1.7  T
   6    -45.5729032 -0.159747E-06  0.652E-03    8.60       3.2  T
   7    -45.5729033 -0.403486E-07  0.168E-03    8.60      12.4  T
   8    -45.5729033 -0.531281E-08  0.426E-04    8.60      48.9  T
speedup  0.98
cpu  time for SCC    0.01 s
wall time for SCC    0.01 s
speedup  1.01
cpu  time for grad    0.01 s
wall time for grad    0.01 s
 E :    -45.34901311  G :  0.055197    pred/act E change: -0.319D-02 -0.180D-02
Maxdispl :   0.1136   ||displ|| :   0.3461   Lambda : -0.737D-02
Largest |displ|/coords:  0.1136 (   1)  0.1100 (  21)  0.1050 (  24)
................................................................................
.............................. CYCLE   19 ......................................
................................................................................
   1    -45.6039195 -0.456039E+02  0.305E-01    8.71       0.0  T
   2    -45.6041111 -0.191624E-03  0.224E-01    8.65       1.0  T
   3    -45.6042371 -0.125976E-03  0.856E-02    8.53       1.0  T
   4    -45.6042536 -0.165146E-04  0.311E-02    8.51       1.0  T
   5    -45.6042558 -0.225251E-05  0.108E-02    8.52       1.9  T
   6    -45.6042559 -0.100910E-06  0.474E-03    8.52       4.4  T
   7    -45.6042559 -0.195595E-07  0.139E-03    8.52      15.0  T
speedup  0.94
cpu  time for SCC    0.00 s
wall time for SCC    0.01 s
speedup  0.99
cpu  time for grad    0.01 s
wall time for grad    0.01 s
 E :    -45.35153517  G :  0.064333    pred/act E change: -0.511D-02 -0.252D-02
Maxdispl :   0.1799   ||displ|| :   0.3610   Lambda : -0.695D-02
Largest |displ|/coords:  0.1799 (  21)  0.1297 (  18)  0.1196 (  22)
................................................................................
.............................. CYCLE   20 ......................................
................................................................................
   1    -45.5841619 -0.455842E+02  0.320E-01    8.41       0.0  T
   2    -45.5845083 -0.346395E-03  0.231E-01    8.44       1.0  T
   3    -45.5847037 -0.195381E-03  0.982E-02    8.49       1.0  T
   4    -45.5847304 -0.267140E-04  0.262E-02    8.50       1.0  T
   5    -45.5847318 -0.133803E-05  0.108E-02    8.50       1.9  T
   6    -45.5847319 -0.131381E-06  0.480E-03    8.50       4.3  T
   7    -45.5847319 -0.197599E-07  0.136E-03    8.50      15.3  T
speedup  0.93
cpu  time for SCC    0.00 s
wall time for SCC    0.01 s
speedup  0.99
cpu  time for grad    0.01 s
wall time for grad    0.01 s
 E :    -45.35130407  G :  0.041426    pred/act E change: -0.412D-02  0.231D-03
Maxdispl :   0.1859   ||displ|| :   0.3581   Lambda : -0.554D-02
Largest |displ|/coords:  0.1859 (  21)  0.1347 (  22)  0.1208 (  20)
................................................................................
.............................. CYCLE   21 ......................................
................................................................................
   1    -45.5933641 -0.455934E+02  0.317E-01    8.45       0.0  T
   2    -45.5937289 -0.364758E-03  0.227E-01    8.40       1.0  T
   3    -45.5939390 -0.210170E-03  0.965E-02    8.33       1.0  T
   4    -45.5939623 -0.232269E-04  0.191E-02    8.31       1.1  T
   5    -45.5939626 -0.380310E-06  0.922E-03    8.31       2.3  T
   6    -45.5939627 -0.445705E-07  0.383E-03    8.32       5.4  T
   7    -45.5939627 -0.129724E-07  0.858E-04    8.32      24.3  T
speedup  0.89
cpu  time for SCC    0.01 s
wall time for SCC    0.01 s
speedup  0.98
cpu  time for grad    0.01 s
wall time for grad    0.01 s
 E :    -45.35458694  G :  0.035908    pred/act E change: -0.393D-02 -0.328D-02
Maxdispl :   0.1059   ||displ|| :   0.2498   Lambda : -0.362D-02
Largest |displ|/coords:  0.1059 (  17)  0.0641 (  59)  0.0617 (  16)
................................................................................
.............................. CYCLE   22 ......................................
................................................................................
   1    -45.6144961 -0.456145E+02  0.220E-01    8.39       0.0  T
   2    -45.6145593 -0.631525E-04  0.160E-01    8.36       1.0  T
   3    -45.6146024 -0.431570E-04  0.503E-02    8.29       1.0  T
   4    -45.6146083 -0.586696E-05  0.204E-02    8.29       1.0  T
   5    -45.6146092 -0.863270E-06  0.653E-03    8.29       3.2  T
   6    -45.6146092 -0.433480E-07  0.314E-03    8.29       6.6  T
   7    -45.6146092 -0.868854E-08  0.828E-04    8.29      25.2  T
speedup  0.94
cpu  time for SCC    0.00 s
wall time for SCC    0.01 s
speedup  1.00
cpu  time for grad    0.01 s
wall time for grad    0.01 s
 E :    -45.35598075  G :  0.037941    pred/act E change: -0.312D-02 -0.139D-02
Maxdispl :   0.0677   ||displ|| :   0.1653   Lambda : -0.196D-02
Largest |displ|/coords:  0.0677 (   1)  0.0610 (  20)  0.0541 (  27)
................................................................................
.............................. CYCLE   23 ......................................
................................................................................
   1    -45.6131885 -0.456132E+02  0.115E-01    8.25       0.0  T
   2    -45.6131988 -0.102796E-04  0.856E-02    8.24       1.0  T
   3    -45.6132055 -0.670384E-05  0.195E-02    8.21       1.1  T
   4    -45.6132066 -0.108351E-05  0.868E-03    8.21       2.4  T
   5    -45.6132067 -0.100405E-06  0.189E-03    8.21      11.0  T
   6    -45.6132067 -0.441337E-08  0.115E-03    8.21      18.2  T
speedup  0.89
cpu  time for SCC    0.00 s
wall time for SCC    0.00 s
speedup  0.98
cpu  time for grad    0.01 s
wall time for grad    0.01 s
 E :    -45.35728117  G :  0.021606    pred/act E change: -0.192D-02 -0.130D-02
Maxdispl :   0.1267   ||displ|| :   0.2739   Lambda : -0.210D-02
Largest |displ|/coords:  0.1267 (   6)  0.0847 (   9)  0.0754 (  27)
................................................................................
.............................. CYCLE   24 ......................................
................................................................................
   1    -45.6131556 -0.456132E+02  0.194E-01    8.14       0.0  T
   2    -45.6131817 -0.260363E-04  0.144E-01    8.12       1.0  T
   3    -45.6131982 -0.165754E-04  0.332E-02    8.07       1.0  T
   4    -45.6132011 -0.292081E-05  0.139E-02    8.07       1.5  T
   5    -45.6132014 -0.275851E-06  0.380E-03    8.07       5.5  T
   6    -45.6132014 -0.200672E-07  0.217E-03    8.07       9.6  T
speedup  1.09
cpu  time for SCC    0.01 s
wall time for SCC    0.00 s
speedup  0.97
cpu  time for grad    0.01 s
wall time for grad    0.01 s
 E :    -45.35802528  G :  0.023057    pred/act E change: -0.101D-02 -0.744D-03
Maxdispl :   0.0575   ||displ|| :   0.1410   Lambda : -0.867D-03
Largest |displ|/coords:  0.0575 (  10)  0.0401 (  27)  0.0376 (   2)
................................................................................
.............................. CYCLE   25 ......................................
................................................................................
   1    -45.6177041 -0.456177E+02  0.106E-01    8.11       0.0  T
   2    -45.6177113 -0.720971E-05  0.778E-02    8.10       1.0  T
   3    -45.6177158 -0.447193E-05  0.182E-02    8.09       1.1  T
   4    -45.6177165 -0.753145E-06  0.626E-03    8.09       3.3  T
   5    -45.6177166 -0.674038E-07  0.208E-03    8.09      10.0  T
   6    -45.6177166 -0.554047E-08  0.112E-03    8.09      18.6  T
speedup  1.09
cpu  time for SCC    0.00 s
wall time for SCC    0.00 s
speedup  0.97
cpu  time for grad    0.01 s
wall time for grad    0.01 s
 E :    -45.35853243  G :  0.011880    pred/act E change: -0.113D-02 -0.507D-03
Maxdispl :   0.0771   ||displ|| :   0.1336   Lambda : -0.451D-03
Largest |displ|/coords:  0.0771 (   9)  0.0487 (   5)  0.0375 (   6)

generating ANC from model Hessian ...
 Shifting diagonal of input Hessian by   4.902596494778214E-003
 Lowest  eigenvalues of input Hessian
   -0.000000   -0.000000    0.000000    0.000000    0.000000    0.000000
    0.005000    0.005262    0.005507    0.006106    0.006259    0.006654
    0.007328    0.007760    0.008072    0.008481    0.010384    0.011548
 Highest eigenvalues
    1.368420    1.383196    1.394593    2.545449    3.228130    3.867173
 
cpu  time for ANC gen    0.02 s
wall time for ANC gen    0.02 s
................................................................................
.............................. CYCLE   26 ......................................
................................................................................
   1    -45.6178114 -0.456178E+02  0.993E-02    8.12       0.0  T
   2    -45.6178176 -0.616781E-05  0.737E-02    8.12       1.0  T
   3    -45.6178215 -0.392754E-05  0.187E-02    8.10       1.1  T
   4    -45.6178222 -0.720366E-06  0.642E-03    8.10       3.2  T
   5    -45.6178223 -0.603598E-07  0.177E-03    8.10      11.8  T
   6    -45.6178223 -0.503125E-08  0.102E-03    8.10      20.4  T
   7    -45.6178223 -0.171918E-08  0.389E-04    8.10      53.6  T
   8    -45.6178223 -0.206256E-09  0.901E-05    8.10     231.5  T
speedup  0.98
cpu  time for SCC    0.01 s
wall time for SCC    0.01 s
speedup  0.98
cpu  time for grad    0.01 s
wall time for grad    0.01 s
 E :    -45.35869932  G :  0.013807    pred/act E change:  0.000D+00 -0.167D-03
Maxdispl :   0.0875   ||displ|| :   0.1972   Lambda : -0.753D-03
Largest |displ|/coords:  0.0875 (   8)  0.0594 (   5)  0.0569 (   9)
................................................................................
.............................. CYCLE   27 ......................................
................................................................................
   1    -45.6185388 -0.456185E+02  0.104E-01    8.09       0.0  T
   2    -45.6185443 -0.551331E-05  0.777E-02    8.09       1.0  T
   3    -45.6185472 -0.286788E-05  0.155E-02    8.09       1.3  T
   4    -45.6185480 -0.803670E-06  0.510E-03    8.09       4.1  T
   5    -45.6185481 -0.431929E-07  0.142E-03    8.09      14.7  T
   6    -45.6185481 -0.218483E-08  0.901E-04    8.09      23.1  T
speedup  0.87
cpu  time for SCC    0.00 s
wall time for SCC    0.00 s
speedup  0.96
cpu  time for grad    0.01 s
wall time for grad    0.01 s
 E :    -45.35922511  G :  0.010278    pred/act E change:  0.000D+00 -0.526D-03
Maxdispl :   0.1462   ||displ|| :   0.2433   Lambda : -0.493D-03
Largest |displ|/coords:  0.1462 (   8)  0.0866 (   1)  0.0781 (   6)
................................................................................
.............................. CYCLE   28 ......................................
................................................................................
   1    -45.6183209 -0.456183E+02  0.127E-01    8.08       0.0  T
   2    -45.6183269 -0.592494E-05  0.953E-02    8.08       1.0  T
   3    -45.6183299 -0.307798E-05  0.149E-02    8.09       1.4  T
   4    -45.6183309 -0.963561E-06  0.575E-03    8.09       3.6  T
   5    -45.6183310 -0.494533E-07  0.163E-03    8.09      12.8  T
   6    -45.6183310 -0.318378E-08  0.105E-03    8.09      19.8  T
speedup  1.09
cpu  time for SCC    0.00 s
wall time for SCC    0.00 s
speedup  1.06
cpu  time for grad    0.01 s
wall time for grad    0.01 s
 E :    -45.35955685  G :  0.008469    pred/act E change: -0.391D-03 -0.332D-03
Maxdispl :   0.1081   ||displ|| :   0.2043   Lambda : -0.231D-03
Largest |displ|/coords:  0.1081 (   8)  0.0878 (   1)  0.0745 (   5)
................................................................................
.............................. CYCLE   29 ......................................
................................................................................
   1    -45.6175095 -0.456175E+02  0.109E-01    8.07       0.0  T
   2    -45.6175122 -0.270655E-05  0.819E-02    8.07       1.0  T
   3    -45.6175144 -0.216168E-05  0.103E-02    8.08       2.0  T
   4    -45.6175148 -0.379574E-06  0.405E-03    8.08       5.1  T
   5    -45.6175148 -0.248170E-07  0.153E-03    8.08      13.6  T
   6    -45.6175148 -0.345722E-08  0.920E-04    8.08      22.7  T
speedup  1.11
cpu  time for SCC    0.01 s
wall time for SCC    0.00 s
speedup  1.07
cpu  time for grad    0.01 s
wall time for grad    0.01 s
 E :    -45.35970980  G :  0.005700    pred/act E change: -0.261D-03 -0.153D-03
Maxdispl :   0.0766   ||displ|| :   0.1373   Lambda : -0.102D-03
Largest |displ|/coords:  0.0766 (   1)  0.0700 (   8)  0.0429 (   5)
................................................................................
.............................. CYCLE   30 ......................................
................................................................................
   1    -45.6176617 -0.456177E+02  0.656E-02    8.09       0.0  T
   2    -45.6176623 -0.568498E-06  0.490E-02    8.09       1.0  T
   3    -45.6176628 -0.476258E-06  0.512E-03    8.08       4.1  T
   4    -45.6176628 -0.772978E-07  0.204E-03    8.08      10.2  T
   5    -45.6176629 -0.527042E-08  0.767E-04    8.08      27.2  T
speedup  0.79
cpu  time for SCC    0.00 s
wall time for SCC    0.00 s
speedup  0.93
cpu  time for grad    0.01 s
wall time for grad    0.01 s
 E :    -45.35977143  G :  0.003003    pred/act E change: -0.120D-03 -0.616D-04
Maxdispl :   0.0399   ||displ|| :   0.0747   Lambda : -0.390D-04
Largest |displ|/coords:  0.0399 (   1)  0.0288 (   2)  0.0225 (  10)
................................................................................
.............................. CYCLE   31 ......................................
................................................................................
   1    -45.6183700 -0.456184E+02  0.410E-02    8.09       0.0  T
   2    -45.6183704 -0.441938E-06  0.306E-02    8.09       1.0  T
   3    -45.6183708 -0.305638E-06  0.453E-03    8.09       4.6  T
   4    -45.6183708 -0.607100E-07  0.196E-03    8.09      10.7  T
   5    -45.6183708 -0.362455E-08  0.476E-04    8.09      43.8  T
   6    -45.6183708 -0.309321E-09  0.283E-04    8.09      73.8  T
speedup  1.09
cpu  time for SCC    0.00 s
wall time for SCC    0.00 s
speedup  1.02
cpu  time for grad    0.01 s
wall time for grad    0.01 s
 E :    -45.35979004  G :  0.002080    pred/act E change: -0.520D-04 -0.186D-04
Maxdispl :   0.0288   ||displ|| :   0.0488   Lambda : -0.187D-04
Largest |displ|/coords:  0.0288 (   1)  0.0161 (   7)  0.0145 (   3)
................................................................................
.............................. CYCLE   32 ......................................
................................................................................
   1    -45.6185612 -0.456186E+02  0.323E-02    8.09       0.0  T
   2    -45.6185613 -0.146441E-06  0.242E-02    8.09       1.0  T
   3    -45.6185615 -0.125057E-06  0.207E-03    8.09      10.1  T
   4    -45.6185615 -0.151614E-07  0.102E-03    8.09      20.4  T
   5    -45.6185615 -0.932474E-09  0.278E-04    8.09      75.1  T
   6    -45.6185615 -0.820677E-10  0.171E-04    8.09     122.0  T
speedup  1.09
cpu  time for SCC    0.00 s
wall time for SCC    0.00 s
speedup  1.03
cpu  time for grad    0.01 s
wall time for grad    0.01 s
 E :    -45.35980033  G :  0.001740    pred/act E change: -0.196D-04 -0.103D-04
Maxdispl :   0.0258   ||displ|| :   0.0445   Lambda : -0.124D-04
Largest |displ|/coords:  0.0258 (   1)  0.0226 (   3)  0.0119 (   7)
................................................................................
.............................. CYCLE   33 ......................................
................................................................................
   1    -45.6187374 -0.456187E+02  0.284E-02    8.09       0.0  T
   2    -45.6187376 -0.173104E-06  0.213E-02    8.08       1.0  T
   3    -45.6187377 -0.163013E-06  0.248E-03    8.08       8.4  T
   4    -45.6187377 -0.143216E-07  0.894E-04    8.08      23.3  T
   5    -45.6187377 -0.810850E-09  0.299E-04    8.08      69.7  T
speedup  1.05
cpu  time for SCC    0.00 s
wall time for SCC    0.00 s
speedup  1.01
cpu  time for grad    0.01 s
wall time for grad    0.01 s
 E :    -45.35980627  G :  0.001008    pred/act E change: -0.935D-05 -0.594D-05
Maxdispl :   0.0125   ||displ|| :   0.0245   Lambda : -0.577D-05
Largest |displ|/coords:  0.0125 (   1)  0.0082 (  10)  0.0081 (  17)
................................................................................
.............................. CYCLE   34 ......................................
................................................................................
   1    -45.6188596 -0.456189E+02  0.174E-02    8.08       0.0  T
   2    -45.6188596 -0.379304E-07  0.130E-02    8.08       1.6  T
   3    -45.6188597 -0.280066E-07  0.148E-03    8.08      14.1  T
   4    -45.6188597 -0.448302E-08  0.464E-04    8.08      44.9  T
   5    -45.6188597 -0.209006E-09  0.129E-04    8.08     161.4  T
speedup  1.03
cpu  time for SCC    0.00 s
wall time for SCC    0.00 s
speedup  1.00
cpu  time for grad    0.01 s
wall time for grad    0.01 s
 E :    -45.35980971  G :  0.000692    pred/act E change: -0.622D-05 -0.344D-05
Maxdispl :   0.0115   ||displ|| :   0.0230   Lambda : -0.239D-05
Largest |displ|/coords:  0.0115 (   1)  0.0098 (   7)  0.0079 (   3)
................................................................................
.............................. CYCLE   35 ......................................
................................................................................
   1    -45.6189083 -0.456189E+02  0.150E-02    8.08       0.0  T
   2    -45.6189084 -0.298387E-07  0.113E-02    8.08       1.9  T
   3    -45.6189084 -0.253993E-07  0.107E-03    8.08      19.4  T
   4    -45.6189084 -0.353308E-08  0.426E-04    8.08      48.9  T
   5    -45.6189084 -0.189360E-09  0.131E-04    8.08     159.7  T
speedup  1.05
cpu  time for SCC    0.00 s
wall time for SCC    0.00 s
speedup  1.08
cpu  time for grad    0.01 s
wall time for grad    0.01 s
 E :    -45.35981143  G :  0.000662    pred/act E change: -0.289D-05 -0.172D-05
Maxdispl :   0.0176   ||displ|| :   0.0334   Lambda : -0.248D-05
Largest |displ|/coords:  0.0176 (   1)  0.0144 (   3)  0.0098 (  10)
................................................................................
.............................. CYCLE   36 ......................................
................................................................................
   1    -45.6189781 -0.456190E+02  0.199E-02    8.08       0.0  T
   2    -45.6189781 -0.541214E-07  0.149E-02    8.08       1.4  T
   3    -45.6189782 -0.401633E-07  0.139E-03    8.08      15.0  T
   4    -45.6189782 -0.738792E-08  0.609E-04    8.08      34.2  T
   5    -45.6189782 -0.459131E-09  0.177E-04    8.08     118.1  T
speedup  1.03
cpu  time for SCC    0.00 s
wall time for SCC    0.00 s
speedup  1.00
cpu  time for grad    0.01 s
wall time for grad    0.01 s
 E :    -45.35981289  G :  0.000568    pred/act E change: -0.119D-05 -0.146D-05
Maxdispl :   0.0088   ||displ|| :   0.0163   Lambda : -0.893D-06
Largest |displ|/coords:  0.0088 (   1)  0.0083 (   3)  0.0047 (  11)
................................................................................
.............................. CYCLE   37 ......................................
................................................................................
   1    -45.6188997 -0.456189E+02  0.891E-03    8.08       0.0  T
   2    -45.6188997 -0.118251E-07  0.671E-03    8.08       3.1  T
   3    -45.6188997 -0.127632E-07  0.667E-04    8.08      31.3  T
   4    -45.6188997 -0.100420E-08  0.290E-04    8.08      71.9  T
speedup  0.94
cpu  time for SCC    0.00 s
wall time for SCC    0.00 s
speedup  0.97
cpu  time for grad    0.01 s
wall time for grad    0.01 s
 E :    -45.35981343  G :  0.000365    pred/act E change: -0.124D-05 -0.545D-06
Maxdispl :   0.0053   ||displ|| :   0.0101   Lambda : -0.507D-06
Largest |displ|/coords:  0.0053 (   3)  0.0047 (   4)  0.0034 (   1)
................................................................................
.............................. CYCLE   38 ......................................
................................................................................
   1    -45.6189035 -0.456189E+02  0.497E-03    8.08       0.0  T
   2    -45.6189035 -0.579516E-08  0.373E-03    8.08       5.6  T
   3    -45.6189035 -0.447400E-08  0.479E-04    8.08      43.5  T
   4    -45.6189035 -0.743114E-09  0.206E-04    8.08     101.4  T
speedup  0.97
cpu  time for SCC    0.00 s
wall time for SCC    0.00 s
speedup  0.97
cpu  time for grad    0.01 s
wall time for grad    0.01 s
 E :    -45.35981379  G :  0.000261    pred/act E change: -0.447D-06 -0.361D-06
Maxdispl :   0.0050   ||displ|| :   0.0100   Lambda : -0.381D-06
Largest |displ|/coords:  0.0050 (   3)  0.0047 (   4)  0.0038 (  11)
................................................................................
.............................. CYCLE   39 ......................................
................................................................................
   1    -45.6188794 -0.456189E+02  0.425E-03    8.08       0.0  T
   2    -45.6188794 -0.677738E-08  0.319E-03    8.08       6.5  T
   3    -45.6188794 -0.391989E-08  0.517E-04    8.08      40.4  T
   4    -45.6188794 -0.102570E-08  0.175E-04    8.08     119.5  T
speedup  1.25
cpu  time for SCC    0.00 s
wall time for SCC    0.00 s
speedup  1.07
cpu  time for grad    0.01 s
wall time for grad    0.01 s
 E :    -45.35981405  G :  0.000213    pred/act E change: -0.253D-06 -0.259D-06
Maxdispl :   0.0035   ||displ|| :   0.0075   Lambda : -0.201D-06
Largest |displ|/coords:  0.0035 (   4)  0.0031 (   5)  0.0030 (   3)
................................................................................
.............................. CYCLE   40 ......................................
................................................................................
   1    -45.6188705 -0.456189E+02  0.346E-03    8.08       0.0  T
   2    -45.6188705 -0.369928E-08  0.260E-03    8.08       8.0  T
   3    -45.6188705 -0.216267E-08  0.405E-04    8.08      51.5  T
   4    -45.6188705 -0.573387E-09  0.118E-04    8.08     177.4  T
speedup  0.94
cpu  time for SCC    0.00 s
wall time for SCC    0.00 s
speedup  0.97
cpu  time for grad    0.01 s
wall time for grad    0.01 s
 E :    -45.35981420  G :  0.000200    pred/act E change: -0.190D-06 -0.143D-06
Maxdispl :   0.0027   ||displ|| :   0.0065   Lambda : -0.150D-06
Largest |displ|/coords:  0.0027 (   3)  0.0026 (  11)  0.0026 (   4)
................................................................................
.............................. CYCLE   41 ......................................
................................................................................
   1    -45.6188491 -0.456188E+02  0.347E-03    8.08       0.0  T
   2    -45.6188491 -0.291366E-08  0.258E-03    8.08       8.1  T
   3    -45.6188491 -0.212788E-08  0.415E-04    8.08      50.3  T
   4    -45.6188491 -0.374520E-09  0.111E-04    8.08     188.1  T
speedup  0.97
cpu  time for SCC    0.00 s
wall time for SCC    0.00 s
speedup  0.98
cpu  time for grad    0.01 s
wall time for grad    0.01 s
 E :    -45.35981430  G :  0.000158    pred/act E change: -0.100D-06 -0.106D-06
Maxdispl :   0.0016   ||displ|| :   0.0037   Lambda : -0.870D-07
Largest |displ|/coords:  0.0016 (   5)  0.0015 (   9)  0.0013 (   2)
................................................................................
.............................. CYCLE   42 ......................................
................................................................................
   1    -45.6188444 -0.456188E+02  0.249E-03    8.08       0.0  T
   2    -45.6188444 -0.108609E-08  0.184E-03    8.08      11.3  T
   3    -45.6188444 -0.951225E-09  0.307E-04    8.08      67.8  T
   4    -45.6188444 -0.107555E-09  0.799E-05    8.08     261.0  T
speedup  0.97
cpu  time for SCC    0.00 s
wall time for SCC    0.00 s
speedup  0.98
cpu  time for grad    0.01 s
wall time for grad    0.01 s
 E :    -45.35981436  G :  0.000103    pred/act E change: -0.751D-07 -0.616D-07
Maxdispl :   0.0011   ||displ|| :   0.0025   Lambda : -0.502D-07
Largest |displ|/coords:  0.0011 (   9)  0.0009 (   6)  0.0008 (   2)

   *** GEOMETRY OPTIMIZATION CONVERGED AFTER 42 ITERATIONS ***

------------------------------------------------------------------------
 total energy gain (kcal):     -0.6997
------------------------------------------------------------------------
================
 final structure:
================
$coord
       -1.04561084619829        3.19551788370396       -2.27130482139351      S 
       -0.97449926273340        5.22938248205097       -4.00008905531926      O 
       -3.75657868829877        2.09036700854302       -1.99342981628917      O 
        0.42963652900039        0.92030058706245       -3.41422183688176      O 
       -0.08434242628908        3.65906051217844        0.24149486405662      O 
       -1.33768386944504       -2.47250527564432        3.21136464947801      O 
       -1.13713352150443       -3.74732584099992        4.48034856477729      H 
       -4.07156778214167        1.84700507739669        2.79745659886795      O 
       -2.67336400353755        3.02194306891614        2.90235323123928      H 
       -4.13397915022559        1.99776351543079       -0.11453324571073      H 
       -3.35663274245560        0.19453922366946        3.21424978266083      H 
        2.68789670020992        0.16940688083943        2.73837265857272      O 
        1.94728226282150        1.67861595765281        1.98865695634762      H 
        0.31661394491799       -1.50500286268607        3.14430026397882      H 
        3.75427274011607       -0.55814243117955        1.39386111911326      H 
       -1.93054981078840       -2.98682689017349       -1.76896222041730      O 
       -3.64838585335772       -2.50548365166631       -2.11128000396623      H 
       -0.39159155327009       -0.69164137833189       -2.81301767117726      H 
       -1.73976164119115       -3.00873088619168        0.08084717065462      H 
        5.14233509249017       -1.54959122484378       -1.43849956563309      N 
        4.04055178130301       -0.56840215586720       -2.66520572629435      H 
        5.00655838670788       -3.40264240065005       -1.89361439101631      H 
        6.95653375164835       -1.00760719919515       -1.70914756232797      H 
$end
 
 Bond Distances (Angstroems)
 ---------------------------
S1-O2=1.4130         S1-O3=1.5562         S1-O4=1.5572         S1-O5=1.4447         O2-S1=1.4130         O3-S1=1.5562         
O3-H10=1.0153        O4-S1=1.5572         O4-H18=1.0088        O5-S1=1.4447         O6-H7=0.9578         O6-H14=1.0148        
H7-O6=0.9578         O8-H9=0.9680         O8-H11=0.9780        H9-O8=0.9680         H10-O3=1.0153        H11-O8=0.9780        
O12-H13=0.9741       O12-H15=0.9863       H13-O12=0.9741       H14-O6=1.0148        H15-O12=0.9863       O16-H17=0.9613       
O16-H19=0.9841       H17-O16=0.9613       H18-O4=1.0088        H19-O16=0.9841       N20-H21=1.0153       N20-H22=1.0123       
N20-H23=1.0121       H21-N20=1.0153       H22-N20=1.0123       H23-N20=1.0121       
 N  H  Rav=1.0133 sigma=0.0015  Rmin=1.0121  Rmax=1.0153     3
 O  H  Rav=0.9848 sigma=0.0203  Rmin=0.9578  Rmax=1.0153    10
 S  O  Rav=1.4928 sigma=0.0649  Rmin=1.4130  Rmax=1.5572     4
 
 selected bond angles (degree)
 --------------------
O3-S1-O2=111.84                O4-S1-O2=108.91                O4-S1-O3=102.02                O5-S1-O2=117.21                
O5-S1-O3=107.54                O5-S1-O4=108.19                H10-O3-S1=106.98               H18-O4-S1=108.38               
H14-O6-H7=106.52               H11-O8-H9=105.41               
 
 selected dihedral angles (degree)
 ---------------------------------
H10-O3-S1-O2=230.28           H10-O3-S1-O4=114.02           H10-O3-S1-O5=  0.31           H18-O4-S1-O2=212.46           
H18-O4-S1-O3=330.82           H18-O4-S1-O5= 84.05           
 
 CMA Distance (Angstroems)
 ---------------------------
R(CMA):  2.8252

========================================================================
 FINAL SINGLEPOINT CALCULATION ON OPTIMIZED GEOMETRY
========================================================================

 Ncao       : 59
 Nao        : 58
 Nshell     : 34
 Nel        : 72
 T(el)      :   300.0
 intcut     :    25.0
 scfconv/Eh :  0.100E-05
   qconv/e  :  0.100E-03
 intneglect :  0.100E-07
 broydamp   :      0.250
 iter      E             dE          RMSdq      gap      omega  full diag
   1    -45.6188444 -0.456188E+02  0.281E-05    8.08       0.0  T
   2    -45.6188444 -0.490274E-12  0.196E-05    8.08    1066.3  T
   3    -45.6188444 -0.540012E-12  0.539E-06    8.08    3867.2  T
speedup  0.87
cpu  time for SCC    0.00 s
wall time for SCC    0.00 s

   *** convergence criteria satisfied after 3 iterations ***

          eigenvalues
 #    :          24         25         26         27         28         29         30         31
 occ. :        2.000      2.000      2.000      2.000      2.000      2.000      2.000      2.000
 eps  :       -14.032    -13.844    -13.609    -13.149    -12.936    -12.791    -12.699    -12.693
 #    :          32         33         34         35         36         37         38         39
 occ. :        2.000      2.000      2.000      2.000      2.000      0.000      0.000      0.000
 eps  :       -12.568    -12.459    -12.183    -11.955    -11.266     -3.186     -1.139     -0.521
 #    :          40         41         42         43         44         45         46         47
 occ. :        0.000      0.000      0.000      0.000      0.000      0.000      0.000      0.000
 eps  :        -0.209      0.810      0.989      2.015      3.118      4.166      5.036      5.381


   #   Z            q   n(s)   n(p)   n(d)      C6AA      α(0)
   1  16 S      1.683  1.581  1.790  0.945    89.156    15.892
   2   8 O     -0.632  1.752  4.881  0.000    26.926     6.957
   3   8 O     -0.630  1.761  4.870  0.000    25.897     6.870
   4   8 O     -0.621  1.756  4.865  0.000    25.679     6.841
   5   8 O     -0.720  1.760  4.959  0.000    29.251     7.251
   6   8 O     -0.647  1.757  4.890  0.000    26.356     6.929
   7   1 H      0.288  0.712  0.000  0.000     0.757     1.367
   8   8 O     -0.603  1.755  4.848  0.000    25.243     6.781
   9   1 H      0.321  0.679  0.000  0.000     0.661     1.277
  10   1 H      0.389  0.611  0.000  0.000     0.502     1.111
  11   1 H      0.336  0.664  0.000  0.000     0.621     1.238
  12   8 O     -0.625  1.753  4.872  0.000    25.795     6.855
  13   1 H      0.317  0.683  0.000  0.000     0.671     1.287
  14   1 H      0.347  0.653  0.000  0.000     0.596     1.212
  15   1 H      0.316  0.684  0.000  0.000     0.674     1.290
  16   8 O     -0.606  1.753  4.853  0.000    25.334     6.793
  17   1 H      0.307  0.693  0.000  0.000     0.700     1.314
  18   1 H      0.391  0.609  0.000  0.000     0.499     1.108
  19   1 H      0.342  0.658  0.000  0.000     0.608     1.225
  20   7 N     -0.447  1.369  4.078  0.000    31.738     8.367
  21   1 H      0.180  0.820  0.000  0.000     1.215     1.726
  22   1 H      0.158  0.842  0.000  0.000     1.346     1.818
  23   1 H      0.156  0.844  0.000  0.000     1.359     1.826

 Mol. C6AA /au·bohr⁶  :       4505.958309
 Mol. C8AA /au·bohr⁸  :      98998.465387
 Mol. α(0) /au        :         97.334136

 
 Wiberg/Mayer (AO) data. WBOs > 0.1 written file <wbo>
 largest (>0.05) Wiberg bond orders for each atom
           total WBO             WBO to atom ...
     1  S   4.857    O    2 1.518    O    5 1.349    O    3 0.979    O    4 0.974
     2  O   1.827    S    1 1.518    O    5 0.125    O    3 0.085    O    4 0.081
     3  O   1.960    S    1 0.979    H   10 0.687    O    5 0.090    O    2 0.085    O    4 0.061
     4  O   1.968    S    1 0.974    H   18 0.698    O    5 0.086    O    2 0.081    O    3 0.061
     5  O   1.735    S    1 1.349    O    2 0.125    O    3 0.090    O    4 0.086
     6  O   1.876    H    7 0.907    H   14 0.751    H   19 0.066    O   12 0.052
     7  H   0.917    O    6 0.907
     8  O   1.949    H    9 0.876    H   11 0.836    H   10 0.145
     9  H   0.897    O    8 0.876
    10  H   0.849    O    3 0.687    O    8 0.145
    11  H   0.887    O    8 0.836
    12  O   1.920    H   13 0.855    H   15 0.822    H   14 0.127    O    6 0.052
    13  H   0.899    O   12 0.855
    14  H   0.880    O    6 0.751    O   12 0.127
    15  H   0.900    O   12 0.822    N   20 0.075
    16  O   1.931    H   17 0.900    H   19 0.814    H   18 0.131
    17  H   0.906    O   16 0.900
    18  H   0.847    O    4 0.698    O   16 0.131
    19  H   0.883    O   16 0.814    O    6 0.066
    20  N   3.020    H   23 0.973    H   22 0.972    H   21 0.953    H   15 0.075
    21  H   0.968    N   20 0.953
    22  H   0.975    N   20 0.972
    23  H   0.976    N   20 0.973
 MOs/occ written to file <molden.input>
 
molecular dipole:
                 x           y           z       tot (Debye)
 q only:        0.258      -1.867       0.808
   full:        0.458      -2.098       0.604       5.669
molecular quadrupole (traceless):
                xx          xy          yy          xz          yz          zz
 q only:        7.948       0.917      -5.372      -4.061       5.439      -2.576
  q+dip:        8.516       1.102      -6.216      -6.176       5.432      -2.300
   full:        8.785       1.139      -6.050      -6.315       5.211      -2.734

SCC energy    :     -45.6188444
rep           :       0.2587983
ES            :       0.2030267
AES           :      -0.0452476
AXC           :      -0.0057716
disp          :      -0.0167254
XB            :       0.0000000
fix           :       0.0000000
total E       :     -45.3598144
atomizationE  :       4.4428769     2787.95
(atE without considering molecular charge,
 total energy contains solvation terms)
H-L gap (eV)  :          8.0803
optimized geometry written to: xtbopt.xyz


------------------------------------------------------------------------
 * finished run on 2019/09/16 at 11:51:46.010     
------------------------------------------------------------------------
 total:
 * wall-time:     0 d,  0 h,  0 min,  1.015 sec
 *  cpu-time:     0 d,  0 h,  0 min,  1.002 sec
 * ratio c/w:     0.987 speedup
 SCF:
 * wall-time:     0 d,  0 h,  0 min,  0.135 sec
 *  cpu-time:     0 d,  0 h,  0 min,  0.132 sec
 * ratio c/w:     0.979 speedup
 ANC optimizer:
 * wall-time:     0 d,  0 h,  0 min,  0.854 sec
 *  cpu-time:     0 d,  0 h,  0 min,  0.846 sec
 * ratio c/w:     0.990 speedup

