      -----------------------------------------------------------      
     |                   =====================                   |     
     |                           x T B                           |     
     |                   =====================                   |     
     |                         S. Grimme                         |     
     |          Mulliken Center for Theoretical Chemistry        |     
     |                    University of Bonn                     |     
     |                 Version 6.0.1 (SAW181210)                 |     
      -----------------------------------------------------------      

   This program is distributed in the hope that it will be useful,
   but WITHOUT ANY WARRANTY; without even the implied warranty of
   MERCHANTABILITY or FITNESS FOR A PARTICULAR PURPOSE.
   
   FOR NON-COMMERCIAL, ACADEMIA USE ONLY.
   
   Cite this work as:
   S. Grimme, C. Bannwarth, P. Shushkov, J. Comput. Theory Chem., 2017,
   13, 1989-2009.
   C. Bannwarth, S. Ehlert and S. Grimme., ChemRxiv, 2018, preprint.
   http://doi.org/10.26434/chemrxiv.7246238.v1
   
   for sTDA-xTB:
   S. Grimme and C. Bannwarth, J. Chem. Phys., 2016, 145, 054103.
   
   in the mass-spec context:
   V. Asgeirsson, C. Bauer and S. Grimme, Chem. Sci., 2017, 8, 4879.
   
   if GBSA is used:
   P. Shushkov, F. März and S. Grimme, unpublished.
   
   for ANC optimizer:
   S. Grimme, unpublished.
   Rational Function algorithm used in ANCopt:
   F. Eckert, P. Pulay, H.-J. Werner, J. Comput. Chem., 1997, 18, 1473.
   
   with help from (in alphabetical order)
   C. Bannwarth, F. Bohle, G. Brandenburg, E. Caldeweyher, M. Checinski,
   S. Dohm, S. Ehlert, S. Ehrlich, F. März, H. Neugebauer, J. Pisarek,
   P. Pracht, P. Shushkov, and S. Spicher.
   
 * started run on 2019/09/16 at 11:50:02.762     
========================================================================
 # omp threads = 1
========================================================================
number of atoms            : 26
number of electrons        : 80
charge                     : 0
spin                       : .0
first test random number   : .3417

########################################################################
# WARNING! Please study the warnings concerning your input carefully
#  - XTBPATH is not set, using XTBHOME instead
#  - the use of '-opt' is discouraged, please use '--opt' next time
#  - the use of '-chrg' is discouraged, please use '--chrg' next time
#  - the use of '-uhf' is discouraged, please use '--uhf' next time
########################################################################

           ------------------------------------------------- 
          |                 G F N 2 - x T B                 |
          | Geometry, Frequencies, Noncovalent interactions |
          |            JCTC 2018 parametrisation            |
           ------------------------------------------------- 
      method parameters     
 k(s)        :  1.8500
 k(p)        :  2.2300
 k(d)        :  2.2300
 k(f)        :  2.0000
 kEN (H0ij)  : -2.0000
 D4 a1       :  0.5200
 D4 a2       :  5.0000
 D4 s6       :  1.0000
 D4 s8       :  2.7000
 D4 s9       :  5.0000
 alphaj      :  2.0000


            Z     q(EN)     CN     RAES       Cart. coordinates
     1  S   6.0    0.64    4.29    4.21    -2.57383     0.21954    -3.46006
     2  O   6.0   -0.31    1.21    1.80    -4.24813    -0.12686    -1.22291
     3  O   6.0   -0.31    1.20    1.80    -2.42530     2.95600    -4.10646
     4  O   6.0   -0.33    1.25    1.80     0.00310    -0.74481    -2.86206
     5  O   6.0   -0.25    2.08    1.84    -3.61059    -1.18665    -5.61882
     6  H   1.0    0.15    1.21    1.47    -5.27096    -0.56592    -6.00479
     7  O   6.0   -0.29    2.02    1.83    -0.12594    -5.01780     3.52646
     8  H   1.0    0.15    0.97    1.43     0.40261    -6.50841     4.42831
     9  H   1.0    0.16    1.03    1.43     1.02298    -4.87231     2.12167
    10  O   6.0   -0.27    1.95    1.82     3.99892    -0.63428     3.59435
    11  H   1.0    0.16    1.01    1.43     4.03002    -1.98295     2.37176
    12  H   1.0    0.16    1.02    1.43     3.82022     0.89388     2.62100
    13  O   6.0   -0.31    2.06    1.83     3.00419    -3.90624    -0.33350
    14  H   1.0    0.18    1.04    1.44     1.93088    -2.80898    -1.31259
    15  H   1.0    0.15    0.97    1.43     4.19227    -4.60454    -1.52324
    16  O   6.0   -0.29    2.01    1.83     0.00815     6.75927    -1.89129
    17  H   1.0    0.18    1.05    1.44    -0.95893     5.49899    -2.78070
    18  H   1.0    0.15    0.97    1.43    -0.33406     8.32584    -2.75349
    19  O   6.0   -0.30    2.07    1.83     1.96279     2.73401     0.43940
    20  H   1.0    0.17    1.04    1.43     1.67659     1.65055    -0.99547
    21  H   1.0    0.17    1.03    1.43     1.55515     4.41255    -0.13586
    22  N   5.0   -0.14    3.94    2.70    -1.61203    -0.09818     3.17966
    23  H   1.0    0.12    1.07    1.44    -2.89333    -0.11765     1.71599
    24  H   1.0    0.09    0.99    1.43    -2.44020     0.68503     4.75609
    25  H   1.0    0.11    1.06    1.44    -1.05395    -1.91889     3.57720
    26  H   1.0    0.10    1.03    1.43    -0.06062     0.95878     2.66935

  Z AO/shell   Hii/eV     exponent
  1     Wed Apr 25 08:07:45 CEST 2018   EN: 2.200 GM2: 0.406  GM3: 0.0800  RAES: 1.40
     1s    -10.707211    1.230000
  7     Wed Apr 25 08:07:45 CEST 2018   EN: 3.040 GM2: 0.461  GM3:-0.0640  RAES: 1.90
     2s    -16.686243    2.339881
     2p    -12.523956    2.014332
  8     Wed Apr 25 08:07:45 CEST 2018   EN: 3.440 GM2: 0.452  GM3:-0.0517  RAES: 1.80
     2s    -20.229985    2.439742
     2p    -15.503117    2.137023
 16     Tue Apr 24 11:44:34 CEST 2018   EN: 2.580 GM2: 0.340  GM3:-0.0502  RAES: 3.10
     3s    -20.029654    1.981333
     3p    -11.377694    2.025643
     3d     -0.420282    1.702555
 no old-style atom pair restraining (fixing) potential

molecular fragmentation (1/2 indicates fragments):
11111122222222222222222222
# atoms in fragment 1/2:     6    20
 fragment masses (1/2) :       97.07      108.11
CMA distance (Bohr)    :   6.144
constraining FC (au)   :  0.0500
           ------------------------------------------------- 
          |        Self-Consistent Charge Iterations        |
           ------------------------------------------------- 

 Ncao       : 65
 Nao        : 64
 Nshell     : 38
 Nel        : 80
 T(el)      :   300.0
 intcut     :    25.0
 scfconv/Eh :  0.100E-05
   qconv/e  :  0.100E-03
 intneglect :  0.100E-07
 broydamp   :      0.250
 iter      E             dE          RMSdq      gap      omega  full diag
   1    -50.6459320 -0.506459E+02  0.701E+00   10.39       0.0  T
   2    -50.6985591 -0.526272E-01  0.504E+00    9.91       1.0  T
   3    -50.7381971 -0.396379E-01  0.133E+00    8.45       1.0  T
   4    -50.7434298 -0.523268E-02  0.575E-01    8.99       1.0  T
   5    -50.7441590 -0.729240E-03  0.300E-01    8.94       1.0  T
   6    -50.7445681 -0.409050E-03  0.137E-01    8.93       1.0  T
   7    -50.7446714 -0.103328E-03  0.530E-02    8.95       1.0  T
   8    -50.7446839 -0.125599E-04  0.316E-02    8.94       1.0  T
   9    -50.7446894 -0.543709E-05  0.140E-02    8.94       1.4  T
  10    -50.7446906 -0.127086E-05  0.250E-03    8.94       7.8  T
  11    -50.7446907 -0.215948E-07  0.132E-03    8.93      14.9  T
  12    -50.7446907 -0.925068E-08  0.356E-04    8.94      55.1  T
  13    -50.7446907 -0.558614E-09  0.132E-04    8.94     148.1  T
speedup  1.01
cpu  time for SCC    0.01 s
wall time for SCC    0.01 s

   *** convergence criteria satisfied after 13 iterations ***

          eigenvalues
 #    :          28         29         30         31         32         33         34         35
 occ. :        2.000      2.000      2.000      2.000      2.000      2.000      2.000      2.000
 eps  :       -12.839    -12.611    -12.250    -12.104    -11.958    -11.689    -11.612    -11.482
 #    :          36         37         38         39         40         41         42         43
 occ. :        2.000      2.000      2.000      2.000      2.000      0.000      0.000      0.000
 eps  :       -11.334    -11.215    -11.031    -10.986    -10.828     -1.893     -0.830     -0.030
 #    :          44         45         46         47         48         49         50         51
 occ. :        0.000      0.000      0.000      0.000      0.000      0.000      0.000      0.000
 eps  :         0.731      1.301      1.553      1.793      3.006      3.768      4.019      5.339


   #   Z            q   n(s)   n(p)   n(d)      C6AA      α(0)
   1  16 S      1.605  1.585  1.834  0.975    90.951    16.051
   2   8 O     -0.758  1.774  4.985  0.000    30.349     7.386
   3   8 O     -0.756  1.780  4.976  0.000    30.277     7.377
   4   8 O     -0.750  1.766  4.984  0.000    30.115     7.358
   5   8 O     -0.545  1.718  4.828  0.000    23.886     6.598
   6   1 H      0.362  0.638  0.000  0.000     0.553     1.164
   7   8 O     -0.607  1.733  4.875  0.000    25.358     6.797
   8   1 H      0.286  0.714  0.000  0.000     0.764     1.373
   9   1 H      0.333  0.667  0.000  0.000     0.629     1.246
  10   8 O     -0.641  1.755  4.886  0.000    26.193     6.907
  11   1 H      0.300  0.700  0.000  0.000     0.722     1.334
  12   1 H      0.305  0.695  0.000  0.000     0.705     1.319
  13   8 O     -0.613  1.736  4.877  0.000    25.498     6.815
  14   1 H      0.341  0.659  0.000  0.000     0.608     1.225
  15   1 H      0.289  0.711  0.000  0.000     0.754     1.364
  16   8 O     -0.620  1.739  4.881  0.000    25.669     6.838
  17   1 H      0.329  0.671  0.000  0.000     0.640     1.257
  18   1 H      0.277  0.723  0.000  0.000     0.796     1.401
  19   8 O     -0.636  1.735  4.901  0.000    26.068     6.891
  20   1 H      0.315  0.685  0.000  0.000     0.676     1.292
  21   1 H      0.332  0.668  0.000  0.000     0.633     1.250
  22   7 N     -0.302  1.250  4.052  0.000    27.760     7.825
  23   1 H      0.299  0.701  0.000  0.000     0.715     1.325
  24   1 H      0.241  0.759  0.000  0.000     0.920     1.502
  25   1 H      0.309  0.691  0.000  0.000     0.687     1.298
  26   1 H      0.305  0.695  0.000  0.000     0.698     1.309

 Mol. C6AA /au·bohr⁶  :       5439.605597
 Mol. C8AA /au·bohr⁸  :     117900.300641
 Mol. α(0) /au        :        106.502322

 
 Wiberg/Mayer (AO) data. WBOs > 0.1 written file <wbo>
 largest (>0.05) Wiberg bond orders for each atom
           total WBO             WBO to atom ...
     1  S   4.910    O    3 1.304    O    4 1.295    O    2 1.280    O    5 0.993
     2  O   1.686    S    1 1.280    O    3 0.114    O    4 0.112    H   23 0.073    O    5 0.072
     3  O   1.676    S    1 1.304    O    2 0.114    O    4 0.109    O    5 0.074    H   17 0.051
     4  O   1.696    S    1 1.295    O    2 0.112    O    3 0.109    O    5 0.053
     5  O   2.045    S    1 0.993    H    6 0.845    O    3 0.074    O    2 0.072    O    4 0.053
     6  H   0.869    O    5 0.845
     7  O   1.860    H    8 0.907    H    9 0.843    H   25 0.059
     8  H   0.918    O    7 0.907
     9  H   0.889    O    7 0.843
    10  O   1.804    H   11 0.875    H   12 0.871
    11  H   0.910    O   10 0.875
    12  H   0.907    O   10 0.871
    13  O   1.871    H   15 0.905    H   14 0.829
    14  H   0.883    O   13 0.829
    15  H   0.916    O   13 0.905
    16  O   1.824    H   18 0.911    H   17 0.837
    17  H   0.892    O   16 0.837    O    3 0.051
    18  H   0.923    O   16 0.911
    19  O   1.869    H   20 0.860    H   21 0.844    H   26 0.051
    20  H   0.901    O   19 0.860
    21  H   0.890    O   19 0.844
    22  N   3.559    H   24 0.938    H   26 0.842    H   25 0.839    H   23 0.831
    23  H   0.910    N   22 0.831    O    2 0.073
    24  H   0.942    N   22 0.938
    25  H   0.904    N   22 0.839    O    7 0.059
    26  H   0.907    N   22 0.842    O   19 0.051
 MOs/occ written to file <molden.input>
 
molecular dipole:
                 x           y           z       tot (Debye)
 q only:       -0.571      -1.012       1.349
   full:       -0.946      -1.179      -0.006       3.842
molecular quadrupole (traceless):
                xx          xy          yy          xz          yz          zz
 q only:       -4.189      -3.694       1.624      -6.935       1.033       2.565
  q+dip:       -5.288      -6.335       2.594      -5.468      -0.152       2.694
   full:       -5.792      -6.568       2.885      -5.087      -0.036       2.907

SCC energy    :     -50.7446907
rep           :       0.3086770
ES            :       0.2927279
AES           :      -0.0726530
AXC           :      -0.0091010
disp          :      -0.0180060
XB            :       0.0000000
fix           :       0.0000000
total E       :     -50.4357180
atomizationE  :       4.9660221     3116.23
(atE without considering molecular charge,
 total energy contains solvation terms)
H-L gap (eV)  :          8.9354
           ------------------------------------------------- 
          |                 ===============                 |
          |                   A N C O P T                   |
          |                 ===============                 |
          |          Approximate Normal Coordinate          |
          |           Rational Function Optimizer           |
           ------------------------------------------------- 
dumping coords to <xtbopt.coord> and <xtbopt.log>
 optlevel               2
 Maxcycle             520
 Maxmicro              25
 Econv         1.000000000000000E-007
 Gconv         2.000000000000000E-004
 Maxdispl       1.00000000000000     
 Hlow          5.000000000000000E-003
 S6             20.0000000000000     
 Nvar               72

generating ANC from model Hessian ...
 Shifting diagonal of input Hessian by   4.930960660244457E-003
 Lowest  eigenvalues of input Hessian
   -0.000000   -0.000000   -0.000000   -0.000000    0.000000    0.000000
    0.005000    0.005038    0.005447    0.005535    0.005797    0.006026
    0.006267    0.007279    0.007493    0.008140    0.009309    0.009668
 Highest eigenvalues
    1.429984    1.432094    1.454961    3.141199    3.218380    3.311982
 
cpu  time for ANC gen    0.02 s
wall time for ANC gen    0.02 s
................................................................................
.............................. CYCLE    1 ......................................
................................................................................
   1    -50.7446907 -0.507447E+02  0.815E-05    8.94       0.0  T
   2    -50.7446907 -0.127329E-10  0.638E-05    8.94     307.6  T
   3    -50.7446907 -0.151914E-10  0.280E-05    8.94     700.9  T
speedup  1.03
cpu  time for SCC    0.00 s
wall time for SCC    0.00 s
speedup  0.99
cpu  time for grad    0.01 s
wall time for grad    0.01 s
 E :    -50.43571793  G :  0.162488    pred/act E change:  0.000D+00  0.493D-07
Maxdispl :   0.1216   ||displ|| :   0.3249   Lambda : -0.136D-01
Largest |displ|/coords:  0.1216 (  30)  0.1213 (  12)  0.0972 (  28)
................................................................................
.............................. CYCLE    2 ......................................
................................................................................
   1    -50.7468439 -0.507468E+02  0.275E-01    9.01       0.0  T
   2    -50.7469746 -0.130636E-03  0.209E-01    9.04       1.0  T
   3    -50.7470154 -0.408684E-04  0.819E-02    9.08       1.0  T
   4    -50.7470272 -0.117319E-04  0.159E-02    9.06       1.2  T
   5    -50.7470278 -0.568908E-06  0.545E-03    9.06       3.6  T
   6    -50.7470278 -0.479217E-07  0.223E-03    9.06       8.8  T
speedup  0.94
cpu  time for SCC    0.00 s
wall time for SCC    0.01 s
speedup  1.00
cpu  time for grad    0.01 s
wall time for grad    0.01 s
 E :    -50.44668059  G :  0.106787    pred/act E change:  0.000D+00 -0.110D-01
Maxdispl :   0.1172   ||displ|| :   0.2966   Lambda : -0.825D-02
Largest |displ|/coords:  0.1172 (  12)  0.0997 (  30)  0.0974 (  28)
................................................................................
.............................. CYCLE    3 ......................................
................................................................................
   1    -50.7512440 -0.507512E+02  0.216E-01    9.03       0.0  T
   2    -50.7513782 -0.134245E-03  0.163E-01    9.03       1.0  T
   3    -50.7514188 -0.405436E-04  0.823E-02    9.02       1.0  T
   4    -50.7514235 -0.467862E-05  0.155E-02    9.00       1.3  T
   5    -50.7514239 -0.423820E-06  0.522E-03    9.00       3.8  T
   6    -50.7514239 -0.424263E-07  0.199E-03    9.00       9.8  T
speedup  0.94
cpu  time for SCC    0.00 s
wall time for SCC    0.01 s
speedup  0.99
cpu  time for grad    0.01 s
wall time for grad    0.01 s
 E :    -50.45307329  G :  0.061527    pred/act E change: -0.752D-02 -0.639D-02
Maxdispl :   0.1245   ||displ|| :   0.2558   Lambda : -0.389D-02
Largest |displ|/coords:  0.1245 (  12)  0.0984 (   4)  0.0677 (  30)
................................................................................
.............................. CYCLE    4 ......................................
................................................................................
   1    -50.7537809 -0.507538E+02  0.206E-01    8.96       0.0  T
   2    -50.7538584 -0.774814E-04  0.156E-01    8.96       1.0  T
   3    -50.7538799 -0.215478E-04  0.625E-02    8.95       1.0  T
   4    -50.7538857 -0.583457E-05  0.133E-02    8.95       1.5  T
   5    -50.7538860 -0.283565E-06  0.412E-03    8.95       4.8  T
   6    -50.7538860 -0.225483E-07  0.149E-03    8.95      13.1  T
speedup  0.93
cpu  time for SCC    0.00 s
wall time for SCC    0.01 s
speedup  0.99
cpu  time for grad    0.01 s
wall time for grad    0.01 s
 E :    -50.45590562  G :  0.032032    pred/act E change: -0.449D-02 -0.283D-02
Maxdispl :   0.1303   ||displ|| :   0.3138   Lambda : -0.239D-02
Largest |displ|/coords:  0.1303 (  12)  0.1034 (   4)  0.0933 (   1)
................................................................................
.............................. CYCLE    5 ......................................
................................................................................
   1    -50.7572195 -0.507572E+02  0.243E-01    8.80       0.0  T
   2    -50.7572801 -0.605584E-04  0.184E-01    8.81       1.0  T
   3    -50.7573010 -0.209347E-04  0.511E-02    8.82       1.0  T
   4    -50.7573095 -0.848381E-05  0.158E-02    8.82       1.2  T
   5    -50.7573098 -0.299792E-06  0.362E-03    8.82       5.4  T
   6    -50.7573098 -0.183847E-07  0.165E-03    8.82      11.9  T
speedup  0.94
cpu  time for SCC    0.00 s
wall time for SCC    0.01 s
speedup  0.99
cpu  time for grad    0.01 s
wall time for grad    0.01 s
 E :    -50.45715414  G :  0.017649    pred/act E change: -0.207D-02 -0.125D-02
Maxdispl :   0.1785   ||displ|| :   0.4404   Lambda : -0.202D-02
Largest |displ|/coords:  0.1785 (  12)  0.1629 (   4)  0.1260 (   9)
................................................................................
.............................. CYCLE    6 ......................................
................................................................................
   1    -50.7508009 -0.507508E+02  0.471E-01    8.74       0.0  T
   2    -50.7508921 -0.911944E-04  0.355E-01    8.75       1.0  T
   3    -50.7509443 -0.522345E-04  0.538E-02    8.77       1.0  T
   4    -50.7509590 -0.146309E-04  0.202E-02    8.77       1.0  T
   5    -50.7509595 -0.532761E-06  0.455E-03    8.77       4.3  T
   6    -50.7509595 -0.211050E-07  0.265E-03    8.77       7.4  T
   7    -50.7509595 -0.135518E-07  0.799E-04    8.77      24.6  T
speedup  1.13
cpu  time for SCC    0.01 s
wall time for SCC    0.01 s
speedup  1.00
cpu  time for grad    0.01 s
wall time for grad    0.01 s
 E :    -50.45650868  G :  0.052555    pred/act E change: -0.131D-02  0.645D-03
Maxdispl :   0.1339   ||displ|| :   0.3940   Lambda : -0.731D-02
Largest |displ|/coords:  0.1339 (  22)  0.1188 (  12)  0.1118 (  10)
................................................................................
.............................. CYCLE    7 ......................................
................................................................................
   1    -50.7589706 -0.507590E+02  0.589E-01    8.79       0.0  T
   2    -50.7591498 -0.179209E-03  0.446E-01    8.79       1.0  T
   3    -50.7592635 -0.113649E-03  0.762E-02    8.79       1.0  T
   4    -50.7592902 -0.267031E-04  0.248E-02    8.79       1.0  T
   5    -50.7592913 -0.107748E-05  0.783E-03    8.79       2.5  T
   6    -50.7592913 -0.324618E-07  0.368E-03    8.79       5.3  T
   7    -50.7592913 -0.290851E-07  0.992E-04    8.79      19.8  T
speedup  0.97
cpu  time for SCC    0.01 s
wall time for SCC    0.01 s
speedup  1.00
cpu  time for grad    0.01 s
wall time for grad    0.01 s
 E :    -50.45668739  G :  0.043093    pred/act E change: -0.120D-02 -0.179D-03
Maxdispl :   0.0880   ||displ|| :   0.1706   Lambda : -0.164D-02
Largest |displ|/coords:  0.0880 (   1)  0.0541 (  12)  0.0436 (   8)
................................................................................
.............................. CYCLE    8 ......................................
................................................................................
   1    -50.7585441 -0.507585E+02  0.180E-01    8.79       0.0  T
   2    -50.7585550 -0.108125E-04  0.136E-01    8.79       1.0  T
   3    -50.7585629 -0.797726E-05  0.180E-02    8.80       1.1  T
   4    -50.7585644 -0.151737E-05  0.682E-03    8.80       2.9  T
   5    -50.7585645 -0.586148E-07  0.168E-03    8.80      11.7  T
   6    -50.7585645 -0.188283E-08  0.936E-04    8.80      20.9  T
speedup  1.07
cpu  time for SCC    0.01 s
wall time for SCC    0.01 s
speedup  1.01
cpu  time for grad    0.01 s
wall time for grad    0.01 s
 E :    -50.45792187  G :  0.015545    pred/act E change: -0.423D-02 -0.123D-02
Maxdispl :   0.2360   ||displ|| :   0.4359   Lambda : -0.196D-02
Largest |displ|/coords:  0.2360 (  12)  0.2221 (   4)  0.1002 (   9)
................................................................................
.............................. CYCLE    9 ......................................
................................................................................
   1    -50.7434887 -0.507435E+02  0.489E-01    8.78       0.0  T
   2    -50.7435842 -0.954394E-04  0.368E-01    8.78       1.0  T
   3    -50.7436465 -0.623504E-04  0.548E-02    8.79       1.0  T
   4    -50.7436606 -0.140511E-04  0.144E-02    8.79       1.4  T
   5    -50.7436608 -0.225771E-06  0.575E-03    8.79       3.4  T
   6    -50.7436608 -0.412160E-07  0.270E-03    8.79       7.3  T
   7    -50.7436608 -0.150436E-07  0.691E-04    8.79      28.4  T
speedup  1.11
cpu  time for SCC    0.01 s
wall time for SCC    0.01 s
speedup  0.91
cpu  time for grad    0.01 s
wall time for grad    0.01 s
 E :    -50.45657653  G :  0.061542    pred/act E change: -0.843D-03  0.135D-02
Maxdispl :   0.2286   ||displ|| :   0.4654   Lambda : -0.107D-01
Largest |displ|/coords:  0.2286 (  10)  0.2053 (  12)  0.1376 (  17)
................................................................................
.............................. CYCLE   10 ......................................
................................................................................
   1    -50.7632585 -0.507633E+02  0.754E-01    8.75       0.0  T
   2    -50.7635256 -0.267066E-03  0.570E-01    8.75       1.0  T
   3    -50.7637167 -0.191131E-03  0.919E-02    8.75       1.0  T
   4    -50.7637544 -0.376740E-04  0.197E-02    8.75       1.0  T
   5    -50.7637551 -0.656057E-06  0.101E-02    8.75       1.9  T
   6    -50.7637551 -0.494589E-07  0.448E-03    8.75       4.4  T
   7    -50.7637551 -0.431848E-07  0.972E-04    8.75      20.2  T
speedup  0.95
cpu  time for SCC    0.01 s
wall time for SCC    0.01 s
speedup  0.99
cpu  time for grad    0.01 s
wall time for grad    0.01 s
 E :    -50.45591308  G :  0.058404    pred/act E change: -0.116D-02  0.663D-03
Maxdispl :   0.1703   ||displ|| :   0.3474   Lambda : -0.595D-02
Largest |displ|/coords:  0.1703 (   5)  0.1124 (  17)  0.1105 (  18)
................................................................................
.............................. CYCLE   11 ......................................
................................................................................
   1    -50.7563883 -0.507564E+02  0.517E-01    8.90       0.0  T
   2    -50.7564549 -0.666242E-04  0.391E-01    8.89       1.0  T
   3    -50.7565108 -0.558664E-04  0.437E-02    8.89       1.0  T
   4    -50.7565186 -0.783499E-05  0.127E-02    8.89       1.5  T
   5    -50.7565190 -0.312263E-06  0.443E-03    8.90       4.4  T
   6    -50.7565190 -0.133176E-07  0.234E-03    8.90       8.4  T
speedup  1.13
cpu  time for SCC    0.01 s
wall time for SCC    0.01 s
speedup  1.07
cpu  time for grad    0.01 s
wall time for grad    0.01 s
 E :    -50.45829589  G :  0.017342    pred/act E change: -0.648D-02 -0.238D-02
Maxdispl :   0.1334   ||displ|| :   0.2805   Lambda : -0.148D-02
Largest |displ|/coords:  0.1334 (   4)  0.1134 (   5)  0.1087 (   9)
................................................................................
.............................. CYCLE   12 ......................................
................................................................................
   1    -50.7530607 -0.507531E+02  0.268E-01    8.84       0.0  T
   2    -50.7530748 -0.140831E-04  0.202E-01    8.84       1.0  T
   3    -50.7530873 -0.125340E-04  0.203E-02    8.85       1.0  T
   4    -50.7530889 -0.163319E-05  0.914E-03    8.85       2.1  T
   5    -50.7530890 -0.108517E-06  0.274E-03    8.85       7.2  T
   6    -50.7530890 -0.640333E-08  0.148E-03    8.85      13.3  T
speedup  1.11
cpu  time for SCC    0.01 s
wall time for SCC    0.01 s
speedup  0.98
cpu  time for grad    0.01 s
wall time for grad    0.01 s
 E :    -50.45857022  G :  0.028503    pred/act E change: -0.333D-02 -0.274D-03
Maxdispl :   0.0728   ||displ|| :   0.1220   Lambda : -0.863D-03
Largest |displ|/coords:  0.0728 (   1)  0.0448 (  14)  0.0405 (   3)
................................................................................
.............................. CYCLE   13 ......................................
................................................................................
   1    -50.7567426 -0.507567E+02  0.126E-01    8.82       0.0  T
   2    -50.7567512 -0.854993E-05  0.947E-02    8.82       1.0  T
   3    -50.7567576 -0.642500E-05  0.166E-02    8.82       1.2  T
   4    -50.7567586 -0.106517E-05  0.366E-03    8.82       5.4  T
   5    -50.7567587 -0.160661E-07  0.183E-03    8.82      10.7  T
speedup  0.87
cpu  time for SCC    0.00 s
wall time for SCC    0.00 s
speedup  0.97
cpu  time for grad    0.01 s
wall time for grad    0.01 s
 E :    -50.45899004  G :  0.010406    pred/act E change: -0.800D-03 -0.420D-03
Maxdispl :   0.1267   ||displ|| :   0.2146   Lambda : -0.524D-03
Largest |displ|/coords:  0.1267 (   1)  0.0941 (   4)  0.0630 (   2)
................................................................................
.............................. CYCLE   14 ......................................
................................................................................
   1    -50.7564407 -0.507564E+02  0.147E-01    8.82       0.0  T
   2    -50.7564444 -0.372657E-05  0.111E-01    8.82       1.0  T
   3    -50.7564478 -0.338471E-05  0.116E-02    8.82       1.7  T
   4    -50.7564482 -0.442860E-06  0.382E-03    8.82       5.1  T
   5    -50.7564482 -0.189920E-07  0.139E-03    8.82      14.1  T
   6    -50.7564482 -0.224194E-08  0.701E-04    8.82      28.0  T
speedup  0.94
cpu  time for SCC    0.00 s
wall time for SCC    0.01 s
speedup  0.99
cpu  time for grad    0.01 s
wall time for grad    0.01 s
 E :    -50.45930567  G :  0.012016    pred/act E change: -0.438D-03 -0.316D-03
Maxdispl :   0.1443   ||displ|| :   0.3196   Lambda : -0.591D-03
Largest |displ|/coords:  0.1443 (   1)  0.1108 (   4)  0.0896 (  11)
................................................................................
.............................. CYCLE   15 ......................................
................................................................................
   1    -50.7545017 -0.507545E+02  0.202E-01    8.85       0.0  T
   2    -50.7545093 -0.755809E-05  0.153E-01    8.85       1.0  T
   3    -50.7545160 -0.672698E-05  0.164E-02    8.84       1.2  T
   4    -50.7545168 -0.857877E-06  0.414E-03    8.85       4.7  T
   5    -50.7545169 -0.220054E-07  0.190E-03    8.85      10.3  T
   6    -50.7545169 -0.273361E-08  0.910E-04    8.85      21.6  T
speedup  1.09
cpu  time for SCC    0.01 s
wall time for SCC    0.01 s
speedup  1.04
cpu  time for grad    0.01 s
wall time for grad    0.01 s
 E :    -50.45971899  G :  0.018244    pred/act E change: -0.274D-03 -0.413D-03
Maxdispl :   0.2488   ||displ|| :   0.5363   Lambda : -0.106D-02
Largest |displ|/coords:  0.2488 (   1)  0.2257 (   4)  0.1438 (  11)
................................................................................
.............................. CYCLE   16 ......................................
................................................................................
   1    -50.7543456 -0.507543E+02  0.248E-01    8.92       0.0  T
   2    -50.7543556 -0.100433E-04  0.185E-01    8.92       1.0  T
   3    -50.7543623 -0.672948E-05  0.236E-02    8.92       1.0  T
   4    -50.7543639 -0.154788E-05  0.680E-03    8.93       2.9  T
   5    -50.7543639 -0.686424E-07  0.239E-03    8.93       8.2  T
   6    -50.7543640 -0.511809E-08  0.126E-03    8.93      15.6  T
speedup  1.11
cpu  time for SCC    0.01 s
wall time for SCC    0.01 s
speedup  0.98
cpu  time for grad    0.01 s
wall time for grad    0.01 s
 E :    -50.46050040  G :  0.021361    pred/act E change: -0.326D-03 -0.781D-03
Maxdispl :   0.2217   ||displ|| :   0.4997   Lambda : -0.108D-02
Largest |displ|/coords:  0.2217 (   1)  0.1741 (   4)  0.1490 (  11)
................................................................................
.............................. CYCLE   17 ......................................
................................................................................
   1    -50.7563700 -0.507564E+02  0.213E-01    9.00       0.0  T
   2    -50.7563814 -0.114037E-04  0.160E-01    9.00       1.0  T
   3    -50.7563884 -0.706496E-05  0.242E-02    9.00       1.0  T
   4    -50.7563902 -0.174339E-05  0.746E-03    9.00       2.6  T
   5    -50.7563903 -0.746338E-07  0.230E-03    9.00       8.5  T
   6    -50.7563903 -0.525575E-08  0.122E-03    9.00      16.1  T
speedup  0.93
cpu  time for SCC    0.00 s
wall time for SCC    0.01 s
speedup  0.98
cpu  time for grad    0.01 s
wall time for grad    0.01 s
 E :    -50.46119442  G :  0.012534    pred/act E change: -0.683D-03 -0.694D-03
Maxdispl :   0.2589   ||displ|| :   0.5322   Lambda : -0.739D-03
Largest |displ|/coords:  0.2589 (   1)  0.1737 (   4)  0.1504 (   2)
................................................................................
.............................. CYCLE   18 ......................................
................................................................................
   1    -50.7577613 -0.507578E+02  0.229E-01    9.03       0.0  T
   2    -50.7577683 -0.700361E-05  0.172E-01    9.03       1.0  T
   3    -50.7577760 -0.772784E-05  0.181E-02    9.04       1.1  T
   4    -50.7577767 -0.608729E-06  0.570E-03    9.04       3.4  T
   5    -50.7577767 -0.483025E-07  0.237E-03    9.04       8.3  T
   6    -50.7577767 -0.854430E-08  0.129E-03    9.04      15.2  T
speedup  0.74
cpu  time for SCC    0.00 s
wall time for SCC    0.01 s
speedup  0.90
cpu  time for grad    0.01 s
wall time for grad    0.01 s
 E :    -50.46168257  G :  0.013992    pred/act E change: -0.675D-03 -0.488D-03
Maxdispl :   0.2270   ||displ|| :   0.5318   Lambda : -0.759D-03
Largest |displ|/coords:  0.2270 (   4)  0.2076 (   1)  0.1518 (   2)
................................................................................
.............................. CYCLE   19 ......................................
................................................................................
   1    -50.7547948 -0.507548E+02  0.262E-01    9.05       0.0  T
   2    -50.7548095 -0.146938E-04  0.197E-01    9.06       1.0  T
   3    -50.7548231 -0.136243E-04  0.225E-02    9.07       1.0  T
   4    -50.7548248 -0.170161E-05  0.578E-03    9.06       3.4  T
   5    -50.7548249 -0.400545E-07  0.325E-03    9.06       6.0  T
   6    -50.7548249 -0.182049E-07  0.119E-03    9.06      16.5  T
   7    -50.7548249 -0.336335E-08  0.390E-04    9.06      50.3  T
speedup  0.94
cpu  time for SCC    0.01 s
wall time for SCC    0.01 s
speedup  0.98
cpu  time for grad    0.01 s
wall time for grad    0.01 s
 E :    -50.46196351  G :  0.021994    pred/act E change: -0.474D-03 -0.281D-03
Maxdispl :   0.0632   ||displ|| :   0.1915   Lambda : -0.790D-03
Largest |displ|/coords:  0.0632 (  19)  0.0598 (   2)  0.0581 (   3)
................................................................................
.............................. CYCLE   20 ......................................
................................................................................
   1    -50.7627355 -0.507627E+02  0.107E-01    9.16       0.0  T
   2    -50.7627423 -0.670629E-05  0.805E-02    9.15       1.0  T
   3    -50.7627471 -0.482748E-05  0.148E-02    9.14       1.3  T
   4    -50.7627479 -0.834852E-06  0.426E-03    9.14       4.6  T
   5    -50.7627479 -0.313524E-07  0.173E-03    9.15      11.4  T
speedup  0.89
cpu  time for SCC    0.00 s
wall time for SCC    0.00 s
speedup  0.98
cpu  time for grad    0.01 s
wall time for grad    0.01 s
 E :    -50.46228645  G :  0.011843    pred/act E change: -0.487D-03 -0.323D-03
Maxdispl :   0.1521   ||displ|| :   0.3945   Lambda : -0.101D-02
Largest |displ|/coords:  0.1521 (   4)  0.1436 (   9)  0.1297 (   1)
................................................................................
.............................. CYCLE   21 ......................................
................................................................................
   1    -50.7528352 -0.507528E+02  0.294E-01    9.05       0.0  T
   2    -50.7528548 -0.196408E-04  0.221E-01    9.05       1.0  T
   3    -50.7528741 -0.192574E-04  0.241E-02    9.06       1.0  T
   4    -50.7528762 -0.209575E-05  0.858E-03    9.06       2.3  T
   5    -50.7528763 -0.805607E-07  0.358E-03    9.06       5.5  T
   6    -50.7528763 -0.207801E-07  0.171E-03    9.06      11.5  T
   7    -50.7528763 -0.644027E-08  0.393E-04    9.06      49.9  T
speedup  0.97
cpu  time for SCC    0.01 s
wall time for SCC    0.01 s
speedup  0.99
cpu  time for grad    0.01 s
wall time for grad    0.01 s
 E :    -50.46184549  G :  0.035375    pred/act E change: -0.409D-03  0.441D-03
Maxdispl :   0.0519   ||displ|| :   0.1400   Lambda : -0.197D-02
Largest |displ|/coords:  0.0519 (   5)  0.0455 (  17)  0.0443 (   3)
................................................................................
.............................. CYCLE   22 ......................................
................................................................................
   1    -50.7605263 -0.507605E+02  0.163E-01    9.11       0.0  T
   2    -50.7605421 -0.157949E-04  0.123E-01    9.11       1.0  T
   3    -50.7605569 -0.148509E-04  0.231E-02    9.11       1.0  T
   4    -50.7605584 -0.151815E-05  0.772E-03    9.11       2.5  T
   5    -50.7605585 -0.836900E-07  0.273E-03    9.11       7.2  T
   6    -50.7605585 -0.819173E-08  0.131E-03    9.11      15.0  T
speedup  1.11
cpu  time for SCC    0.01 s
wall time for SCC    0.01 s
speedup  1.04
cpu  time for grad    0.01 s
wall time for grad    0.01 s
 E :    -50.46257542  G :  0.018589    pred/act E change: -0.581D-03 -0.730D-03
Maxdispl :   0.0985   ||displ|| :   0.2683   Lambda : -0.129D-02
Largest |displ|/coords:  0.0985 (   2)  0.0938 (  25)  0.0792 (   8)
................................................................................
.............................. CYCLE   23 ......................................
................................................................................
   1    -50.7590712 -0.507591E+02  0.227E-01    9.13       0.0  T
   2    -50.7590956 -0.243405E-04  0.171E-01    9.14       1.0  T
   3    -50.7591145 -0.189036E-04  0.277E-02    9.16       1.0  T
   4    -50.7591176 -0.311185E-05  0.898E-03    9.16       2.2  T
   5    -50.7591177 -0.112914E-06  0.341E-03    9.16       5.8  T
   6    -50.7591177 -0.118619E-07  0.184E-03    9.16      10.7  T
   7    -50.7591177 -0.546417E-08  0.430E-04    9.16      45.6  T
speedup  0.97
cpu  time for SCC    0.01 s
wall time for SCC    0.01 s
speedup  0.99
cpu  time for grad    0.01 s
wall time for grad    0.01 s
 E :    -50.46208081  G :  0.030961    pred/act E change: -0.100D-02  0.495D-03
Maxdispl :   0.0672   ||displ|| :   0.1376   Lambda : -0.166D-02
Largest |displ|/coords:  0.0672 (  25)  0.0423 (  13)  0.0400 (   3)
................................................................................
.............................. CYCLE   24 ......................................
................................................................................
   1    -50.7610660 -0.507611E+02  0.152E-01    9.15       0.0  T
   2    -50.7610773 -0.112427E-04  0.114E-01    9.14       1.0  T
   3    -50.7610852 -0.786607E-05  0.192E-02    9.13       1.0  T
   4    -50.7610866 -0.146969E-05  0.584E-03    9.13       3.4  T
   5    -50.7610867 -0.544921E-07  0.230E-03    9.13       8.5  T
speedup  0.91
cpu  time for SCC    0.00 s
wall time for SCC    0.00 s
speedup  0.98
cpu  time for grad    0.01 s
wall time for grad    0.01 s
 E :    -50.46295167  G :  0.009644    pred/act E change: -0.692D-03 -0.871D-03
Maxdispl :   0.0951   ||displ|| :   0.2822   Lambda : -0.535D-03
Largest |displ|/coords:  0.0951 (   2)  0.0926 (   4)  0.0922 (   6)
................................................................................
.............................. CYCLE   25 ......................................
................................................................................
   1    -50.7552808 -0.507553E+02  0.198E-01    9.11       0.0  T
   2    -50.7552920 -0.112157E-04  0.148E-01    9.11       1.0  T
   3    -50.7553028 -0.107838E-04  0.195E-02    9.13       1.0  T
   4    -50.7553040 -0.117031E-05  0.669E-03    9.13       2.9  T
   5    -50.7553041 -0.593075E-07  0.271E-03    9.13       7.2  T
   6    -50.7553041 -0.108578E-07  0.123E-03    9.13      15.9  T
speedup  0.93
cpu  time for SCC    0.00 s
wall time for SCC    0.01 s
speedup  0.98
cpu  time for grad    0.01 s
wall time for grad    0.01 s
 E :    -50.46259203  G :  0.028390    pred/act E change: -0.847D-03  0.360D-03
Maxdispl :   0.0729   ||displ|| :   0.1268   Lambda : -0.115D-02
Largest |displ|/coords:  0.0729 (   5)  0.0555 (  15)  0.0387 (   6)

generating ANC from model Hessian ...
 Shifting diagonal of input Hessian by   4.762705941830934E-003
 Lowest  eigenvalues of input Hessian
   -0.000000    0.000000    0.000000    0.000000    0.000000    0.000000
    0.005000    0.005050    0.005604    0.006112    0.006447    0.006664
    0.007074    0.007382    0.007951    0.008275    0.008736    0.008958
 Highest eigenvalues
    1.405830    1.409361    1.444360    2.570676    3.537707    3.649728
 
cpu  time for ANC gen    0.02 s
wall time for ANC gen    0.02 s
................................................................................
.............................. CYCLE   26 ......................................
................................................................................
   1    -50.7596368 -0.507596E+02  0.117E-01    9.17       0.0  T
   2    -50.7596448 -0.803773E-05  0.874E-02    9.17       1.0  T
   3    -50.7596513 -0.643194E-05  0.163E-02    9.15       1.2  T
   4    -50.7596522 -0.935319E-06  0.467E-03    9.15       4.2  T
   5    -50.7596522 -0.298262E-07  0.207E-03    9.16       9.5  T
   6    -50.7596522 -0.529083E-08  0.923E-04    9.15      21.2  T
   7    -50.7596523 -0.191123E-08  0.259E-04    9.15      75.8  T
speedup  0.97
cpu  time for SCC    0.01 s
wall time for SCC    0.01 s
speedup  0.96
cpu  time for grad    0.01 s
wall time for grad    0.01 s
 E :    -50.46313739  G :  0.013919    pred/act E change:  0.000D+00 -0.545D-03
Maxdispl :   0.1070   ||displ|| :   0.2207   Lambda : -0.690D-03
Largest |displ|/coords:  0.1070 (   2)  0.0827 (   1)  0.0618 (  14)
................................................................................
.............................. CYCLE   27 ......................................
................................................................................
   1    -50.7599586 -0.507600E+02  0.187E-01    9.14       0.0  T
   2    -50.7599631 -0.450854E-05  0.142E-01    9.14       1.0  T
   3    -50.7599687 -0.557294E-05  0.927E-03    9.15       2.1  T
   4    -50.7599690 -0.229496E-06  0.376E-03    9.15       5.2  T
   5    -50.7599690 -0.113637E-07  0.148E-03    9.15      13.3  T
   6    -50.7599690 -0.282222E-08  0.618E-04    9.15      31.7  T
speedup  1.07
cpu  time for SCC    0.01 s
wall time for SCC    0.01 s
speedup  1.04
cpu  time for grad    0.01 s
wall time for grad    0.01 s
 E :    -50.46365582  G :  0.007688    pred/act E change:  0.000D+00 -0.518D-03
Maxdispl :   0.2011   ||displ|| :   0.3830   Lambda : -0.732D-03
Largest |displ|/coords:  0.2011 (   2)  0.1624 (   1)  0.1178 (   5)
................................................................................
.............................. CYCLE   28 ......................................
................................................................................
   1    -50.7575833 -0.507576E+02  0.283E-01    9.13       0.0  T
   2    -50.7575933 -0.100661E-04  0.214E-01    9.14       1.0  T
   3    -50.7576053 -0.119750E-04  0.154E-02    9.14       1.3  T
   4    -50.7576060 -0.701651E-06  0.657E-03    9.15       3.0  T
   5    -50.7576060 -0.352656E-07  0.245E-03    9.14       8.0  T
   6    -50.7576061 -0.939551E-08  0.925E-04    9.14      21.2  T
speedup  1.11
cpu  time for SCC    0.01 s
wall time for SCC    0.01 s
speedup  1.04
cpu  time for grad    0.01 s
wall time for grad    0.01 s
 E :    -50.46403214  G :  0.019241    pred/act E change: -0.362D-03 -0.376D-03
Maxdispl :   0.1067   ||displ|| :   0.1803   Lambda : -0.534D-03
Largest |displ|/coords:  0.1067 (   2)  0.0698 (   1)  0.0672 (   5)
................................................................................
.............................. CYCLE   29 ......................................
................................................................................
   1    -50.7595754 -0.507596E+02  0.104E-01    9.12       0.0  T
   2    -50.7595785 -0.312856E-05  0.775E-02    9.12       1.0  T
   3    -50.7595806 -0.206647E-05  0.964E-03    9.14       2.0  T
   4    -50.7595811 -0.462573E-06  0.299E-03    9.14       6.6  T
   5    -50.7595811 -0.130188E-07  0.121E-03    9.13      16.2  T
speedup  1.11
cpu  time for SCC    0.00 s
wall time for SCC    0.00 s
speedup  1.04
cpu  time for grad    0.01 s
wall time for grad    0.01 s
 E :    -50.46437297  G :  0.009995    pred/act E change: -0.420D-03 -0.341D-03
Maxdispl :   0.2268   ||displ|| :   0.3844   Lambda : -0.566D-03
Largest |displ|/coords:  0.2268 (   2)  0.2035 (   1)  0.1165 (   5)
................................................................................
.............................. CYCLE   30 ......................................
................................................................................
   1    -50.7591413 -0.507591E+02  0.217E-01    9.11       0.0  T
   2    -50.7591513 -0.100577E-04  0.164E-01    9.13       1.0  T
   3    -50.7591598 -0.843800E-05  0.166E-02    9.16       1.2  T
   4    -50.7591612 -0.144007E-05  0.599E-03    9.15       3.3  T
   5    -50.7591613 -0.461516E-07  0.250E-03    9.15       7.9  T
   6    -50.7591613 -0.707970E-08  0.119E-03    9.15      16.4  T
speedup  1.11
cpu  time for SCC    0.01 s
wall time for SCC    0.01 s
speedup  1.05
cpu  time for grad    0.01 s
wall time for grad    0.01 s
 E :    -50.46474078  G :  0.012173    pred/act E change: -0.276D-03 -0.368D-03
Maxdispl :   0.2478   ||displ|| :   0.3743   Lambda : -0.509D-03
Largest |displ|/coords:  0.2478 (   2)  0.1696 (   1)  0.1081 (   5)
................................................................................
.............................. CYCLE   31 ......................................
................................................................................
   1    -50.7589041 -0.507589E+02  0.209E-01    9.12       0.0  T
   2    -50.7589141 -0.992334E-05  0.158E-01    9.14       1.0  T
   3    -50.7589221 -0.800802E-05  0.165E-02    9.17       1.2  T
   4    -50.7589235 -0.146123E-05  0.586E-03    9.16       3.3  T
   5    -50.7589236 -0.463671E-07  0.226E-03    9.16       8.7  T
   6    -50.7589236 -0.465205E-08  0.116E-03    9.16      16.9  T
speedup  1.11
cpu  time for SCC    0.01 s
wall time for SCC    0.01 s
speedup  1.05
cpu  time for grad    0.01 s
wall time for grad    0.01 s
 E :    -50.46509054  G :  0.010897    pred/act E change: -0.325D-03 -0.350D-03
Maxdispl :   0.3034   ||displ|| :   0.4382   Lambda : -0.516D-03
Largest |displ|/coords:  0.3034 (   2)  0.1865 (   1)  0.1131 (   6)
................................................................................
.............................. CYCLE   32 ......................................
................................................................................
   1    -50.7586992 -0.507587E+02  0.209E-01    9.15       0.0  T
   2    -50.7587052 -0.600807E-05  0.157E-01    9.16       1.0  T
   3    -50.7587109 -0.573980E-05  0.127E-02    9.18       1.5  T
   4    -50.7587116 -0.659568E-06  0.580E-03    9.18       3.4  T
   5    -50.7587116 -0.381250E-07  0.186E-03    9.17      10.6  T
   6    -50.7587116 -0.368391E-08  0.994E-04    9.17      19.7  T
speedup  0.93
cpu  time for SCC    0.00 s
wall time for SCC    0.01 s
speedup  0.96
cpu  time for grad    0.01 s
wall time for grad    0.01 s
 E :    -50.46537206  G :  0.012334    pred/act E change: -0.290D-03 -0.282D-03
Maxdispl :   0.2041   ||displ|| :   0.3608   Lambda : -0.588D-03
Largest |displ|/coords:  0.2041 (   2)  0.1612 (   1)  0.1078 (   3)
................................................................................
.............................. CYCLE   33 ......................................
................................................................................
   1    -50.7634634 -0.507635E+02  0.183E-01    9.13       0.0  T
   2    -50.7634742 -0.107655E-04  0.138E-01    9.14       1.0  T
   3    -50.7634817 -0.750814E-05  0.178E-02    9.17       1.1  T
   4    -50.7634833 -0.157537E-05  0.524E-03    9.16       3.7  T
   5    -50.7634833 -0.449089E-07  0.206E-03    9.16       9.5  T
   6    -50.7634833 -0.262715E-08  0.112E-03    9.16      17.5  T
speedup  0.93
cpu  time for SCC    0.00 s
wall time for SCC    0.01 s
speedup  0.97
cpu  time for grad    0.01 s
wall time for grad    0.01 s
 E :    -50.46546740  G :  0.018537    pred/act E change: -0.307D-03 -0.953D-04
Maxdispl :   0.2947   ||displ|| :   0.4708   Lambda : -0.902D-03
Largest |displ|/coords:  0.2947 (   2)  0.1913 (   1)  0.1403 (   4)
................................................................................
.............................. CYCLE   34 ......................................
................................................................................
   1    -50.7539493 -0.507539E+02  0.290E-01    9.11       0.0  T
   2    -50.7539732 -0.238532E-04  0.220E-01    9.13       1.0  T
   3    -50.7539984 -0.251723E-04  0.253E-02    9.20       1.0  T
   4    -50.7540008 -0.241456E-05  0.820E-03    9.18       2.4  T
   5    -50.7540008 -0.647540E-07  0.411E-03    9.18       4.8  T
   6    -50.7540009 -0.263533E-07  0.133E-03    9.18      14.8  T
   7    -50.7540009 -0.478413E-08  0.319E-04    9.18      61.6  T
speedup  0.95
cpu  time for SCC    0.01 s
wall time for SCC    0.01 s
speedup  0.98
cpu  time for grad    0.01 s
wall time for grad    0.01 s
 E :    -50.46539985  G :  0.028026    pred/act E change: -0.332D-03  0.676D-04
Maxdispl :   0.1291   ||displ|| :   0.2418   Lambda : -0.161D-02
Largest |displ|/coords:  0.1291 (   1)  0.1101 (  12)  0.0824 (   5)
................................................................................
.............................. CYCLE   35 ......................................
................................................................................
   1    -50.7622797 -0.507623E+02  0.243E-01    9.33       0.0  T
   2    -50.7623069 -0.271160E-04  0.184E-01    9.32       1.0  T
   3    -50.7623276 -0.207413E-04  0.289E-02    9.29       1.0  T
   4    -50.7623311 -0.353390E-05  0.706E-03    9.31       2.8  T
   5    -50.7623312 -0.784505E-07  0.342E-03    9.31       5.7  T
   6    -50.7623312 -0.588198E-08  0.164E-03    9.31      12.0  T
speedup  0.94
cpu  time for SCC    0.00 s
wall time for SCC    0.01 s
speedup  0.98
cpu  time for grad    0.01 s
wall time for grad    0.01 s
 E :    -50.46545085  G :  0.027623    pred/act E change: -0.551D-03 -0.510D-04
Maxdispl :   0.0703   ||displ|| :   0.1819   Lambda : -0.150D-02
Largest |displ|/coords:  0.0703 (  13)  0.0684 (  11)  0.0632 (   3)
................................................................................
.............................. CYCLE   36 ......................................
................................................................................
   1    -50.7608515 -0.507609E+02  0.184E-01    9.22       0.0  T
   2    -50.7608690 -0.174921E-04  0.139E-01    9.22       1.0  T
   3    -50.7608851 -0.161772E-04  0.226E-02    9.23       1.0  T
   4    -50.7608870 -0.183393E-05  0.710E-03    9.23       2.8  T
   5    -50.7608870 -0.659710E-07  0.281E-03    9.23       7.0  T
   6    -50.7608870 -0.106685E-07  0.132E-03    9.23      14.8  T
speedup  0.91
cpu  time for SCC    0.00 s
wall time for SCC    0.01 s
speedup  0.96
cpu  time for grad    0.01 s
wall time for grad    0.01 s
 E :    -50.46559533  G :  0.024568    pred/act E change: -0.852D-03 -0.144D-03
Maxdispl :   0.1244   ||displ|| :   0.2100   Lambda : -0.125D-02
Largest |displ|/coords:  0.1244 (  13)  0.0780 (   1)  0.0577 (  18)
................................................................................
.............................. CYCLE   37 ......................................
................................................................................
   1    -50.7641156 -0.507641E+02  0.220E-01    9.21       0.0  T
   2    -50.7641430 -0.273343E-04  0.166E-01    9.22       1.0  T
   3    -50.7641625 -0.194867E-04  0.297E-02    9.24       1.0  T
   4    -50.7641660 -0.357817E-05  0.802E-03    9.23       2.4  T
   5    -50.7641662 -0.112437E-06  0.320E-03    9.23       6.1  T
   6    -50.7641662 -0.578493E-08  0.167E-03    9.23      11.8  T
speedup  1.07
cpu  time for SCC    0.01 s
wall time for SCC    0.01 s
speedup  1.04
cpu  time for grad    0.01 s
wall time for grad    0.01 s
 E :    -50.46543663  G :  0.033541    pred/act E change: -0.775D-03  0.159D-03
Maxdispl :   0.0773   ||displ|| :   0.1963   Lambda : -0.169D-02
Largest |displ|/coords:  0.0773 (   2)  0.0743 (  20)  0.0592 (  13)
................................................................................
.............................. CYCLE   38 ......................................
................................................................................
   1    -50.7614018 -0.507614E+02  0.174E-01    9.27       0.0  T
   2    -50.7614141 -0.122310E-04  0.132E-01    9.27       1.0  T
   3    -50.7614261 -0.120783E-04  0.174E-02    9.28       1.1  T
   4    -50.7614271 -0.978817E-06  0.638E-03    9.28       3.1  T
   5    -50.7614272 -0.475097E-07  0.209E-03    9.28       9.4  T
   6    -50.7614272 -0.612618E-08  0.106E-03    9.28      18.5  T
speedup  1.11
cpu  time for SCC    0.01 s
wall time for SCC    0.01 s
speedup  1.05
cpu  time for grad    0.01 s
wall time for grad    0.01 s
 E :    -50.46580578  G :  0.023055    pred/act E change: -0.655D-03 -0.369D-03
Maxdispl :   0.0701   ||displ|| :   0.1535   Lambda : -0.878D-03
Largest |displ|/coords:  0.0701 (   2)  0.0630 (   1)  0.0613 (   4)
................................................................................
.............................. CYCLE   39 ......................................
................................................................................
   1    -50.7589695 -0.507590E+02  0.120E-01    9.27       0.0  T
   2    -50.7589760 -0.647882E-05  0.903E-02    9.27       1.0  T
   3    -50.7589810 -0.495603E-05  0.139E-02    9.27       1.4  T
   4    -50.7589817 -0.700094E-06  0.383E-03    9.27       5.1  T
   5    -50.7589817 -0.180757E-07  0.159E-03    9.27      12.3  T
speedup  1.11
cpu  time for SCC    0.00 s
wall time for SCC    0.00 s
speedup  1.05
cpu  time for grad    0.01 s
wall time for grad    0.01 s
 E :    -50.46607888  G :  0.013412    pred/act E change: -0.877D-03 -0.273D-03
Maxdispl :   0.1459   ||displ|| :   0.2316   Lambda : -0.454D-03
Largest |displ|/coords:  0.1459 (   1)  0.0908 (   3)  0.0802 (   2)
................................................................................
.............................. CYCLE   40 ......................................
................................................................................
   1    -50.7619666 -0.507620E+02  0.129E-01    9.25       0.0  T
   2    -50.7619740 -0.735417E-05  0.970E-02    9.25       1.0  T
   3    -50.7619789 -0.489785E-05  0.158E-02    9.27       1.2  T
   4    -50.7619798 -0.935112E-06  0.446E-03    9.27       4.4  T
   5    -50.7619798 -0.435457E-07  0.170E-03    9.26      11.6  T
   6    -50.7619798 -0.176624E-08  0.932E-04    9.26      21.0  T
speedup  0.91
cpu  time for SCC    0.00 s
wall time for SCC    0.01 s
speedup  0.96
cpu  time for grad    0.01 s
wall time for grad    0.01 s
 E :    -50.46606544  G :  0.017845    pred/act E change: -0.449D-03  0.134D-04
Maxdispl :   0.0700   ||displ|| :   0.1329   Lambda : -0.482D-03
Largest |displ|/coords:  0.0700 (   2)  0.0556 (   7)  0.0463 (  12)
................................................................................
.............................. CYCLE   41 ......................................
................................................................................
   1    -50.7621609 -0.507622E+02  0.113E-01    9.25       0.0  T
   2    -50.7621650 -0.411255E-05  0.851E-02    9.26       1.0  T
   3    -50.7621686 -0.357481E-05  0.110E-02    9.28       1.8  T
   4    -50.7621691 -0.482129E-06  0.304E-03    9.27       6.5  T
   5    -50.7621691 -0.108861E-07  0.136E-03    9.27      14.4  T
   6    -50.7621691 -0.202667E-08  0.609E-04    9.27      32.2  T
speedup  1.11
cpu  time for SCC    0.01 s
wall time for SCC    0.01 s
speedup  1.04
cpu  time for grad    0.01 s
wall time for grad    0.01 s
 E :    -50.46623671  G :  0.009750    pred/act E change: -0.239D-03 -0.171D-03
Maxdispl :   0.1057   ||displ|| :   0.1706   Lambda : -0.266D-03
Largest |displ|/coords:  0.1057 (   2)  0.0729 (   4)  0.0500 (   3)
................................................................................
.............................. CYCLE   42 ......................................
................................................................................
   1    -50.7584780 -0.507585E+02  0.106E-01    9.29       0.0  T
   2    -50.7584812 -0.322631E-05  0.802E-02    9.30       1.0  T
   3    -50.7584842 -0.302822E-05  0.936E-03    9.31       2.1  T
   4    -50.7584846 -0.371397E-06  0.342E-03    9.31       5.7  T
   5    -50.7584846 -0.133937E-07  0.128E-03    9.31      15.3  T
   6    -50.7584846 -0.182121E-08  0.616E-04    9.31      31.9  T
speedup  0.94
cpu  time for SCC    0.00 s
wall time for SCC    0.01 s
speedup  0.98
cpu  time for grad    0.01 s
wall time for grad    0.01 s
 E :    -50.46627924  G :  0.011571    pred/act E change: -0.245D-03 -0.425D-04
Maxdispl :   0.0442   ||displ|| :   0.0761   Lambda : -0.192D-03
Largest |displ|/coords:  0.0442 (   2)  0.0294 (  10)  0.0250 (  17)
................................................................................
.............................. CYCLE   43 ......................................
................................................................................
   1    -50.7618272 -0.507618E+02  0.568E-02    9.32       0.0  T
   2    -50.7618294 -0.215804E-05  0.427E-02    9.32       1.0  T
   3    -50.7618309 -0.154123E-05  0.820E-03    9.30       2.4  T
   4    -50.7618312 -0.291066E-06  0.235E-03    9.31       8.4  T
   5    -50.7618312 -0.868276E-08  0.918E-04    9.31      21.4  T
speedup  1.11
cpu  time for SCC    0.00 s
wall time for SCC    0.00 s
speedup  1.04
cpu  time for grad    0.01 s
wall time for grad    0.01 s
 E :    -50.46636482  G :  0.004514    pred/act E change: -0.137D-03 -0.856D-04
Maxdispl :   0.1113   ||displ|| :   0.1890   Lambda : -0.109D-03
Largest |displ|/coords:  0.1113 (   2)  0.0721 (   3)  0.0684 (   1)
................................................................................
.............................. CYCLE   44 ......................................
................................................................................
   1    -50.7613534 -0.507614E+02  0.872E-02    9.28       0.0  T
   2    -50.7613559 -0.244873E-05  0.657E-02    9.29       1.0  T
   3    -50.7613579 -0.200550E-05  0.895E-03    9.31       2.2  T
   4    -50.7613582 -0.326682E-06  0.247E-03    9.31       7.9  T
   5    -50.7613582 -0.857590E-08  0.117E-03    9.30      16.8  T
speedup  0.87
cpu  time for SCC    0.00 s
wall time for SCC    0.00 s
speedup  0.96
cpu  time for grad    0.01 s
wall time for grad    0.01 s
 E :    -50.46641884  G :  0.005940    pred/act E change: -0.966D-04 -0.540D-04
Maxdispl :   0.0819   ||displ|| :   0.1382   Lambda : -0.749D-04
Largest |displ|/coords:  0.0819 (   2)  0.0598 (   3)  0.0566 (   4)
................................................................................
.............................. CYCLE   45 ......................................
................................................................................
   1    -50.7613455 -0.507613E+02  0.632E-02    9.31       0.0  T
   2    -50.7613462 -0.703856E-06  0.476E-02    9.31       1.0  T
   3    -50.7613469 -0.722429E-06  0.493E-03    9.33       4.0  T
   4    -50.7613470 -0.731521E-07  0.201E-03    9.33       9.8  T
   5    -50.7613470 -0.524761E-08  0.710E-04    9.32      27.6  T
speedup  1.11
cpu  time for SCC    0.01 s
wall time for SCC    0.00 s
speedup  0.96
cpu  time for grad    0.01 s
wall time for grad    0.01 s
 E :    -50.46648068  G :  0.004262    pred/act E change: -0.563D-04 -0.618D-04
Maxdispl :   0.1736   ||displ|| :   0.3163   Lambda : -0.145D-03
Largest |displ|/coords:  0.1736 (   2)  0.1505 (   3)  0.1276 (   4)
................................................................................
.............................. CYCLE   46 ......................................
................................................................................
   1    -50.7606265 -0.507606E+02  0.147E-01    9.33       0.0  T
   2    -50.7606303 -0.372246E-05  0.110E-01    9.34       1.0  T
   3    -50.7606341 -0.383311E-05  0.118E-02    9.34       1.7  T
   4    -50.7606345 -0.383026E-06  0.508E-03    9.35       3.9  T
   5    -50.7606345 -0.315823E-07  0.170E-03    9.35      11.5  T
   6    -50.7606345 -0.393734E-08  0.102E-03    9.35      19.3  T
speedup  1.11
cpu  time for SCC    0.01 s
wall time for SCC    0.01 s
speedup  1.05
cpu  time for grad    0.01 s
wall time for grad    0.01 s
 E :    -50.46656115  G :  0.005727    pred/act E change: -0.382D-04 -0.805D-04
Maxdispl :   0.0734   ||displ|| :   0.1390   Lambda : -0.854D-04
Largest |displ|/coords:  0.0734 (   3)  0.0733 (   6)  0.0455 (   2)
................................................................................
.............................. CYCLE   47 ......................................
................................................................................
   1    -50.7624124 -0.507624E+02  0.542E-02    9.36       0.0  T
   2    -50.7624132 -0.762022E-06  0.405E-02    9.36       1.0  T
   3    -50.7624138 -0.575188E-06  0.607E-03    9.35       3.2  T
   4    -50.7624139 -0.944117E-07  0.254E-03    9.35       7.7  T
   5    -50.7624139 -0.703101E-08  0.660E-04    9.35      29.7  T
speedup  1.04
cpu  time for SCC    0.00 s
wall time for SCC    0.00 s
speedup  1.02
cpu  time for grad    0.01 s
wall time for grad    0.01 s
 E :    -50.46660329  G :  0.005396    pred/act E change: -0.798D-04 -0.421D-04
Maxdispl :   0.1209   ||displ|| :   0.2171   Lambda : -0.689D-04
Largest |displ|/coords:  0.1209 (   2)  0.1044 (   3)  0.0740 (   5)
................................................................................
.............................. CYCLE   48 ......................................
................................................................................
   1    -50.7614673 -0.507615E+02  0.943E-02    9.35       0.0  T
   2    -50.7614687 -0.142277E-05  0.707E-02    9.35       1.0  T
   3    -50.7614699 -0.122020E-05  0.731E-03    9.35       2.7  T
   4    -50.7614701 -0.184330E-06  0.219E-03    9.35       8.9  T
   5    -50.7614701 -0.696982E-08  0.101E-03    9.35      19.4  T
speedup  0.87
cpu  time for SCC    0.00 s
wall time for SCC    0.00 s
speedup  0.95
cpu  time for grad    0.01 s
wall time for grad    0.01 s
 E :    -50.46664828  G :  0.004467    pred/act E change: -0.435D-04 -0.450D-04
Maxdispl :   0.1446   ||displ|| :   0.2632   Lambda : -0.101D-03
Largest |displ|/coords:  0.1446 (   3)  0.1085 (   6)  0.1034 (   2)
................................................................................
.............................. CYCLE   49 ......................................
................................................................................
   1    -50.7619006 -0.507619E+02  0.992E-02    9.35       0.0  T
   2    -50.7619024 -0.177528E-05  0.744E-02    9.35       1.0  T
   3    -50.7619044 -0.205481E-05  0.907E-03    9.35       2.2  T
   4    -50.7619046 -0.162625E-06  0.296E-03    9.35       6.6  T
   5    -50.7619046 -0.133430E-07  0.118E-03    9.35      16.6  T
speedup  0.89
cpu  time for SCC    0.00 s
wall time for SCC    0.00 s
speedup  0.96
cpu  time for grad    0.01 s
wall time for grad    0.01 s
 E :    -50.46670357  G :  0.004357    pred/act E change: -0.361D-04 -0.553D-04
Maxdispl :   0.1197   ||displ|| :   0.2232   Lambda : -0.756D-04
Largest |displ|/coords:  0.1197 (   3)  0.1107 (   6)  0.0765 (   2)
................................................................................
.............................. CYCLE   50 ......................................
................................................................................
   1    -50.7617025 -0.507617E+02  0.800E-02    9.34       0.0  T
   2    -50.7617034 -0.849076E-06  0.600E-02    9.34       1.0  T
   3    -50.7617041 -0.673459E-06  0.630E-03    9.34       3.1  T
   4    -50.7617042 -0.119208E-06  0.212E-03    9.34       9.2  T
   5    -50.7617042 -0.567935E-08  0.751E-04    9.34      26.1  T
speedup  0.89
cpu  time for SCC    0.00 s
wall time for SCC    0.00 s
speedup  0.95
cpu  time for grad    0.01 s
wall time for grad    0.01 s
 E :    -50.46675839  G :  0.004723    pred/act E change: -0.540D-04 -0.548D-04
Maxdispl :   0.1815   ||displ|| :   0.3054   Lambda : -0.145D-03
Largest |displ|/coords:  0.1815 (   6)  0.1210 (   3)  0.0874 (   5)
................................................................................
.............................. CYCLE   51 ......................................
................................................................................
   1    -50.7638586 -0.507639E+02  0.996E-02    9.35       0.0  T
   2    -50.7638608 -0.221147E-05  0.751E-02    9.35       1.0  T
   3    -50.7638628 -0.200215E-05  0.980E-03    9.35       2.0  T
   4    -50.7638631 -0.271552E-06  0.365E-03    9.35       5.4  T
   5    -50.7638631 -0.129330E-07  0.110E-03    9.35      17.8  T
   6    -50.7638631 -0.879105E-09  0.615E-04    9.35      31.9  T
speedup  0.94
cpu  time for SCC    0.01 s
wall time for SCC    0.01 s
speedup  0.98
cpu  time for grad    0.01 s
wall time for grad    0.01 s
 E :    -50.46681301  G :  0.005784    pred/act E change: -0.397D-04 -0.546D-04
Maxdispl :   0.2596   ||displ|| :   0.4552   Lambda : -0.174D-03
Largest |displ|/coords:  0.2596 (   3)  0.1813 (   2)  0.1626 (   6)
................................................................................
.............................. CYCLE   52 ......................................
................................................................................
   1    -50.7609742 -0.507610E+02  0.162E-01    9.33       0.0  T
   2    -50.7609789 -0.467359E-05  0.121E-01    9.33       1.0  T
   3    -50.7609832 -0.428460E-05  0.124E-02    9.34       1.6  T
   4    -50.7609837 -0.583180E-06  0.437E-03    9.33       4.5  T
   5    -50.7609838 -0.265949E-07  0.193E-03    9.33      10.1  T
   6    -50.7609838 -0.519257E-08  0.917E-04    9.33      21.4  T
speedup  0.94
cpu  time for SCC    0.00 s
wall time for SCC    0.01 s
speedup  0.98
cpu  time for grad    0.01 s
wall time for grad    0.01 s
 E :    -50.46687144  G :  0.008783    pred/act E change: -0.790D-04 -0.584D-04
Maxdispl :   0.0490   ||displ|| :   0.0987   Lambda : -0.156D-03
Largest |displ|/coords:  0.0490 (   8)  0.0481 (   6)  0.0336 (   7)

generating ANC from model Hessian ...
 Shifting diagonal of input Hessian by   4.735129384908880E-003
 Lowest  eigenvalues of input Hessian
   -0.000000   -0.000000   -0.000000   -0.000000   -0.000000    0.000000
    0.005000    0.005038    0.005526    0.005711    0.006210    0.006396
    0.006708    0.007774    0.008189    0.008486    0.009364    0.009896
 Highest eigenvalues
    1.401995    1.413315    1.444511    2.529042    3.518068    3.659536
 
cpu  time for ANC gen    0.02 s
wall time for ANC gen    0.02 s
................................................................................
.............................. CYCLE   53 ......................................
................................................................................
   1    -50.7627978 -0.507628E+02  0.472E-02    9.33       0.0  T
   2    -50.7627987 -0.855529E-06  0.351E-02    9.33       1.0  T
   3    -50.7627993 -0.665812E-06  0.647E-03    9.33       3.0  T
   4    -50.7627994 -0.888150E-07  0.155E-03    9.33      12.7  T
   5    -50.7627994 -0.262280E-08  0.616E-04    9.33      31.9  T
   6    -50.7627994 -0.405002E-09  0.311E-04    9.33      63.0  T
speedup  1.13
cpu  time for SCC    0.01 s
wall time for SCC    0.01 s
speedup  1.01
cpu  time for grad    0.01 s
wall time for grad    0.01 s
 E :    -50.46694966  G :  0.006651    pred/act E change:  0.000D+00 -0.782D-04
Maxdispl :   0.0767   ||displ|| :   0.1193   Lambda : -0.190D-03
Largest |displ|/coords:  0.0767 (   3)  0.0518 (   8)  0.0351 (   6)
................................................................................
.............................. CYCLE   54 ......................................
................................................................................
   1    -50.7633234 -0.507633E+02  0.824E-02    9.33       0.0  T
   2    -50.7633245 -0.114548E-05  0.622E-02    9.33       1.0  T
   3    -50.7633256 -0.107562E-05  0.575E-03    9.33       3.4  T
   4    -50.7633257 -0.140171E-06  0.208E-03    9.33       9.4  T
   5    -50.7633258 -0.629321E-08  0.866E-04    9.33      22.7  T
speedup  0.89
cpu  time for SCC    0.00 s
wall time for SCC    0.00 s
speedup  0.96
cpu  time for grad    0.01 s
wall time for grad    0.01 s
 E :    -50.46709969  G :  0.003371    pred/act E change:  0.000D+00 -0.150D-03
Maxdispl :   0.2081   ||displ|| :   0.3022   Lambda : -0.282D-03
Largest |displ|/coords:  0.2081 (   3)  0.1336 (   6)  0.0951 (   8)
................................................................................
.............................. CYCLE   55 ......................................
................................................................................
   1    -50.7625350 -0.507625E+02  0.195E-01    9.34       0.0  T
   2    -50.7625395 -0.449852E-05  0.148E-01    9.34       1.0  T
   3    -50.7625454 -0.584978E-05  0.109E-02    9.34       1.8  T
   4    -50.7625456 -0.257478E-06  0.421E-03    9.34       4.7  T
   5    -50.7625457 -0.195983E-07  0.188E-03    9.34      10.4  T
   6    -50.7625457 -0.587831E-08  0.668E-04    9.34      29.4  T
   7    -50.7625457 -0.144296E-08  0.203E-04    9.34      96.7  T
speedup  0.97
cpu  time for SCC    0.01 s
wall time for SCC    0.01 s
speedup  1.02
cpu  time for grad    0.01 s
wall time for grad    0.01 s
 E :    -50.46728655  G :  0.007716    pred/act E change: -0.962D-04 -0.187D-03
Maxdispl :   0.2100   ||displ|| :   0.3029   Lambda : -0.232D-03
Largest |displ|/coords:  0.2100 (   3)  0.1090 (   6)  0.0793 (   1)
................................................................................
.............................. CYCLE   56 ......................................
................................................................................
   1    -50.7623562 -0.507624E+02  0.140E-01    9.34       0.0  T
   2    -50.7623591 -0.293553E-05  0.105E-01    9.34       1.0  T
   3    -50.7623613 -0.222226E-05  0.123E-02    9.34       1.6  T
   4    -50.7623617 -0.426342E-06  0.381E-03    9.34       5.1  T
   5    -50.7623618 -0.216404E-07  0.134E-03    9.34      14.6  T
   6    -50.7623618 -0.197803E-08  0.739E-04    9.34      26.5  T
speedup  1.11
cpu  time for SCC    0.01 s
wall time for SCC    0.01 s
speedup  1.04
cpu  time for grad    0.01 s
wall time for grad    0.01 s
 E :    -50.46741297  G :  0.006488    pred/act E change: -0.154D-03 -0.126D-03
Maxdispl :   0.2819   ||displ|| :   0.3782   Lambda : -0.282D-03
Largest |displ|/coords:  0.2819 (   3)  0.1355 (   6)  0.1259 (   7)
................................................................................
.............................. CYCLE   57 ......................................
................................................................................
   1    -50.7607685 -0.507608E+02  0.196E-01    9.33       0.0  T
   2    -50.7607740 -0.555570E-05  0.149E-01    9.33       1.0  T
   3    -50.7607811 -0.703096E-05  0.125E-02    9.33       1.6  T
   4    -50.7607814 -0.332301E-06  0.373E-03    9.33       5.3  T
   5    -50.7607814 -0.158385E-07  0.199E-03    9.33       9.9  T
   6    -50.7607814 -0.648880E-08  0.764E-04    9.33      25.7  T
speedup  1.09
cpu  time for SCC    0.01 s
wall time for SCC    0.01 s
speedup  1.04
cpu  time for grad    0.01 s
wall time for grad    0.01 s
 E :    -50.46757305  G :  0.012734    pred/act E change: -0.127D-03 -0.160D-03
Maxdispl :   0.1855   ||displ|| :   0.2962   Lambda : -0.457D-03
Largest |displ|/coords:  0.1855 (   3)  0.0980 (   7)  0.0835 (   8)
................................................................................
.............................. CYCLE   58 ......................................
................................................................................
   1    -50.7639437 -0.507639E+02  0.114E-01    9.32       0.0  T
   2    -50.7639482 -0.445912E-05  0.856E-02    9.32       1.0  T
   3    -50.7639517 -0.355567E-05  0.133E-02    9.32       1.5  T
   4    -50.7639523 -0.572469E-06  0.426E-03    9.32       4.6  T
   5    -50.7639523 -0.303000E-07  0.152E-03    9.32      12.9  T
   6    -50.7639523 -0.305885E-08  0.811E-04    9.32      24.2  T
speedup  0.94
cpu  time for SCC    0.00 s
wall time for SCC    0.01 s
speedup  0.98
cpu  time for grad    0.01 s
wall time for grad    0.01 s
 E :    -50.46774697  G :  0.007699    pred/act E change: -0.161D-03 -0.174D-03
Maxdispl :   0.2535   ||displ|| :   0.3128   Lambda : -0.310D-03
Largest |displ|/coords:  0.2535 (   3)  0.0946 (   6)  0.0890 (   1)
................................................................................
.............................. CYCLE   59 ......................................
................................................................................
   1    -50.7621410 -0.507621E+02  0.151E-01    9.31       0.0  T
   2    -50.7621437 -0.265137E-05  0.113E-01    9.31       1.0  T
   3    -50.7621457 -0.207914E-05  0.976E-03    9.32       2.0  T
   4    -50.7621461 -0.382199E-06  0.356E-03    9.31       5.5  T
   5    -50.7621461 -0.243440E-07  0.147E-03    9.31      13.4  T
   6    -50.7621461 -0.226769E-08  0.763E-04    9.31      25.7  T
speedup  0.88
cpu  time for SCC    0.00 s
wall time for SCC    0.01 s
speedup  0.94
cpu  time for grad    0.01 s
wall time for grad    0.01 s
 E :    -50.46794096  G :  0.008781    pred/act E change: -0.248D-03 -0.194D-03
Maxdispl :   0.1341   ||displ|| :   0.1829   Lambda : -0.222D-03
Largest |displ|/coords:  0.1341 (   3)  0.0686 (   1)  0.0612 (   9)
................................................................................
.............................. CYCLE   60 ......................................
................................................................................
   1    -50.7628034 -0.507628E+02  0.969E-02    9.31       0.0  T
   2    -50.7628051 -0.169602E-05  0.728E-02    9.31       1.0  T
   3    -50.7628064 -0.129758E-05  0.877E-03    9.32       2.2  T
   4    -50.7628066 -0.249763E-06  0.275E-03    9.32       7.1  T
   5    -50.7628066 -0.868996E-08  0.976E-04    9.32      20.1  T
speedup  1.11
cpu  time for SCC    0.00 s
wall time for SCC    0.00 s
speedup  1.04
cpu  time for grad    0.01 s
wall time for grad    0.01 s
 E :    -50.46809013  G :  0.006527    pred/act E change: -0.170D-03 -0.149D-03
Maxdispl :   0.3161   ||displ|| :   0.3930   Lambda : -0.262D-03
Largest |displ|/coords:  0.3161 (   3)  0.1431 (   1)  0.0938 (   4)
................................................................................
.............................. CYCLE   61 ......................................
................................................................................
   1    -50.7614853 -0.507615E+02  0.165E-01    9.29       0.0  T
   2    -50.7614913 -0.597263E-05  0.124E-01    9.29       1.0  T
   3    -50.7614974 -0.604648E-05  0.146E-02    9.30       1.3  T
   4    -50.7614980 -0.669149E-06  0.524E-03    9.29       3.7  T
   5    -50.7614981 -0.375339E-07  0.208E-03    9.29       9.4  T
   6    -50.7614981 -0.523050E-08  0.104E-03    9.29      18.8  T
speedup  1.11
cpu  time for SCC    0.01 s
wall time for SCC    0.01 s
speedup  1.04
cpu  time for grad    0.01 s
wall time for grad    0.01 s
 E :    -50.46825835  G :  0.009909    pred/act E change: -0.114D-03 -0.168D-03
Maxdispl :   0.2328   ||displ|| :   0.3917   Lambda : -0.386D-03
Largest |displ|/coords:  0.2328 (   3)  0.2033 (   1)  0.1020 (   9)
................................................................................
.............................. CYCLE   62 ......................................
................................................................................
   1    -50.7647665 -0.507648E+02  0.168E-01    9.27       0.0  T
   2    -50.7647717 -0.516909E-05  0.127E-01    9.27       1.0  T
   3    -50.7647771 -0.539591E-05  0.139E-02    9.28       1.4  T
   4    -50.7647776 -0.514511E-06  0.478E-03    9.27       4.1  T
   5    -50.7647776 -0.300789E-07  0.185E-03    9.27      10.6  T
   6    -50.7647776 -0.361687E-08  0.896E-04    9.27      21.9  T
speedup  1.13
cpu  time for SCC    0.01 s
wall time for SCC    0.01 s
speedup  1.05
cpu  time for grad    0.01 s
wall time for grad    0.01 s
 E :    -50.46843694  G :  0.008959    pred/act E change: -0.151D-03 -0.179D-03
Maxdispl :   0.3594   ||displ|| :   0.4640   Lambda : -0.365D-03
Largest |displ|/coords:  0.3594 (   3)  0.2034 (   1)  0.1105 (   4)
................................................................................
.............................. CYCLE   63 ......................................
................................................................................
   1    -50.7602915 -0.507603E+02  0.216E-01    9.19       0.0  T
   2    -50.7603003 -0.883073E-05  0.164E-01    9.19       1.0  T
   3    -50.7603108 -0.104743E-04  0.153E-02    9.21       1.3  T
   4    -50.7603115 -0.702812E-06  0.611E-03    9.21       3.2  T
   5    -50.7603115 -0.467767E-07  0.243E-03    9.20       8.1  T
   6    -50.7603115 -0.867094E-08  0.125E-03    9.20      15.7  T
speedup  1.11
cpu  time for SCC    0.01 s
wall time for SCC    0.01 s
speedup  1.04
cpu  time for grad    0.01 s
wall time for grad    0.01 s
 E :    -50.46867338  G :  0.012502    pred/act E change: -0.223D-03 -0.236D-03
Maxdispl :   0.0997   ||displ|| :   0.2332   Lambda : -0.442D-03
Largest |displ|/coords:  0.0997 (   6)  0.0924 (   1)  0.0835 (   7)
................................................................................
.............................. CYCLE   64 ......................................
................................................................................
   1    -50.7627412 -0.507627E+02  0.126E-01    9.22       0.0  T
   2    -50.7627462 -0.497933E-05  0.947E-02    9.22       1.0  T
   3    -50.7627497 -0.354313E-05  0.139E-02    9.21       1.4  T
   4    -50.7627505 -0.722901E-06  0.443E-03    9.21       4.4  T
   5    -50.7627505 -0.406888E-07  0.160E-03    9.21      12.3  T
   6    -50.7627505 -0.237790E-08  0.819E-04    9.21      23.9  T
speedup  1.11
cpu  time for SCC    0.01 s
wall time for SCC    0.01 s
speedup  1.04
cpu  time for grad    0.01 s
wall time for grad    0.01 s
 E :    -50.46884276  G :  0.013526    pred/act E change: -0.222D-03 -0.169D-03
Maxdispl :   0.1698   ||displ|| :   0.2877   Lambda : -0.392D-03
Largest |displ|/coords:  0.1698 (   3)  0.1637 (   1)  0.0828 (   4)
................................................................................
.............................. CYCLE   65 ......................................
................................................................................
   1    -50.7639049 -0.507639E+02  0.142E-01    9.20       0.0  T
   2    -50.7639135 -0.862046E-05  0.106E-01    9.21       1.0  T
   3    -50.7639183 -0.486150E-05  0.170E-02    9.22       1.2  T
   4    -50.7639196 -0.129538E-05  0.388E-03    9.22       5.0  T
   5    -50.7639197 -0.314831E-07  0.181E-03    9.22      10.9  T
   6    -50.7639197 -0.207135E-08  0.925E-04    9.22      21.2  T
speedup  1.09
cpu  time for SCC    0.01 s
wall time for SCC    0.01 s
speedup  1.04
cpu  time for grad    0.01 s
wall time for grad    0.01 s
 E :    -50.46887385  G :  0.013854    pred/act E change: -0.233D-03 -0.311D-04
Maxdispl :   0.1122   ||displ|| :   0.2419   Lambda : -0.509D-03
Largest |displ|/coords:  0.1122 (   1)  0.1052 (   6)  0.0999 (   3)
................................................................................
.............................. CYCLE   66 ......................................
................................................................................
   1    -50.7624814 -0.507625E+02  0.137E-01    9.19       0.0  T
   2    -50.7624891 -0.777065E-05  0.104E-01    9.20       1.0  T
   3    -50.7624957 -0.660728E-05  0.153E-02    9.21       1.3  T
[...]
................................................................................
   1    -50.7651016 -0.507651E+02  0.426E-02    9.20       0.0  T
   2    -50.7651021 -0.498765E-06  0.317E-02    9.20       1.0  T
   3    -50.7651023 -0.211681E-06  0.600E-03    9.20       3.3  T
   4    -50.7651024 -0.838554E-07  0.179E-03    9.20      11.0  T
   5    -50.7651024 -0.188908E-08  0.272E-04    9.20      72.2  T
   6    -50.7651024 -0.594369E-10  0.170E-04    9.20     115.7  T
speedup  0.94
cpu  time for SCC    0.00 s
wall time for SCC    0.01 s
speedup  0.92
cpu  time for grad    0.01 s
wall time for grad    0.01 s
 E :    -50.47025719  G :  0.001524    pred/act E change: -0.132D-05 -0.133D-05
Maxdispl :   0.0143   ||displ|| :   0.0365   Lambda : -0.387D-05
Largest |displ|/coords:  0.0143 (   2)  0.0126 (   8)  0.0114 (  11)
................................................................................
.............................. CYCLE  129 ......................................
................................................................................
   1    -50.7652108 -0.507652E+02  0.234E-02    9.20       0.0  T
   2    -50.7652108 -0.724484E-07  0.173E-02    9.20       1.1  T
   3    -50.7652109 -0.678567E-07  0.220E-03    9.20       8.9  T
   4    -50.7652109 -0.611922E-08  0.565E-04    9.20      34.7  T
   5    -50.7652109 -0.533490E-09  0.178E-04    9.20     109.9  T
speedup  0.89
cpu  time for SCC    0.00 s
wall time for SCC    0.00 s
speedup  0.98
cpu  time for grad    0.01 s
wall time for grad    0.01 s
 E :    -50.47025895  G :  0.000624    pred/act E change: -0.142D-05 -0.175D-05
Maxdispl :   0.0078   ||displ|| :   0.0167   Lambda : -0.150D-05
Largest |displ|/coords:  0.0078 (   3)  0.0068 (  38)  0.0052 (   9)
................................................................................
.............................. CYCLE  130 ......................................
................................................................................
   1    -50.7651842 -0.507652E+02  0.140E-02    9.21       0.0  T
   2    -50.7651843 -0.419258E-07  0.106E-02    9.20       1.9  T
   3    -50.7651843 -0.221032E-07  0.142E-03    9.20      13.8  T
   4    -50.7651843 -0.743692E-08  0.489E-04    9.20      40.1  T
   5    -50.7651843 -0.193332E-09  0.842E-05    9.20     232.9  T
speedup  1.09
cpu  time for SCC    0.00 s
wall time for SCC    0.00 s
speedup  0.98
cpu  time for grad    0.01 s
wall time for grad    0.01 s
 E :    -50.47026009  G :  0.000455    pred/act E change: -0.194D-05 -0.114D-05
Maxdispl :   0.0107   ||displ|| :   0.0239   Lambda : -0.147D-05
Largest |displ|/coords:  0.0107 (  38)  0.0088 (   9)  0.0075 (  37)
................................................................................
.............................. CYCLE  131 ......................................
................................................................................
   1    -50.7650991 -0.507651E+02  0.206E-02    9.21       0.0  T
   2    -50.7650992 -0.873843E-07  0.155E-02    9.21       1.3  T
   3    -50.7650992 -0.504558E-07  0.207E-03    9.21       9.5  T
   4    -50.7650992 -0.147823E-07  0.728E-04    9.21      26.9  T
   5    -50.7650992 -0.396817E-09  0.120E-04    9.21     163.9  T
speedup  1.09
cpu  time for SCC    0.00 s
wall time for SCC    0.00 s
speedup  0.98
cpu  time for grad    0.01 s
wall time for grad    0.01 s
 E :    -50.47026092  G :  0.000594    pred/act E change: -0.749D-06 -0.832D-06
Maxdispl :   0.0041   ||displ|| :   0.0074   Lambda : -0.396D-06
Largest |displ|/coords:  0.0041 (   1)  0.0032 (   4)  0.0021 (  38)
................................................................................
.............................. CYCLE  132 ......................................
................................................................................
   1    -50.7651178 -0.507651E+02  0.494E-03    9.21       0.0  T
   2    -50.7651178 -0.422050E-08  0.371E-03    9.21       5.3  T
   3    -50.7651178 -0.309185E-08  0.435E-04    9.21      45.0  T
   4    -50.7651178 -0.607066E-09  0.159E-04    9.21     123.7  T
speedup  0.81
cpu  time for SCC    0.00 s
wall time for SCC    0.00 s
speedup  0.97
cpu  time for grad    0.01 s
wall time for grad    0.01 s
 E :    -50.47026122  G :  0.000368    pred/act E change: -0.735D-06 -0.298D-06
Maxdispl :   0.0083   ||displ|| :   0.0185   Lambda : -0.551D-06
Largest |displ|/coords:  0.0083 (  38)  0.0077 (   1)  0.0058 (  37)
................................................................................
.............................. CYCLE  133 ......................................
................................................................................
   1    -50.7651085 -0.507651E+02  0.161E-02    9.21       0.0  T
   2    -50.7651085 -0.620879E-07  0.120E-02    9.21       1.6  T
   3    -50.7651086 -0.307903E-07  0.206E-03    9.21       9.5  T
   4    -50.7651086 -0.103674E-07  0.614E-04    9.21      31.9  T
   5    -50.7651086 -0.228859E-09  0.891E-05    9.21     220.1  T
speedup  0.89
cpu  time for SCC    0.00 s
wall time for SCC    0.00 s
speedup  0.99
cpu  time for grad    0.01 s
wall time for grad    0.01 s
 E :    -50.47026160  G :  0.000284    pred/act E change: -0.198D-06 -0.385D-06
Maxdispl :   0.0081   ||displ|| :   0.0137   Lambda : -0.347D-06
Largest |displ|/coords:  0.0081 (   1)  0.0054 (  38)  0.0039 (  37)
................................................................................
.............................. CYCLE  134 ......................................
................................................................................
   1    -50.7651533 -0.507652E+02  0.109E-02    9.21       0.0  T
   2    -50.7651533 -0.293433E-07  0.816E-03    9.21       2.4  T
   3    -50.7651533 -0.144773E-07  0.145E-03    9.21      13.5  T
   4    -50.7651533 -0.483545E-08  0.427E-04    9.21      45.9  T
   5    -50.7651533 -0.113587E-09  0.597E-05    9.21     328.3  T
speedup  0.89
cpu  time for SCC    0.00 s
wall time for SCC    0.00 s
speedup  0.99
cpu  time for grad    0.01 s
wall time for grad    0.01 s
 E :    -50.47026184  G :  0.000157    pred/act E change: -0.276D-06 -0.239D-06
Maxdispl :   0.0081   ||displ|| :   0.0175   Lambda : -0.242D-06
Largest |displ|/coords:  0.0081 (   1)  0.0081 (  38)  0.0060 (  37)
................................................................................
.............................. CYCLE  135 ......................................
................................................................................
   1    -50.7651470 -0.507651E+02  0.156E-02    9.21       0.0  T
   2    -50.7651471 -0.636699E-07  0.116E-02    9.21       1.7  T
   3    -50.7651471 -0.267810E-07  0.222E-03    9.21       8.9  T
   4    -50.7651471 -0.107338E-07  0.641E-04    9.21      30.6  T
   5    -50.7651471 -0.216389E-09  0.824E-05    9.21     238.1  T
speedup  1.06
cpu  time for SCC    0.01 s
wall time for SCC    0.00 s
speedup  0.98
cpu  time for grad    0.01 s
wall time for grad    0.01 s
 E :    -50.47026199  G :  0.000251    pred/act E change: -0.174D-06 -0.142D-06
Maxdispl :   0.0080   ||displ|| :   0.0103   Lambda : -0.218D-06
Largest |displ|/coords:  0.0080 (   1)  0.0024 (   2)  0.0018 (  38)
................................................................................
.............................. CYCLE  136 ......................................
................................................................................
   1    -50.7652043 -0.507652E+02  0.606E-03    9.21       0.0  T
   2    -50.7652043 -0.779706E-08  0.456E-03    9.21       4.3  T
   3    -50.7652043 -0.564955E-08  0.606E-04    9.21      32.4  T
   4    -50.7652044 -0.118673E-08  0.252E-04    9.21      77.7  T
speedup  1.08
cpu  time for SCC    0.00 s
wall time for SCC    0.00 s
speedup  1.06
cpu  time for grad    0.01 s
wall time for grad    0.01 s
 E :    -50.47026213  G :  0.000209    pred/act E change: -0.121D-06 -0.140D-06
Maxdispl :   0.0051   ||displ|| :   0.0078   Lambda : -0.114D-06
Largest |displ|/coords:  0.0051 (   1)  0.0029 (   2)  0.0021 (  38)
................................................................................
.............................. CYCLE  137 ......................................
................................................................................
   1    -50.7651978 -0.507652E+02  0.528E-03    9.21       0.0  T
   2    -50.7651978 -0.533950E-08  0.396E-03    9.21       5.0  T
   3    -50.7651978 -0.336086E-08  0.583E-04    9.21      33.6  T
   4    -50.7651978 -0.848104E-09  0.213E-04    9.21      92.3  T
speedup  0.83
cpu  time for SCC    0.00 s
wall time for SCC    0.00 s
speedup  0.98
cpu  time for grad    0.01 s
wall time for grad    0.01 s
 E :    -50.47026221  G :  0.000150    pred/act E change: -0.109D-06 -0.850D-07
Maxdispl :   0.0064   ||displ|| :   0.0088   Lambda : -0.108D-06
Largest |displ|/coords:  0.0064 (   1)  0.0035 (   2)  0.0019 (  11)

   *** GEOMETRY OPTIMIZATION CONVERGED AFTER 137 ITERATIONS ***

------------------------------------------------------------------------
 total energy gain (kcal):     -0.0139
------------------------------------------------------------------------
================
 final structure:
================
$coord
       -1.10037163136409        0.06137037682300       -3.25117732390800      S 
       -3.11561911638287       -0.50827198040461       -1.48644351657322      O 
       -1.28409778679519        2.51445595840750       -4.42675680082077      O 
        1.38001354327894       -0.37512364640091       -2.10728619197562      O 
       -1.36528667016154       -1.94189717776920       -5.47271115316003      O 
       -0.87616595127402       -1.03538715949303       -6.94758830798326      H 
        0.90315012461594       -4.04103208208031        3.94147146692017      O 
        2.58608259713432       -3.37578985301658        3.55225709835783      H 
        0.39152152272082       -4.89348367882362        2.38061667247678      H 
        4.75977843206525       -1.40346110944352        1.89201645461656      O 
        3.94986219042463       -1.33472382394967        0.25419023469971      H 
        4.85179324589354        0.31971847209263        2.45912357350582      H 
       -0.41810468082307       -5.01602432348988       -0.88570019374380      O 
        0.43531396763152       -3.51596438545263       -1.50420213445392      H 
       -2.14994320888890       -4.79138772211555       -1.37799961489220      H 
       -1.74345051119529        6.13144502787340       -0.99058745228611      O 
       -1.77239166747405        4.84602447559829       -2.32796740220670      H 
       -1.53554358763232        7.72123681702673       -1.83474526818592      H 
        1.71058641629616        3.32063184671347        1.39677714658800      O 
        1.85873183437870        2.18033637718529       -0.04503298439018      H 
        0.63324040021178        4.69374409893930        0.78532150766236      H 
       -1.65575688133918        0.10313548425324        3.25326060872791      N 
       -2.49989773720670       -0.18927564224349        1.47816132149513      H 
       -2.95602365692248        0.62923907105574        4.55751155466452      H 
       -0.69429553363342       -1.62742235028969        3.76512648510672      H 
       -0.29312565358604        1.52790692900420        2.94236420087654      H 
$end
 
 Bond Distances (Angstroems)
 ---------------------------
S1-O2=1.4492         S1-O3=1.4428         S1-O4=1.4638         S1-O5=1.5892         O2-S1=1.4492         O3-S1=1.4428         
O4-S1=1.4638         O5-S1=1.5892         O5-H6=0.9520         H6-O5=0.9520         O7-H8=0.9795         O7-H9=0.9793         
H8-O7=0.9795         H9-O7=0.9793         O10-H11=0.9676       O10-H12=0.9612       H11-O10=0.9676       H12-O10=0.9612       
O13-H14=0.9701       O13-H15=0.9601       H14-O13=0.9701       H15-O13=0.9601       O16-H17=0.9817       O16-H18=0.9589       
H17-O16=0.9817       H18-O16=0.9589       O19-H20=0.9759       O19-H21=0.9786       H20-O19=0.9759       H21-O19=0.9786       
N22-H23=1.0516       N22-H24=1.0136       N22-H25=1.0821       N22-H26=1.0562       H23-N22=1.0516       H24-N22=1.0136       
H25-N22=1.0821       H26-N22=1.0562       
 N  H  Rav=1.0508 sigma=0.0245  Rmin=1.0136  Rmax=1.0821     4
 O  H  Rav=0.9695 sigma=0.0098  Rmin=0.9520  Rmax=0.9817    11
 S  O  Rav=1.4862 sigma=0.0599  Rmin=1.4428  Rmax=1.5892     4
 
 selected bond angles (degree)
 --------------------
O3-S1-O2=114.55                O4-S1-O2=111.13                O4-S1-O3=112.38                O5-S1-O2=105.84                
O5-S1-O3=105.98                O5-S1-O4=106.25                H6-O5-S1=104.26                H9-O7-H8=103.86                
H12-O10-H11=105.45             
 
 selected dihedral angles (degree)
 ---------------------------------
H6-O5-S1-O2=145.24            H6-O5-S1-O3= 23.20            H6-O5-S1-O4=263.47            
 
 CMA Distance (Angstroems)
 ---------------------------
R(CMA):  2.6534

========================================================================
 FINAL SINGLEPOINT CALCULATION ON OPTIMIZED GEOMETRY
========================================================================

 Ncao       : 65
 Nao        : 64
 Nshell     : 38
 Nel        : 80
 T(el)      :   300.0
 intcut     :    25.0
 scfconv/Eh :  0.100E-05
   qconv/e  :  0.100E-03
 intneglect :  0.100E-07
 broydamp   :      0.250
 iter      E             dE          RMSdq      gap      omega  full diag
   1    -50.7651978 -0.507652E+02  0.802E-05    9.21       0.0  T
   2    -50.7651978 -0.257216E-11  0.506E-05    9.21     387.4  T
   3    -50.7651978 -0.159872E-11  0.728E-06    9.21    2694.6  T
speedup  1.11
cpu  time for SCC    0.00 s
wall time for SCC    0.00 s

   *** convergence criteria satisfied after 3 iterations ***

          eigenvalues
 #    :          28         29         30         31         32         33         34         35
 occ. :        2.000      2.000      2.000      2.000      2.000      2.000      2.000      2.000
 eps  :       -13.653    -13.566    -12.792    -12.619    -12.463    -12.325    -12.301    -12.230
 #    :          36         37         38         39         40         41         42         43
 occ. :        2.000      2.000      2.000      2.000      2.000      0.000      0.000      0.000
 eps  :       -12.101    -12.071    -12.045    -12.005    -11.903     -2.693     -0.821     -0.647
 #    :          44         45         46         47         48         49         50         51
 occ. :        0.000      0.000      0.000      0.000      0.000      0.000      0.000      0.000
 eps  :         0.496      0.768      1.795      2.016      3.029      4.131      4.353      4.739


   #   Z            q   n(s)   n(p)   n(d)      C6AA      α(0)
   1  16 S      1.709  1.585  1.762  0.944    88.562    15.839
   2   8 O     -0.731  1.762  4.968  0.000    29.555     7.289
   3   8 O     -0.742  1.770  4.972  0.000    29.878     7.329
   4   8 O     -0.779  1.776  5.003  0.000    30.944     7.458
   5   8 O     -0.600  1.750  4.850  0.000    25.157     6.771
   6   1 H      0.347  0.653  0.000  0.000     0.588     1.201
   7   8 O     -0.611  1.757  4.853  0.000    25.440     6.808
   8   1 H      0.330  0.670  0.000  0.000     0.638     1.255
   9   1 H      0.330  0.670  0.000  0.000     0.638     1.255
  10   8 O     -0.598  1.743  4.856  0.000    25.149     6.768
  11   1 H      0.318  0.682  0.000  0.000     0.670     1.286
  12   1 H      0.302  0.698  0.000  0.000     0.715     1.328
  13   8 O     -0.606  1.734  4.872  0.000    25.319     6.791
  14   1 H      0.304  0.696  0.000  0.000     0.709     1.322
  15   1 H      0.296  0.704  0.000  0.000     0.734     1.346
  16   8 O     -0.616  1.744  4.872  0.000    25.576     6.826
  17   1 H      0.321  0.679  0.000  0.000     0.660     1.276
  18   1 H      0.288  0.712  0.000  0.000     0.758     1.368
  19   8 O     -0.631  1.752  4.878  0.000    25.940     6.874
  20   1 H      0.313  0.687  0.000  0.000     0.683     1.298
  21   1 H      0.325  0.675  0.000  0.000     0.651     1.268
  22   7 N     -0.358  1.281  4.077  0.000    29.197     8.025
  23   1 H      0.281  0.719  0.000  0.000     0.773     1.377
  24   1 H      0.225  0.775  0.000  0.000     0.986     1.556
  25   1 H      0.300  0.700  0.000  0.000     0.713     1.323
  26   1 H      0.282  0.718  0.000  0.000     0.770     1.375

 Mol. C6AA /au·bohr⁶  :       5451.388448
 Mol. C8AA /au·bohr⁸  :     117874.683122
 Mol. α(0) /au        :        106.610902

 
 Wiberg/Mayer (AO) data. WBOs > 0.1 written file <wbo>
 largest (>0.05) Wiberg bond orders for each atom
           total WBO             WBO to atom ...
     1  S   4.821    O    3 1.339    O    2 1.316    O    4 1.250    O    5 0.882
     2  O   1.744    S    1 1.316    O    4 0.111    O    3 0.111    H   23 0.088    O    5 0.063
     3  O   1.722    S    1 1.339    O    2 0.111    O    4 0.107    O    5 0.076    H   17 0.059
     4  O   1.691    S    1 1.250    O    2 0.111    O    3 0.107    O    5 0.069
     5  O   1.962    S    1 0.882    H    6 0.862    O    3 0.076    O    4 0.069    O    2 0.063
     6  H   0.879    O    5 0.862
     7  O   1.960    H    9 0.841    H    8 0.840    H   25 0.154    N   22 0.072
     8  H   0.891    O    7 0.840
     9  H   0.891    O    7 0.841
    10  O   1.870    H   12 0.901    H   11 0.874
    11  H   0.899    O   10 0.874
    12  H   0.909    O   10 0.901
    13  O   1.863    H   15 0.903    H   14 0.861
    14  H   0.908    O   13 0.861
    15  H   0.913    O   13 0.903
    16  O   1.857    H   18 0.913    H   17 0.834    H   21 0.054
    17  H   0.897    O   16 0.834    O    3 0.059
    18  H   0.917    O   16 0.913
    19  O   1.905    H   20 0.849    H   21 0.837    H   26 0.103    N   22 0.054
    20  H   0.902    O   19 0.849
    21  H   0.894    O   19 0.837    O   16 0.054
    22  N   3.514    H   24 0.946    H   23 0.826    H   26 0.813    H   25 0.752    O    7 0.072    O   19 0.054
    23  H   0.921    N   22 0.826    O    2 0.088
    24  H   0.949    N   22 0.946
    25  H   0.910    N   22 0.752    O    7 0.154
    26  H   0.921    N   22 0.813    O   19 0.103
 MOs/occ written to file <molden.input>
 
molecular dipole:
                 x           y           z       tot (Debye)
 q only:       -0.455       0.624       1.167
   full:       -0.669       1.063      -0.118       3.207
molecular quadrupole (traceless):
                xx          xy          yy          xz          yz          zz
 q only:       -3.833       3.180      -5.000      -7.373       2.321       8.834
  q+dip:       -4.355       4.609      -7.018      -7.881       2.675      11.373
   full:       -5.012       4.720      -6.703      -7.693       2.959      11.714

SCC energy    :     -50.7651978
rep           :       0.2946327
ES            :       0.2598160
AES           :      -0.0762981
AXC           :      -0.0085577
disp          :      -0.0201347
XB            :       0.0000000
fix           :       0.0000000
total E       :     -50.4702622
atomizationE  :       5.0005664     3137.90
(atE without considering molecular charge,
 total energy contains solvation terms)
H-L gap (eV)  :          9.2106
optimized geometry written to: xtbopt.xyz


------------------------------------------------------------------------
 * finished run on 2019/09/16 at 11:50:05.776     
------------------------------------------------------------------------
 total:
 * wall-time:     0 d,  0 h,  0 min,  3.011 sec
 *  cpu-time:     0 d,  0 h,  0 min,  2.985 sec
 * ratio c/w:     0.991 speedup
 SCF:
 * wall-time:     0 d,  0 h,  0 min,  0.143 sec
 *  cpu-time:     0 d,  0 h,  0 min,  0.139 sec
 * ratio c/w:     0.975 speedup
 ANC optimizer:
 * wall-time:     0 d,  0 h,  0 min,  2.845 sec
 *  cpu-time:     0 d,  0 h,  0 min,  2.825 sec
 * ratio c/w:     0.993 speedup

