      -----------------------------------------------------------      
     |                   =====================                   |     
     |                           x T B                           |     
     |                   =====================                   |     
     |                         S. Grimme                         |     
     |          Mulliken Center for Theoretical Chemistry        |     
     |                    University of Bonn                     |     
     |                 Version 6.0.1 (SAW181210)                 |     
      -----------------------------------------------------------      

   This program is distributed in the hope that it will be useful,
   but WITHOUT ANY WARRANTY; without even the implied warranty of
   MERCHANTABILITY or FITNESS FOR A PARTICULAR PURPOSE.
   
   FOR NON-COMMERCIAL, ACADEMIA USE ONLY.
   
   Cite this work as:
   S. Grimme, C. Bannwarth, P. Shushkov, J. Comput. Theory Chem., 2017,
   13, 1989-2009.
   C. Bannwarth, S. Ehlert and S. Grimme., ChemRxiv, 2018, preprint.
   http://doi.org/10.26434/chemrxiv.7246238.v1
   
   for sTDA-xTB:
   S. Grimme and C. Bannwarth, J. Chem. Phys., 2016, 145, 054103.
   
   in the mass-spec context:
   V. Asgeirsson, C. Bauer and S. Grimme, Chem. Sci., 2017, 8, 4879.
   
   if GBSA is used:
   P. Shushkov, F. März and S. Grimme, unpublished.
   
   for ANC optimizer:
   S. Grimme, unpublished.
   Rational Function algorithm used in ANCopt:
   F. Eckert, P. Pulay, H.-J. Werner, J. Comput. Chem., 1997, 18, 1473.
   
   with help from (in alphabetical order)
   C. Bannwarth, F. Bohle, G. Brandenburg, E. Caldeweyher, M. Checinski,
   S. Dohm, S. Ehlert, S. Ehrlich, F. März, H. Neugebauer, J. Pisarek,
   P. Pracht, P. Shushkov, and S. Spicher.
   
 * started run on 2019/09/16 at 11:15:02.292     
========================================================================
 # omp threads = 1
========================================================================
number of atoms            : 26
number of electrons        : 80
charge                     : 0
spin                       : .0
first test random number   : .8950

########################################################################
# WARNING! Please study the warnings concerning your input carefully
#  - XTBPATH is not set, using XTBHOME instead
#  - the use of '-opt' is discouraged, please use '--opt' next time
#  - the use of '-chrg' is discouraged, please use '--chrg' next time
#  - the use of '-uhf' is discouraged, please use '--uhf' next time
########################################################################

           ------------------------------------------------- 
          |                 G F N 2 - x T B                 |
          | Geometry, Frequencies, Noncovalent interactions |
          |            JCTC 2018 parametrisation            |
           ------------------------------------------------- 
      method parameters     
 k(s)        :  1.8500
 k(p)        :  2.2300
 k(d)        :  2.2300
 k(f)        :  2.0000
 kEN (H0ij)  : -2.0000
 D4 a1       :  0.5200
 D4 a2       :  5.0000
 D4 s6       :  1.0000
 D4 s8       :  2.7000
 D4 s9       :  5.0000
 alphaj      :  2.0000


            Z     q(EN)     CN     RAES       Cart. coordinates
     1  S   6.0    0.61    4.50    4.56    -2.42137    -2.49739    -2.38810
     2  O   6.0   -0.32    1.21    1.80    -2.43488    -2.61493     0.42510
     3  O   6.0   -0.31    1.20    1.80     0.12121    -3.23601    -3.34615
     4  O   6.0   -0.27    2.13    1.84    -3.00408     0.09078    -3.20929
     5  O   6.0   -0.25    2.08    1.84    -4.33311    -4.24111    -3.39667
     6  H   1.0    0.14    1.22    1.47    -5.54675    -3.31057    -4.37251
     7  H   1.0    0.19    1.40    1.54    -1.75568     1.23055    -2.55085
     8  O   6.0   -0.40    1.61    1.81     0.13510     2.99411    -1.46162
     9  H   1.0    0.17    0.95    1.42     0.96559     4.20548    -2.61341
    10  O   6.0   -0.29    2.07    1.83     4.21622     1.17102    -0.03969
    11  H   1.0    0.17    1.03    1.43     4.82196    -0.03871    -1.25799
    12  H   1.0    0.17    1.13    1.45     2.73053     1.90806    -0.79076
    13  O   6.0   -0.29    2.04    1.83    -2.51431     5.05954     1.72045
    14  H   1.0    0.15    0.97    1.43    -3.24058     6.56452     0.99784
    15  H   1.0    0.18    1.16    1.46    -1.51769     4.31880     0.38904
    16  O   6.0   -0.29    2.03    1.83    -1.17840    -2.90528     5.25243
    17  H   1.0    0.18    1.05    1.44    -1.74265    -2.95657     3.52222
    18  H   1.0    0.15    0.97    1.43    -1.38867    -4.60210     5.87790
    19  O   6.0   -0.29    2.01    1.83     5.09940    -2.48320    -3.45782
    20  H   1.0    0.18    1.05    1.44     3.30055    -2.76083    -3.41701
    21  H   1.0    0.15    0.97    1.43     5.77954    -3.87371    -4.41621
    22  N   5.0   -0.14    3.95    2.73     0.78161     1.59551     3.70662
    23  H   1.0    0.08    0.99    1.43     1.64598     2.47959     5.20853
    24  H   1.0    0.11    1.08    1.44     2.09071     1.26994     2.30494
    25  H   1.0    0.11    1.06    1.44     0.02887    -0.09838     4.29700
    26  H   1.0    0.11    1.06    1.44    -0.63910     2.73088     3.01601

  Z AO/shell   Hii/eV     exponent
  1     Wed Apr 25 08:07:45 CEST 2018   EN: 2.200 GM2: 0.406  GM3: 0.0800  RAES: 1.40
     1s    -10.707211    1.230000
  7     Wed Apr 25 08:07:45 CEST 2018   EN: 3.040 GM2: 0.461  GM3:-0.0640  RAES: 1.90
     2s    -16.686243    2.339881
     2p    -12.523956    2.014332
  8     Wed Apr 25 08:07:45 CEST 2018   EN: 3.440 GM2: 0.452  GM3:-0.0517  RAES: 1.80
     2s    -20.229985    2.439742
     2p    -15.503117    2.137023
 16     Tue Apr 24 11:44:34 CEST 2018   EN: 2.580 GM2: 0.340  GM3:-0.0502  RAES: 3.10
     3s    -20.029654    1.981333
     3p    -11.377694    2.025643
     3d     -0.420282    1.702555
 no old-style atom pair restraining (fixing) potential

molecular fragmentation (1/2 indicates fragments):
11111112222222222222222222
# atoms in fragment 1/2:     7    19
 fragment masses (1/2) :       98.07      107.11
CMA distance (Bohr)    :   5.878
constraining FC (au)   :  0.0500
           ------------------------------------------------- 
          |        Self-Consistent Charge Iterations        |
           ------------------------------------------------- 

 Ncao       : 65
 Nao        : 64
 Nshell     : 38
 Nel        : 80
 T(el)      :   300.0
 intcut     :    25.0
 scfconv/Eh :  0.100E-05
   qconv/e  :  0.100E-03
 intneglect :  0.100E-07
 broydamp   :      0.250
 iter      E             dE          RMSdq      gap      omega  full diag
   1    -50.5725069 -0.505725E+02  0.711E+00   10.45       0.0  T
   2    -50.6343562 -0.618493E-01  0.514E+00    9.18       1.0  T
   3    -50.6780330 -0.436768E-01  0.145E+00    6.31       1.0  T
   4    -50.6847178 -0.668482E-02  0.627E-01    6.57       1.0  T
   5    -50.6854096 -0.691746E-03  0.375E-01    6.47       1.0  T
   6    -50.6861417 -0.732091E-03  0.165E-01    6.57       1.0  T
   7    -50.6863261 -0.184424E-03  0.532E-02    6.59       1.0  T
   8    -50.6863383 -0.122126E-04  0.350E-02    6.58       1.0  T
   9    -50.6863459 -0.758258E-05  0.115E-02    6.59       1.7  T
  10    -50.6863468 -0.896527E-06  0.249E-03    6.60       7.9  T
  11    -50.6863468 -0.173934E-07  0.135E-03    6.59      14.5  T
  12    -50.6863468 -0.812760E-08  0.337E-04    6.59      58.2  T
  13    -50.6863468 -0.406601E-09  0.142E-04    6.59     138.4  T
speedup  1.01
cpu  time for SCC    0.01 s
wall time for SCC    0.01 s

   *** convergence criteria satisfied after 13 iterations ***

          eigenvalues
 #    :          28         29         30         31         32         33         34         35
 occ. :        2.000      2.000      2.000      2.000      2.000      2.000      2.000      2.000
 eps  :       -12.640    -12.411    -12.280    -12.190    -12.128    -11.980    -11.949    -11.667
 #    :          36         37         38         39         40         41         42         43
 occ. :        2.000      2.000      2.000      2.000      2.000      0.000      0.000      0.000
 eps  :       -11.140    -11.135    -10.488     -9.704     -9.358     -2.763     -1.411     -0.580
 #    :          44         45         46         47         48         49         50         51
 occ. :        0.000      0.000      0.000      0.000      0.000      0.000      0.000      0.000
 eps  :        -0.125      0.471      2.039      2.614      2.942      3.696      4.091      5.427


   #   Z            q   n(s)   n(p)   n(d)      C6AA      α(0)
   1  16 S      1.711  1.573  1.772  0.944    88.523    15.835
   2   8 O     -0.729  1.765  4.964  0.000    29.525     7.285
   3   8 O     -0.718  1.771  4.946  0.000    29.199     7.245
   4   8 O     -0.602  1.724  4.878  0.000    25.212     6.778
   5   8 O     -0.541  1.719  4.823  0.000    23.795     6.585
   6   1 H      0.378  0.622  0.000  0.000     0.519     1.128
   7   1 H      0.417  0.583  0.000  0.000     0.446     1.044
   8   8 O     -0.887  1.855  5.032  0.000    34.339     7.857
   9   1 H      0.212  0.788  0.000  0.000     1.059     1.617
  10   8 O     -0.680  1.753  4.927  0.000    27.187     7.037
  11   1 H      0.315  0.685  0.000  0.000     0.678     1.294
  12   1 H      0.325  0.675  0.000  0.000     0.649     1.264
  13   8 O     -0.666  1.748  4.918  0.000    26.829     6.991
  14   1 H      0.266  0.734  0.000  0.000     0.833     1.434
  15   1 H      0.336  0.664  0.000  0.000     0.619     1.234
  16   8 O     -0.611  1.728  4.883  0.000    25.442     6.808
  17   1 H      0.335  0.665  0.000  0.000     0.625     1.241
  18   1 H      0.287  0.713  0.000  0.000     0.761     1.370
  19   8 O     -0.607  1.738  4.869  0.000    25.359     6.797
  20   1 H      0.327  0.673  0.000  0.000     0.646     1.262
  21   1 H      0.275  0.725  0.000  0.000     0.802     1.407
  22   7 N     -0.311  1.254  4.057  0.000    27.993     7.858
  23   1 H      0.239  0.761  0.000  0.000     0.928     1.510
  24   1 H      0.319  0.681  0.000  0.000     0.659     1.271
  25   1 H      0.298  0.702  0.000  0.000     0.719     1.328
  26   1 H      0.315  0.685  0.000  0.000     0.672     1.284

 Mol. C6AA /au·bohr⁶  :       5473.043748
 Mol. C8AA /au·bohr⁸  :     118367.193550
 Mol. α(0) /au        :        106.764853

 
 Wiberg/Mayer (AO) data. WBOs > 0.1 written file <wbo>
 largest (>0.05) Wiberg bond orders for each atom
           total WBO             WBO to atom ...
     1  S   4.820    O    3 1.340    O    2 1.329    O    4 1.086    O    5 1.012
     2  O   1.686    S    1 1.329    O    3 0.132    O    4 0.092    O    5 0.071
     3  O   1.700    S    1 1.340    O    2 0.132    O    4 0.094    O    5 0.072
     4  O   2.003    S    1 1.086    H    7 0.622    O    3 0.094    O    2 0.092    O    5 0.051
     5  O   2.051    S    1 1.012    H    6 0.833    O    3 0.072    O    2 0.071    O    4 0.051
     6  H   0.857    O    5 0.833
     7  H   0.826    O    4 0.622    O    8 0.185
     8  O   1.556    H    9 0.948    H    7 0.185    H   15 0.131    H   12 0.110    O   13 0.055    O   10 0.051
     9  H   0.955    O    8 0.948
    10  O   1.831    H   11 0.859    H   12 0.776    H   24 0.080    O    8 0.051
    11  H   0.901    O   10 0.859
    12  H   0.894    O   10 0.776    O    8 0.110
    13  O   1.788    H   14 0.915    H   15 0.749    O    8 0.055
    14  H   0.929    O   13 0.915
    15  H   0.887    O   13 0.749    O    8 0.131
    16  O   1.844    H   18 0.903    H   17 0.841    H   25 0.051
    17  H   0.888    O   16 0.841
    18  H   0.917    O   16 0.903
    19  O   1.831    H   21 0.912    H   20 0.849
    20  H   0.893    O   19 0.849
    21  H   0.924    O   19 0.912
    22  N   3.551    H   23 0.940    H   25 0.851    H   26 0.842    H   24 0.805
    23  H   0.943    N   22 0.940
    24  H   0.898    N   22 0.805    O   10 0.080
    25  H   0.911    N   22 0.851    O   16 0.051
    26  H   0.901    N   22 0.842
 MOs/occ written to file <molden.input>
 
molecular dipole:
                 x           y           z       tot (Debye)
 q only:       -1.269      -0.333       0.914
   full:       -1.902      -0.418      -0.150       4.964
molecular quadrupole (traceless):
                xx          xy          yy          xz          yz          zz
 q only:       -4.788       3.821      -4.287      13.001       3.993       9.075
  q+dip:       -6.719       3.947      -1.304      14.608       2.633       8.023
   full:       -6.811       3.894      -0.876      14.977       2.670       7.687

SCC energy    :     -50.6863468
rep           :       0.3089358
ES            :       0.3053018
AES           :      -0.0717173
AXC           :      -0.0073752
disp          :      -0.0175586
XB            :       0.0000000
fix           :       0.0000000
total E       :     -50.3770577
atomizationE  :       4.9073619     3079.42
(atE without considering molecular charge,
 total energy contains solvation terms)
H-L gap (eV)  :          6.5948
           ------------------------------------------------- 
          |                 ===============                 |
          |                   A N C O P T                   |
          |                 ===============                 |
          |          Approximate Normal Coordinate          |
          |           Rational Function Optimizer           |
           ------------------------------------------------- 
dumping coords to <xtbopt.coord> and <xtbopt.log>
 optlevel               2
 Maxcycle             520
 Maxmicro              25
 Econv         1.000000000000000E-007
 Gconv         2.000000000000000E-004
 Maxdispl       1.00000000000000     
 Hlow          5.000000000000000E-003
 S6             20.0000000000000     
 Nvar               72

generating ANC from model Hessian ...
 Shifting diagonal of input Hessian by   5.048601444449534E-003
 Lowest  eigenvalues of input Hessian
    0.005000   -0.000000   -0.000000   -0.000000   -0.000000   -0.000000
    0.000000    0.005434    0.005482    0.005676    0.005944    0.006683
    0.007067    0.007568    0.007804    0.008152    0.008837    0.009244
 Highest eigenvalues
    1.450684    1.454812    1.573875    3.218664    3.413035    3.458372
 
cpu  time for ANC gen    0.02 s
wall time for ANC gen    0.02 s
................................................................................
.............................. CYCLE    1 ......................................
................................................................................
   1    -50.6863468 -0.506863E+02  0.654E-05    6.59       0.0  T
   2    -50.6863468 -0.117311E-10  0.475E-05    6.59     412.7  T
   3    -50.6863468 -0.862599E-11  0.230E-05    6.59     853.4  T
speedup  1.07
cpu  time for SCC    0.00 s
wall time for SCC    0.00 s
speedup  0.99
cpu  time for grad    0.01 s
wall time for grad    0.01 s
 E :    -50.37705767  G :  0.237332    pred/act E change:  0.000D+00  0.290D-07
Maxdispl :   0.1050   ||displ|| :   0.3160   Lambda : -0.307D-01
Largest |displ|/coords:  0.1050 (  14)  0.0997 (  22)  0.0984 (  26)
................................................................................
.............................. CYCLE    2 ......................................
................................................................................
   1    -50.6960636 -0.506961E+02  0.272E-01    6.90       0.0  T
   2    -50.6963736 -0.309958E-03  0.216E-01    7.00       1.0  T
   3    -50.6964901 -0.116508E-03  0.124E-01    7.14       1.0  T
   4    -50.6965022 -0.120415E-04  0.338E-02    7.20       1.0  T
   5    -50.6965034 -0.122294E-05  0.576E-03    7.20       3.4  T
   6    -50.6965034 -0.464899E-07  0.341E-03    7.20       5.8  T
speedup  0.93
cpu  time for SCC    0.00 s
wall time for SCC    0.01 s
speedup  1.00
cpu  time for grad    0.01 s
wall time for grad    0.01 s
 E :    -50.40140223  G :  0.149598    pred/act E change:  0.000D+00 -0.243D-01
Maxdispl :   0.1107   ||displ|| :   0.3447   Lambda : -0.169D-01
Largest |displ|/coords:  0.1107 (  14)  0.1101 (  10)  0.1021 (  16)
................................................................................
.............................. CYCLE    3 ......................................
................................................................................
   1    -50.7048048 -0.507048E+02  0.274E-01    7.36       0.0  T
   2    -50.7051830 -0.378124E-03  0.215E-01    7.49       1.0  T
   3    -50.7053106 -0.127663E-03  0.130E-01    7.64       1.0  T
   4    -50.7053209 -0.103057E-04  0.330E-02    7.72       1.0  T
   5    -50.7053223 -0.131528E-05  0.620E-03    7.71       3.2  T
   6    -50.7053223 -0.519571E-07  0.354E-03    7.72       5.5  T
   7    -50.7053223 -0.187809E-07  0.114E-03    7.71      17.2  T
speedup  0.97
cpu  time for SCC    0.01 s
wall time for SCC    0.01 s
speedup  1.01
cpu  time for grad    0.01 s
wall time for grad    0.01 s
 E :    -50.41533177  G :  0.092251    pred/act E change: -0.169D-01 -0.139D-01
Maxdispl :   0.1571   ||displ|| :   0.3601   Lambda : -0.104D-01
Largest |displ|/coords:  0.1571 (  10)  0.0997 (  18)  0.0977 (   9)
................................................................................
.............................. CYCLE    4 ......................................
................................................................................
   1    -50.7106400 -0.507106E+02  0.271E-01    7.77       0.0  T
   2    -50.7109836 -0.343576E-03  0.208E-01    7.90       1.0  T
   3    -50.7111048 -0.121174E-03  0.115E-01    8.08       1.0  T
   4    -50.7111142 -0.939544E-05  0.320E-02    8.14       1.0  T
   5    -50.7111155 -0.133342E-05  0.648E-03    8.14       3.0  T
   6    -50.7111156 -0.605091E-07  0.367E-03    8.14       5.3  T
   7    -50.7111156 -0.189672E-07  0.119E-03    8.14      16.5  T
speedup  0.97
cpu  time for SCC    0.01 s
wall time for SCC    0.01 s
speedup  0.94
cpu  time for grad    0.01 s
wall time for grad    0.01 s
 E :    -50.42383519  G :  0.062353    pred/act E change: -0.946D-02 -0.850D-02
Maxdispl :   0.1650   ||displ|| :   0.3490   Lambda : -0.629D-02
Largest |displ|/coords:  0.1650 (  10)  0.1074 (   9)  0.1004 (  15)
................................................................................
.............................. CYCLE    5 ......................................
................................................................................
   1    -50.7143534 -0.507144E+02  0.232E-01    8.11       0.0  T
   2    -50.7145471 -0.193787E-03  0.176E-01    8.23       1.0  T
   3    -50.7146219 -0.747483E-04  0.781E-02    8.41       1.0  T
   4    -50.7146301 -0.820218E-05  0.268E-02    8.44       1.0  T
   5    -50.7146310 -0.937619E-06  0.544E-03    8.44       3.6  T
   6    -50.7146311 -0.460793E-07  0.309E-03    8.44       6.4  T
speedup  0.94
cpu  time for SCC    0.00 s
wall time for SCC    0.01 s
speedup  1.01
cpu  time for grad    0.01 s
wall time for grad    0.01 s
 E :    -50.42931704  G :  0.056098    pred/act E change: -0.586D-02 -0.548D-02
Maxdispl :   0.1668   ||displ|| :   0.3247   Lambda : -0.501D-02
Largest |displ|/coords:  0.1668 (  10)  0.1000 (   9)  0.0885 (   5)
................................................................................
.............................. CYCLE    6 ......................................
................................................................................
   1    -50.7185734 -0.507186E+02  0.215E-01    8.42       0.0  T
   2    -50.7187072 -0.133833E-03  0.161E-01    8.53       1.0  T
   3    -50.7187648 -0.575431E-04  0.598E-02    8.71       1.0  T
   4    -50.7187727 -0.797932E-05  0.247E-02    8.72       1.0  T
   5    -50.7187736 -0.858390E-06  0.509E-03    8.72       3.9  T
   6    -50.7187736 -0.428198E-07  0.292E-03    8.72       6.7  T
speedup  1.09
cpu  time for SCC    0.01 s
wall time for SCC    0.01 s
speedup  1.04
cpu  time for grad    0.01 s
wall time for grad    0.01 s
 E :    -50.43389061  G :  0.054698    pred/act E change: -0.353D-02 -0.457D-02
Maxdispl :   0.1306   ||displ|| :   0.3222   Lambda : -0.477D-02
Largest |displ|/coords:  0.1306 (  10)  0.1028 (  15)  0.0977 (   9)
................................................................................
.............................. CYCLE    7 ......................................
................................................................................
   1    -50.7230748 -0.507231E+02  0.220E-01    8.73       0.0  T
   2    -50.7231928 -0.118065E-03  0.162E-01    8.78       1.0  T
   3    -50.7232508 -0.579809E-04  0.541E-02    8.86       1.0  T
   4    -50.7232585 -0.771380E-05  0.244E-02    8.87       1.0  T
   5    -50.7232594 -0.909279E-06  0.526E-03    8.87       3.7  T
   6    -50.7232595 -0.453077E-07  0.305E-03    8.87       6.4  T
speedup  0.93
cpu  time for SCC    0.00 s
wall time for SCC    0.01 s
speedup  1.01
cpu  time for grad    0.01 s
wall time for grad    0.01 s
 E :    -50.43819111  G :  0.052844    pred/act E change: -0.277D-02 -0.430D-02
Maxdispl :   0.1652   ||displ|| :   0.3209   Lambda : -0.437D-02
Largest |displ|/coords:  0.1652 (  10)  0.0871 (   9)  0.0798 (   1)
................................................................................
.............................. CYCLE    8 ......................................
................................................................................
   1    -50.7292736 -0.507293E+02  0.223E-01    8.91       0.0  T
   2    -50.7293475 -0.738876E-04  0.166E-01    8.93       1.0  T
   3    -50.7293895 -0.420640E-04  0.476E-02    8.97       1.0  T
   4    -50.7293965 -0.696325E-05  0.223E-02    8.98       1.0  T
   5    -50.7293972 -0.662216E-06  0.480E-03    8.98       4.1  T
   6    -50.7293972 -0.343730E-07  0.282E-03    8.98       7.0  T
speedup  1.11
cpu  time for SCC    0.01 s
wall time for SCC    0.01 s
speedup  0.98
cpu  time for grad    0.01 s
wall time for grad    0.01 s
 E :    -50.44188423  G :  0.047354    pred/act E change: -0.263D-02 -0.369D-02
Maxdispl :   0.1979   ||displ|| :   0.5910   Lambda : -0.919D-02
Largest |displ|/coords:  0.1979 (  15)  0.1728 (   7)  0.1711 (  14)
................................................................................
.............................. CYCLE    9 ......................................
................................................................................
   1    -50.7422192 -0.507422E+02  0.449E-01    8.89       0.0  T
   2    -50.7423717 -0.152455E-03  0.320E-01    8.88       1.0  T
   3    -50.7424930 -0.121300E-03  0.820E-02    8.87       1.0  T
   4    -50.7425035 -0.104886E-04  0.208E-02    8.87       1.0  T
   5    -50.7425042 -0.729426E-06  0.810E-03    8.87       2.4  T
   6    -50.7425043 -0.982931E-07  0.397E-03    8.87       4.9  T
   7    -50.7425043 -0.302434E-07  0.140E-03    8.87      14.1  T
speedup  0.97
cpu  time for SCC    0.01 s
wall time for SCC    0.01 s
speedup  1.01
cpu  time for grad    0.01 s
wall time for grad    0.01 s
 E :    -50.44626723  G :  0.039372    pred/act E change: -0.241D-02 -0.438D-02
Maxdispl :   0.1811   ||displ|| :   0.4099   Lambda : -0.552D-02
Largest |displ|/coords:  0.1811 (  10)  0.1180 (  28)  0.1126 (   9)
................................................................................
.............................. CYCLE   10 ......................................
................................................................................
   1    -50.7329001 -0.507329E+02  0.306E-01    8.86       0.0  T
   2    -50.7329745 -0.744073E-04  0.228E-01    8.86       1.0  T
   3    -50.7330080 -0.334891E-04  0.565E-02    8.84       1.0  T
   4    -50.7330163 -0.827074E-05  0.178E-02    8.85       1.1  T
   5    -50.7330170 -0.752093E-06  0.352E-03    8.85       5.6  T
   6    -50.7330170 -0.146410E-07  0.210E-03    8.85       9.3  T
speedup  0.94
cpu  time for SCC    0.00 s
wall time for SCC    0.01 s
speedup  0.93
cpu  time for grad    0.01 s
wall time for grad    0.01 s
 E :    -50.44742773  G :  0.042250    pred/act E change: -0.620D-02 -0.116D-02
Maxdispl :   0.1501   ||displ|| :   0.3109   Lambda : -0.360D-02
Largest |displ|/coords:  0.1501 (   6)  0.1204 (   8)  0.1199 (  16)
................................................................................
.............................. CYCLE   11 ......................................
................................................................................
   1    -50.7403690 -0.507404E+02  0.205E-01    8.81       0.0  T
   2    -50.7403971 -0.281227E-04  0.154E-01    8.81       1.0  T
   3    -50.7404174 -0.203597E-04  0.319E-02    8.81       1.0  T
   4    -50.7404208 -0.330520E-05  0.124E-02    8.81       1.6  T
   5    -50.7404210 -0.276351E-06  0.327E-03    8.81       6.0  T
   6    -50.7404210 -0.964388E-08  0.185E-03    8.81      10.6  T
speedup  0.94
cpu  time for SCC    0.01 s
wall time for SCC    0.01 s
speedup  1.00
cpu  time for grad    0.01 s
wall time for grad    0.01 s
 E :    -50.44888135  G :  0.033087    pred/act E change: -0.323D-02 -0.145D-02
Maxdispl :   0.1412   ||displ|| :   0.2929   Lambda : -0.252D-02
Largest |displ|/coords:  0.1412 (   7)  0.0914 (  10)  0.0902 (   8)
................................................................................
.............................. CYCLE   12 ......................................
................................................................................
   1    -50.7466937 -0.507467E+02  0.212E-01    8.91       0.0  T
   2    -50.7467297 -0.359566E-04  0.160E-01    8.91       1.0  T
   3    -50.7467619 -0.321894E-04  0.347E-02    8.91       1.0  T
   4    -50.7467657 -0.377453E-05  0.107E-02    8.91       1.8  T
   5    -50.7467658 -0.171594E-06  0.426E-03    8.91       4.6  T
   6    -50.7467659 -0.190719E-07  0.207E-03    8.91       9.5  T
speedup  1.09
cpu  time for SCC    0.01 s
wall time for SCC    0.01 s
speedup  0.99
cpu  time for grad    0.01 s
wall time for grad    0.01 s
 E :    -50.44891441  G :  0.037869    pred/act E change: -0.198D-02 -0.331D-04
Maxdispl :   0.0764   ||displ|| :   0.2041   Lambda : -0.273D-02
Largest |displ|/coords:  0.0764 (   1)  0.0734 (  25)  0.0577 (  27)
................................................................................
.............................. CYCLE   13 ......................................
................................................................................
   1    -50.7419443 -0.507419E+02  0.175E-01    8.98       0.0  T
   2    -50.7419726 -0.283647E-04  0.132E-01    8.98       1.0  T
   3    -50.7419890 -0.163059E-04  0.323E-02    8.97       1.0  T
   4    -50.7419923 -0.334841E-05  0.121E-02    8.98       1.6  T
   5    -50.7419926 -0.298396E-06  0.316E-03    8.98       6.2  T
   6    -50.7419926 -0.968651E-08  0.171E-03    8.98      11.5  T
speedup  0.93
cpu  time for SCC    0.00 s
wall time for SCC    0.01 s
speedup  0.99
cpu  time for grad    0.01 s
wall time for grad    0.01 s
 E :    -50.45001510  G :  0.020622    pred/act E change: -0.137D-02 -0.110D-02
Maxdispl :   0.1274   ||displ|| :   0.2610   Lambda : -0.156D-02
Largest |displ|/coords:  0.1274 (   1)  0.0934 (   7)  0.0827 (   2)
................................................................................
.............................. CYCLE   14 ......................................
................................................................................
   1    -50.7448171 -0.507448E+02  0.260E-01    8.99       0.0  T
   2    -50.7448552 -0.381250E-04  0.196E-01    8.99       1.0  T
   3    -50.7448811 -0.259241E-04  0.355E-02    8.98       1.0  T
   4    -50.7448862 -0.507485E-05  0.102E-02    8.98       1.9  T
   5    -50.7448864 -0.211208E-06  0.326E-03    8.98       6.0  T
   6    -50.7448864 -0.407388E-08  0.182E-03    8.98      10.8  T
speedup  0.94
cpu  time for SCC    0.00 s
wall time for SCC    0.01 s
speedup  1.01
cpu  time for grad    0.01 s
wall time for grad    0.01 s
 E :    -50.44976515  G :  0.038250    pred/act E change: -0.142D-02  0.250D-03
Maxdispl :   0.0996   ||displ|| :   0.2527   Lambda : -0.232D-02
Largest |displ|/coords:  0.0996 (   1)  0.0933 (   4)  0.0803 (   2)
................................................................................
.............................. CYCLE   15 ......................................
................................................................................
   1    -50.7403637 -0.507404E+02  0.235E-01    8.98       0.0  T
   2    -50.7404104 -0.466568E-04  0.176E-01    8.97       1.0  T
   3    -50.7404410 -0.306644E-04  0.381E-02    8.97       1.0  T
   4    -50.7404468 -0.574541E-05  0.899E-03    8.97       2.2  T
   5    -50.7404469 -0.118953E-06  0.383E-03    8.97       5.1  T
   6    -50.7404469 -0.185483E-07  0.203E-03    8.97       9.7  T
speedup  1.11
cpu  time for SCC    0.01 s
wall time for SCC    0.01 s
speedup  1.00
cpu  time for grad    0.01 s
wall time for grad    0.01 s
 E :    -50.45033404  G :  0.031104    pred/act E change: -0.831D-03 -0.569D-03
Maxdispl :   0.0810   ||displ|| :   0.1933   Lambda : -0.187D-02
Largest |displ|/coords:  0.0810 (  17)  0.0713 (   7)  0.0672 (  24)
................................................................................
.............................. CYCLE   16 ......................................
................................................................................
   1    -50.7471647 -0.507472E+02  0.207E-01    9.06       0.0  T
   2    -50.7471932 -0.284956E-04  0.154E-01    9.06       1.0  T
   3    -50.7472100 -0.168566E-04  0.305E-02    9.06       1.0  T
   4    -50.7472137 -0.370468E-05  0.503E-03    9.07       3.9  T
   5    -50.7472138 -0.313827E-07  0.279E-03    9.06       7.0  T
speedup  1.11
cpu  time for SCC    0.00 s
wall time for SCC    0.00 s
speedup  1.00
cpu  time for grad    0.01 s
wall time for grad    0.01 s
 E :    -50.45074960  G :  0.021064    pred/act E change: -0.123D-02 -0.416D-03
Maxdispl :   0.1563   ||displ|| :   0.2489   Lambda : -0.111D-02
Largest |displ|/coords:  0.1563 (   1)  0.0875 (   7)  0.0696 (   9)
................................................................................
.............................. CYCLE   17 ......................................
................................................................................
   1    -50.7412915 -0.507413E+02  0.216E-01    9.08       0.0  T
   2    -50.7413112 -0.197077E-04  0.163E-01    9.07       1.0  T
   3    -50.7413227 -0.115284E-04  0.250E-02    9.07       1.0  T
   4    -50.7413257 -0.300797E-05  0.391E-03    9.07       5.0  T
   5    -50.7413258 -0.127654E-07  0.230E-03    9.07       8.5  T
speedup  1.11
cpu  time for SCC    0.00 s
wall time for SCC    0.00 s
speedup  0.98
cpu  time for grad    0.01 s
wall time for grad    0.01 s
 E :    -50.45111177  G :  0.024003    pred/act E change: -0.971D-03 -0.362D-03
Maxdispl :   0.1515   ||displ|| :   0.2428   Lambda : -0.105D-02
Largest |displ|/coords:  0.1515 (   1)  0.0835 (   7)  0.0600 (  14)
................................................................................
.............................. CYCLE   18 ......................................
................................................................................
   1    -50.7445073 -0.507445E+02  0.154E-01    9.07       0.0  T
   2    -50.7445161 -0.876795E-05  0.117E-01    9.07       1.0  T
   3    -50.7445221 -0.600282E-05  0.177E-02    9.07       1.1  T
   4    -50.7445234 -0.123807E-05  0.523E-03    9.07       3.7  T
   5    -50.7445234 -0.642714E-07  0.177E-03    9.07      11.1  T
speedup  1.11
cpu  time for SCC    0.01 s
wall time for SCC    0.00 s
speedup  1.07
cpu  time for grad    0.01 s
wall time for grad    0.01 s
 E :    -50.45149563  G :  0.019053    pred/act E change: -0.590D-03 -0.384D-03
Maxdispl :   0.1815   ||displ|| :   0.2521   Lambda : -0.766D-03
Largest |displ|/coords:  0.1815 (   1)  0.0620 (   6)  0.0618 (   7)
................................................................................
.............................. CYCLE   19 ......................................
................................................................................
   1    -50.7473115 -0.507473E+02  0.144E-01    9.11       0.0  T
   2    -50.7473209 -0.937123E-05  0.108E-01    9.11       1.0  T
   3    -50.7473272 -0.633556E-05  0.178E-02    9.10       1.1  T
   4    -50.7473285 -0.124673E-05  0.502E-03    9.10       3.9  T
   5    -50.7473285 -0.508006E-07  0.182E-03    9.11      10.8  T
   6    -50.7473285 -0.168942E-08  0.101E-03    9.11      19.4  T
speedup  0.93
cpu  time for SCC    0.00 s
wall time for SCC    0.01 s
speedup  1.00
cpu  time for grad    0.01 s
wall time for grad    0.01 s
 E :    -50.45172155  G :  0.017389    pred/act E change: -0.557D-03 -0.226D-03
Maxdispl :   0.2437   ||displ|| :   0.4471   Lambda : -0.171D-02
Largest |displ|/coords:  0.2437 (   1)  0.1880 (   9)  0.1806 (   2)
................................................................................
.............................. CYCLE   20 ......................................
................................................................................
   1    -50.7383275 -0.507383E+02  0.380E-01    9.14       0.0  T
   2    -50.7383681 -0.405534E-04  0.288E-01    9.14       1.0  T
   3    -50.7384021 -0.340025E-04  0.349E-02    9.14       1.0  T
   4    -50.7384073 -0.518692E-05  0.963E-03    9.14       2.0  T
   5    -50.7384074 -0.101890E-06  0.428E-03    9.14       4.6  T
   6    -50.7384074 -0.187475E-07  0.208E-03    9.14       9.4  T
   7    -50.7384074 -0.827766E-08  0.482E-04    9.14      40.7  T
speedup  1.08
cpu  time for SCC    0.01 s
wall time for SCC    0.01 s
speedup  0.99
cpu  time for grad    0.01 s
wall time for grad    0.01 s
 E :    -50.45165478  G :  0.040622    pred/act E change: -0.407D-03  0.668D-04
Maxdispl :   0.1020   ||displ|| :   0.2490   Lambda : -0.254D-02
Largest |displ|/coords:  0.1020 (   8)  0.0938 (   1)  0.0818 (   3)
................................................................................
.............................. CYCLE   21 ......................................
................................................................................
   1    -50.7457861 -0.507458E+02  0.225E-01    9.17       0.0  T
   2    -50.7458032 -0.171604E-04  0.169E-01    9.17       1.0  T
   3    -50.7458168 -0.135778E-04  0.232E-02    9.17       1.0  T
   4    -50.7458189 -0.208018E-05  0.717E-03    9.17       2.7  T
   5    -50.7458190 -0.657826E-07  0.329E-03    9.17       6.0  T
   6    -50.7458190 -0.116433E-07  0.153E-03    9.17      12.8  T
speedup  1.09
cpu  time for SCC    0.01 s
wall time for SCC    0.01 s
speedup  0.99
cpu  time for grad    0.01 s
wall time for grad    0.01 s
 E :    -50.45250601  G :  0.024781    pred/act E change: -0.103D-02 -0.851D-03
Maxdispl :   0.1464   ||displ|| :   0.3032   Lambda : -0.180D-02
Largest |displ|/coords:  0.1464 (   1)  0.1261 (   8)  0.1041 (  10)
................................................................................
.............................. CYCLE   22 ......................................
................................................................................
   1    -50.7443035 -0.507443E+02  0.274E-01    9.15       0.0  T
   2    -50.7443246 -0.210333E-04  0.207E-01    9.15       1.0  T
   3    -50.7443408 -0.162222E-04  0.270E-02    9.15       1.0  T
   4    -50.7443435 -0.267390E-05  0.888E-03    9.15       2.2  T
   5    -50.7443436 -0.156438E-06  0.290E-03    9.15       6.8  T
   6    -50.7443436 -0.228050E-08  0.162E-03    9.15      12.1  T
speedup  0.93
cpu  time for SCC    0.00 s
wall time for SCC    0.01 s
speedup  0.98
cpu  time for grad    0.01 s
wall time for grad    0.01 s
 E :    -50.45277182  G :  0.023688    pred/act E change: -0.135D-02 -0.266D-03
Maxdispl :   0.2007   ||displ|| :   0.3082   Lambda : -0.167D-02
Largest |displ|/coords:  0.2007 (   1)  0.1256 (   2)  0.0797 (   6)
................................................................................
.............................. CYCLE   23 ......................................
................................................................................
   1    -50.7464151 -0.507464E+02  0.201E-01    9.14       0.0  T
   2    -50.7464301 -0.150273E-04  0.151E-01    9.14       1.0  T
   3    -50.7464423 -0.121992E-04  0.225E-02    9.15       1.0  T
   4    -50.7464442 -0.186616E-05  0.504E-03    9.15       3.9  T
   5    -50.7464442 -0.208717E-07  0.285E-03    9.15       6.9  T
speedup  0.87
cpu  time for SCC    0.00 s
wall time for SCC    0.00 s
speedup  0.98
cpu  time for grad    0.01 s
wall time for grad    0.01 s
 E :    -50.45367410  G :  0.014736    pred/act E change: -0.982D-03 -0.902D-03
Maxdispl :   0.1924   ||displ|| :   0.4577   Lambda : -0.131D-02
Largest |displ|/coords:  0.1924 (   1)  0.1861 (   2)  0.1416 (   7)
................................................................................
.............................. CYCLE   24 ......................................
................................................................................
   1    -50.7397014 -0.507397E+02  0.331E-01    9.17       0.0  T
   2    -50.7397371 -0.356994E-04  0.249E-01    9.18       1.0  T
   3    -50.7397626 -0.255690E-04  0.332E-02    9.18       1.0  T
   4    -50.7397677 -0.503468E-05  0.872E-03    9.18       2.2  T
   5    -50.7397678 -0.841726E-07  0.408E-03    9.18       4.8  T
   6    -50.7397678 -0.192815E-07  0.181E-03    9.18      10.8  T
   7    -50.7397678 -0.659858E-08  0.447E-04    9.18      43.9  T
speedup  1.11
cpu  time for SCC    0.01 s
wall time for SCC    0.01 s
speedup  1.00
cpu  time for grad    0.01 s
wall time for grad    0.01 s
 E :    -50.45370949  G :  0.038898    pred/act E change: -0.912D-03 -0.354D-04
Maxdispl :   0.1536   ||displ|| :   0.2511   Lambda : -0.186D-02
Largest |displ|/coords:  0.1536 (   1)  0.0791 (   7)  0.0783 (   6)
................................................................................
.............................. CYCLE   25 ......................................
................................................................................
   1    -50.7442711 -0.507443E+02  0.184E-01    9.18       0.0  T
   2    -50.7442949 -0.238734E-04  0.137E-01    9.19       1.0  T
   3    -50.7443105 -0.156027E-04  0.282E-02    9.19       1.0  T
   4    -50.7443135 -0.296842E-05  0.921E-03    9.19       2.1  T
   5    -50.7443137 -0.167263E-06  0.323E-03    9.19       6.1  T
   6    -50.7443137 -0.982762E-08  0.177E-03    9.19      11.1  T
speedup  0.94
cpu  time for SCC    0.00 s
wall time for SCC    0.01 s
speedup  0.99
cpu  time for grad    0.01 s
wall time for grad    0.01 s
 E :    -50.45474407  G :  0.022745    pred/act E change: -0.794D-03 -0.103D-02
Maxdispl :   0.2056   ||displ|| :   0.3390   Lambda : -0.156D-02
Largest |displ|/coords:  0.2056 (   1)  0.0894 (   2)  0.0837 (  29)

generating ANC from model Hessian ...
 Shifting diagonal of input Hessian by   4.975421490872466E-003
 Lowest  eigenvalues of input Hessian
   -0.000000   -0.000000   -0.000000   -0.000000    0.000000    0.000000
    0.005000    0.005081    0.005232    0.005596    0.006091    0.006494
    0.006605    0.007035    0.008019    0.008679    0.009182    0.011325
 Highest eigenvalues
    1.427614    1.446696    1.488155    2.525544    3.534300    3.576489
 
cpu  time for ANC gen    0.01 s
wall time for ANC gen    0.02 s
................................................................................
.............................. CYCLE   26 ......................................
................................................................................
   1    -50.7530358 -0.507530E+02  0.179E-01    9.18       0.0  T
   2    -50.7530640 -0.281711E-04  0.133E-01    9.18       1.0  T
   3    -50.7530863 -0.223249E-04  0.298E-02    9.19       1.0  T
   4    -50.7530893 -0.299657E-05  0.773E-03    9.19       2.5  T
   5    -50.7530894 -0.931883E-07  0.341E-03    9.19       5.7  T
   6    -50.7530894 -0.114502E-07  0.162E-03    9.19      12.1  T
   7    -50.7530894 -0.460978E-08  0.405E-04    9.19      48.4  T
   8    -50.7530894 -0.305526E-09  0.113E-04    9.19     173.3  T
speedup  0.96
cpu  time for SCC    0.01 s
wall time for SCC    0.01 s
speedup  0.96
cpu  time for grad    0.01 s
wall time for grad    0.02 s
 E :    -50.45475063  G :  0.034933    pred/act E change:  0.000D+00 -0.656D-05
Maxdispl :   0.1233   ||displ|| :   0.2741   Lambda : -0.194D-02
Largest |displ|/coords:  0.1233 (  15)  0.1192 (   2)  0.0934 (   3)
................................................................................
.............................. CYCLE   27 ......................................
................................................................................
   1    -50.7480865 -0.507481E+02  0.339E-01    9.20       0.0  T
   2    -50.7481133 -0.267508E-04  0.257E-01    9.20       1.0  T
   3    -50.7481380 -0.247009E-04  0.258E-02    9.20       1.0  T
   4    -50.7481410 -0.299662E-05  0.592E-03    9.20       3.3  T
   5    -50.7481410 -0.233725E-07  0.324E-03    9.20       6.0  T
speedup  1.11
cpu  time for SCC    0.00 s
wall time for SCC    0.00 s
speedup  0.98
cpu  time for grad    0.01 s
wall time for grad    0.01 s
 E :    -50.45613511  G :  0.007377    pred/act E change:  0.000D+00 -0.138D-02
Maxdispl :   0.2253   ||displ|| :   0.4216   Lambda : -0.121D-02
Largest |displ|/coords:  0.2253 (   2)  0.1799 (   3)  0.1547 (   7)
................................................................................
.............................. CYCLE   28 ......................................
................................................................................
   1    -50.7410114 -0.507410E+02  0.367E-01    9.21       0.0  T
   2    -50.7410415 -0.301250E-04  0.276E-01    9.21       1.0  T
   3    -50.7410665 -0.249751E-04  0.301E-02    9.21       1.0  T
   4    -50.7410705 -0.401534E-05  0.116E-02    9.21       1.7  T
   5    -50.7410707 -0.216386E-06  0.445E-03    9.21       4.4  T
   6    -50.7410708 -0.195301E-07  0.237E-03    9.21       8.3  T
   7    -50.7410708 -0.137393E-07  0.396E-04    9.21      49.5  T
speedup  0.95
cpu  time for SCC    0.01 s
wall time for SCC    0.01 s
speedup  0.99
cpu  time for grad    0.01 s
wall time for grad    0.01 s
 E :    -50.45611299  G :  0.040806    pred/act E change: -0.104D-02  0.221D-04
Maxdispl :   0.0930   ||displ|| :   0.2238   Lambda : -0.186D-02
Largest |displ|/coords:  0.0930 (  15)  0.0810 (   4)  0.0718 (   2)
................................................................................
.............................. CYCLE   29 ......................................
................................................................................
   1    -50.7456204 -0.507456E+02  0.264E-01    9.21       0.0  T
   2    -50.7456487 -0.282629E-04  0.199E-01    9.21       1.0  T
   3    -50.7456712 -0.224913E-04  0.299E-02    9.22       1.0  T
   4    -50.7456749 -0.370385E-05  0.768E-03    9.22       2.6  T
   5    -50.7456750 -0.833445E-07  0.349E-03    9.22       5.6  T
   6    -50.7456750 -0.746017E-08  0.165E-03    9.22      11.9  T
speedup  1.09
cpu  time for SCC    0.01 s
wall time for SCC    0.01 s
speedup  1.06
cpu  time for grad    0.01 s
wall time for grad    0.01 s
 E :    -50.45678056  G :  0.018700    pred/act E change: -0.712D-03 -0.668D-03
Maxdispl :   0.1151   ||displ|| :   0.2529   Lambda : -0.117D-02
Largest |displ|/coords:  0.1151 (   4)  0.1020 (   6)  0.0967 (  15)
................................................................................
.............................. CYCLE   30 ......................................
................................................................................
   1    -50.7503244 -0.507503E+02  0.234E-01    9.22       0.0  T
   2    -50.7503382 -0.138415E-04  0.177E-01    9.22       1.0  T
   3    -50.7503506 -0.124115E-04  0.200E-02    9.22       1.0  T
   4    -50.7503522 -0.158067E-05  0.651E-03    9.22       3.0  T
   5    -50.7503523 -0.789391E-07  0.233E-03    9.22       8.4  T
   6    -50.7503523 -0.158071E-08  0.123E-03    9.22      16.0  T
speedup  0.93
cpu  time for SCC    0.00 s
wall time for SCC    0.01 s
speedup  0.98
cpu  time for grad    0.01 s
wall time for grad    0.01 s
 E :    -50.45718008  G :  0.006657    pred/act E change: -0.974D-03 -0.400D-03
Maxdispl :   0.2068   ||displ|| :   0.3025   Lambda : -0.773D-03
Largest |displ|/coords:  0.2068 (   2)  0.1182 (   7)  0.0815 (  21)
................................................................................
.............................. CYCLE   31 ......................................
................................................................................
   1    -50.7486393 -0.507486E+02  0.185E-01    9.21       0.0  T
   2    -50.7486457 -0.638298E-05  0.140E-01    9.21       1.0  T
   3    -50.7486524 -0.672642E-05  0.134E-02    9.21       1.5  T
   4    -50.7486531 -0.630902E-06  0.508E-03    9.21       3.9  T
   5    -50.7486531 -0.297391E-07  0.190E-03    9.21      10.3  T
   6    -50.7486531 -0.512560E-08  0.998E-04    9.21      19.7  T
speedup  0.93
cpu  time for SCC    0.00 s
wall time for SCC    0.01 s
speedup  0.98
cpu  time for grad    0.01 s
wall time for grad    0.01 s
 E :    -50.45784056  G :  0.009306    pred/act E change: -0.622D-03 -0.660D-03
Maxdispl :   0.4486   ||displ|| :   0.6616   Lambda : -0.139D-02
Largest |displ|/coords:  0.4486 (   2)  0.2330 (   7)  0.1846 (  21)
................................................................................
.............................. CYCLE   32 ......................................
................................................................................
   1    -50.7441009 -0.507441E+02  0.356E-01    9.16       0.0  T
   2    -50.7441220 -0.210845E-04  0.268E-01    9.16       1.0  T
   3    -50.7441445 -0.224467E-04  0.258E-02    9.16       1.0  T
   4    -50.7441465 -0.199782E-05  0.114E-02    9.16       1.7  T
   5    -50.7441466 -0.140452E-06  0.375E-03    9.16       5.2  T
   6    -50.7441466 -0.180462E-07  0.211E-03    9.16       9.3  T
   7    -50.7441466 -0.865739E-08  0.528E-04    9.16      37.1  T
speedup  1.09
cpu  time for SCC    0.01 s
wall time for SCC    0.01 s
speedup  1.03
cpu  time for grad    0.01 s
wall time for grad    0.01 s
 E :    -50.45867743  G :  0.024657    pred/act E change: -0.422D-03 -0.837D-03
Maxdispl :   0.2255   ||displ|| :   0.3183   Lambda : -0.639D-03
Largest |displ|/coords:  0.2255 (   2)  0.0881 (   7)  0.0741 (   9)
................................................................................
.............................. CYCLE   33 ......................................
................................................................................
   1    -50.7461475 -0.507461E+02  0.118E-01    9.14       0.0  T
   2    -50.7461513 -0.378416E-05  0.886E-02    9.14       1.0  T
   3    -50.7461548 -0.347760E-05  0.118E-02    9.14       1.7  T
   4    -50.7461552 -0.408141E-06  0.386E-03    9.14       5.1  T
   5    -50.7461552 -0.194555E-07  0.143E-03    9.14      13.7  T
speedup  1.11
cpu  time for SCC    0.00 s
wall time for SCC    0.00 s
speedup  1.06
cpu  time for grad    0.01 s
wall time for grad    0.01 s
 E :    -50.45918095  G :  0.017197    pred/act E change: -0.999D-03 -0.504D-03
Maxdispl :   0.3849   ||displ|| :   0.5029   Lambda : -0.113D-02
Largest |displ|/coords:  0.3849 (   2)  0.1173 (  15)  0.1126 (   1)
................................................................................
.............................. CYCLE   34 ......................................
................................................................................
   1    -50.7510927 -0.507511E+02  0.206E-01    9.18       0.0  T
   2    -50.7511022 -0.949259E-05  0.156E-01    9.18       1.0  T
   3    -50.7511112 -0.895788E-05  0.177E-02    9.18       1.1  T
   4    -50.7511123 -0.105898E-05  0.745E-03    9.18       2.6  T
   5    -50.7511123 -0.747504E-07  0.229E-03    9.18       8.6  T
   6    -50.7511123 -0.518516E-08  0.133E-03    9.18      14.8  T
speedup  0.93
cpu  time for SCC    0.01 s
wall time for SCC    0.01 s
speedup  0.98
cpu  time for grad    0.01 s
wall time for grad    0.01 s
 E :    -50.45995990  G :  0.012330    pred/act E change: -0.352D-03 -0.779D-03
Maxdispl :   0.3716   ||displ|| :   0.5567   Lambda : -0.134D-02
Largest |displ|/coords:  0.3716 (   2)  0.1747 (   1)  0.1615 (  15)
................................................................................
.............................. CYCLE   35 ......................................
................................................................................
   1    -50.7588993 -0.507589E+02  0.257E-01    9.29       0.0  T
   2    -50.7589293 -0.299193E-04  0.191E-01    9.29       1.0  T
   3    -50.7589506 -0.213469E-04  0.345E-02    9.29       1.0  T
   4    -50.7589541 -0.351008E-05  0.101E-02    9.29       1.9  T
   5    -50.7589543 -0.207718E-06  0.351E-03    9.29       5.6  T
   6    -50.7589543 -0.707092E-08  0.189E-03    9.29      10.4  T
   7    -50.7589543 -0.798589E-08  0.382E-04    9.29      51.3  T
speedup  0.94
cpu  time for SCC    0.01 s
wall time for SCC    0.01 s
speedup  0.97
cpu  time for grad    0.01 s
wall time for grad    0.01 s
 E :    -50.46006535  G :  0.035620    pred/act E change: -0.709D-03 -0.105D-03
Maxdispl :   0.3112   ||displ|| :   0.4143   Lambda : -0.198D-02
Largest |displ|/coords:  0.3112 (   2)  0.1312 (   7)  0.1056 (   5)
................................................................................
.............................. CYCLE   36 ......................................
................................................................................
   1    -50.7500681 -0.507501E+02  0.251E-01    9.25       0.0  T
   2    -50.7500921 -0.239676E-04  0.189E-01    9.25       1.0  T
   3    -50.7501140 -0.218619E-04  0.274E-02    9.25       1.0  T
   4    -50.7501169 -0.292700E-05  0.775E-03    9.25       2.5  T
   5    -50.7501170 -0.649339E-07  0.367E-03    9.25       5.4  T
   6    -50.7501170 -0.190503E-07  0.155E-03    9.25      12.7  T
speedup  0.93
cpu  time for SCC    0.00 s
wall time for SCC    0.01 s
speedup  0.98
cpu  time for grad    0.01 s
wall time for grad    0.01 s
 E :    -50.46107281  G :  0.025931    pred/act E change: -0.875D-03 -0.101D-02
Maxdispl :   0.1211   ||displ|| :   0.2576   Lambda : -0.146D-02
Largest |displ|/coords:  0.1211 (   2)  0.0966 (   4)  0.0854 (  11)
................................................................................
.............................. CYCLE   37 ......................................
................................................................................
   1    -50.7555948 -0.507556E+02  0.197E-01    9.31       0.0  T
   2    -50.7556283 -0.334569E-04  0.146E-01    9.31       1.0  T
   3    -50.7556504 -0.221358E-04  0.346E-02    9.31       1.0  T
   4    -50.7556537 -0.334826E-05  0.114E-02    9.31       1.7  T
   5    -50.7556540 -0.273372E-06  0.333E-03    9.31       5.9  T
   6    -50.7556540 -0.820810E-08  0.183E-03    9.31      10.7  T
speedup  1.11
cpu  time for SCC    0.01 s
wall time for SCC    0.01 s
speedup  1.04
cpu  time for grad    0.01 s
wall time for grad    0.01 s
 E :    -50.46091651  G :  0.036563    pred/act E change: -0.116D-02  0.156D-03
Maxdispl :   0.2166   ||displ|| :   0.3411   Lambda : -0.183D-02
Largest |displ|/coords:  0.2166 (   2)  0.1279 (   1)  0.1247 (  15)
................................................................................
.............................. CYCLE   38 ......................................
................................................................................
   1    -50.7525967 -0.507526E+02  0.194E-01    9.28       0.0  T
   2    -50.7526162 -0.195199E-04  0.145E-01    9.28       1.0  T
   3    -50.7526301 -0.138898E-04  0.251E-02    9.28       1.0  T
   4    -50.7526325 -0.243918E-05  0.457E-03    9.28       4.3  T
   5    -50.7526326 -0.188742E-07  0.269E-03    9.28       7.3  T
speedup  0.89
cpu  time for SCC    0.00 s
wall time for SCC    0.00 s
speedup  0.95
cpu  time for grad    0.01 s
wall time for grad    0.01 s
 E :    -50.46211628  G :  0.012091    pred/act E change: -0.777D-03 -0.120D-02
Maxdispl :   0.3679   ||displ|| :   0.5516   Lambda : -0.111D-02
Largest |displ|/coords:  0.3679 (   2)  0.2401 (   1)  0.1391 (  15)
................................................................................
.............................. CYCLE   39 ......................................
................................................................................
   1    -50.7550363 -0.507550E+02  0.259E-01    9.31       0.0  T
   2    -50.7550614 -0.250932E-04  0.193E-01    9.31       1.0  T
   3    -50.7550785 -0.170866E-04  0.308E-02    9.31       1.0  T
   4    -50.7550818 -0.338771E-05  0.874E-03    9.31       2.2  T
   5    -50.7550820 -0.166125E-06  0.342E-03    9.31       5.7  T
   6    -50.7550820 -0.710136E-08  0.185E-03    9.31      10.6  T
   7    -50.7550820 -0.742677E-08  0.304E-04    9.31      64.5  T
speedup  0.94
cpu  time for SCC    0.01 s
wall time for SCC    0.01 s
speedup  0.97
cpu  time for grad    0.01 s
wall time for grad    0.01 s
 E :    -50.46264143  G :  0.031895    pred/act E change: -0.102D-02 -0.525D-03
Maxdispl :   0.3067   ||displ|| :   0.4661   Lambda : -0.116D-02
Largest |displ|/coords:  0.3067 (   2)  0.2099 (   1)  0.1166 (   9)
................................................................................
.............................. CYCLE   40 ......................................
................................................................................
   1    -50.7508603 -0.507509E+02  0.187E-01    9.29       0.0  T
   2    -50.7508729 -0.125669E-04  0.140E-01    9.29       1.0  T
   3    -50.7508810 -0.811042E-05  0.203E-02    9.29       1.0  T
   4    -50.7508828 -0.180984E-05  0.767E-03    9.29       2.6  T
   5    -50.7508829 -0.127868E-06  0.231E-03    9.29       8.5  T
   6    -50.7508829 -0.413792E-08  0.140E-03    9.29      14.0  T
speedup  0.94
cpu  time for SCC    0.00 s
wall time for SCC    0.01 s
speedup  0.97
cpu  time for grad    0.01 s
wall time for grad    0.01 s
 E :    -50.46332341  G :  0.025001    pred/act E change: -0.723D-03 -0.682D-03
Maxdispl :   0.1835   ||displ|| :   0.3651   Lambda : -0.223D-02
Largest |displ|/coords:  0.1835 (   1)  0.1640 (   5)  0.1092 (   8)
................................................................................
.............................. CYCLE   41 ......................................
................................................................................
   1    -50.7623322 -0.507623E+02  0.249E-01    9.31       0.0  T
   2    -50.7623669 -0.347729E-04  0.186E-01    9.31       1.0  T
   3    -50.7623939 -0.269298E-04  0.345E-02    9.31       1.0  T
   4    -50.7623975 -0.366192E-05  0.115E-02    9.31       1.7  T
   5    -50.7623977 -0.163269E-06  0.361E-03    9.31       5.4  T
   6    -50.7623977 -0.145001E-07  0.200E-03    9.31       9.8  T
speedup  0.94
cpu  time for SCC    0.00 s
wall time for SCC    0.01 s
speedup  0.97
cpu  time for grad    0.01 s
wall time for grad    0.01 s
 E :    -50.46324367  G :  0.036111    pred/act E change: -0.709D-03  0.797D-04
Maxdispl :   0.2647   ||displ|| :   0.3818   Lambda : -0.243D-02
Largest |displ|/coords:  0.2647 (   2)  0.1094 (   7)  0.1042 (  21)
................................................................................
.............................. CYCLE   42 ......................................
................................................................................
   1    -50.7523889 -0.507524E+02  0.218E-01    9.22       0.0  T
   2    -50.7524112 -0.222975E-04  0.163E-01    9.22       1.0  T
   3    -50.7524270 -0.158142E-04  0.288E-02    9.22       1.0  T
   4    -50.7524299 -0.291738E-05  0.930E-03    9.22       2.1  T
   5    -50.7524301 -0.152598E-06  0.323E-03    9.22       6.1  T
   6    -50.7524301 -0.104772E-07  0.183E-03    9.22      10.7  T
speedup  0.93
cpu  time for SCC    0.00 s
wall time for SCC    0.01 s
speedup  0.96
cpu  time for grad    0.01 s
wall time for grad    0.01 s
 E :    -50.46408408  G :  0.029120    pred/act E change: -0.126D-02 -0.840D-03
Maxdispl :   0.2087   ||displ|| :   0.3492   Lambda : -0.250D-02
Largest |displ|/coords:  0.2087 (   5)  0.1294 (  11)  0.0834 (   6)
................................................................................
.............................. CYCLE   43 ......................................
................................................................................
   1    -50.7579506 -0.507580E+02  0.284E-01    9.44       0.0  T
   2    -50.7579747 -0.241687E-04  0.210E-01    9.44       1.0  T
   3    -50.7579998 -0.250423E-04  0.347E-02    9.43       1.0  T
   4    -50.7580015 -0.171204E-05  0.105E-02    9.43       1.9  T
   5    -50.7580016 -0.160012E-06  0.366E-03    9.43       5.4  T
   6    -50.7580017 -0.173712E-07  0.192E-03    9.43      10.2  T
speedup  0.94
cpu  time for SCC    0.01 s
wall time for SCC    0.01 s
speedup  0.97
cpu  time for grad    0.01 s
wall time for grad    0.01 s
 E :    -50.46309398  G :  0.047372    pred/act E change: -0.139D-02  0.990D-03
Maxdispl :   0.1310   ||displ|| :   0.2295   Lambda : -0.341D-02
Largest |displ|/coords:  0.1310 (   5)  0.0853 (   8)  0.0689 (   1)
................................................................................
.............................. CYCLE   44 ......................................
................................................................................
   1    -50.7581141 -0.507581E+02  0.195E-01    9.36       0.0  T
   2    -50.7581279 -0.138329E-04  0.146E-01    9.36       1.0  T
   3    -50.7581407 -0.127699E-04  0.227E-02    9.36       1.0  T
   4    -50.7581418 -0.116615E-05  0.576E-03    9.37       3.4  T
   5    -50.7581419 -0.465424E-07  0.255E-03    9.36       7.7  T
speedup  0.89
cpu  time for SCC    0.00 s
wall time for SCC    0.00 s
speedup  0.95
cpu  time for grad    0.01 s
wall time for grad    0.01 s
 E :    -50.46489866  G :  0.012758    pred/act E change: -0.140D-02 -0.180D-02
Maxdispl :   0.1379   ||displ|| :   0.2682   Lambda : -0.978D-03
Largest |displ|/coords:  0.1379 (   1)  0.0864 (   8)  0.0830 (   2)
................................................................................
.............................. CYCLE   45 ......................................
................................................................................
   1    -50.7558248 -0.507558E+02  0.192E-01    9.25       0.0  T
   2    -50.7558429 -0.181521E-04  0.145E-01    9.25       1.0  T
   3    -50.7558550 -0.120594E-04  0.246E-02    9.25       1.0  T
   4    -50.7558576 -0.263710E-05  0.103E-02    9.25       1.9  T
   5    -50.7558578 -0.138797E-06  0.252E-03    9.25       7.8  T
   6    -50.7558578 -0.930763E-08  0.149E-03    9.25      13.2  T
speedup  0.93
cpu  time for SCC    0.00 s
wall time for SCC    0.01 s
speedup  0.96
cpu  time for grad    0.01 s
wall time for grad    0.01 s
 E :    -50.46503337  G :  0.025116    pred/act E change: -0.180D-02 -0.135D-03
Maxdispl :   0.0997   ||displ|| :   0.2122   Lambda : -0.101D-02
Largest |displ|/coords:  0.0997 (   1)  0.0674 (   9)  0.0606 (  18)
................................................................................
.............................. CYCLE   46 ......................................
................................................................................
   1    -50.7553549 -0.507554E+02  0.152E-01    9.32       0.0  T
   2    -50.7553615 -0.651436E-05  0.114E-01    9.32       1.0  T
   3    -50.7553669 -0.541831E-05  0.168E-02    9.32       1.2  T
   4    -50.7553677 -0.809247E-06  0.602E-03    9.32       3.3  T
   5    -50.7553677 -0.567020E-07  0.187E-03    9.32      10.5  T
   6    -50.7553677 -0.315081E-08  0.105E-03    9.32      18.6  T
speedup  0.94
cpu  time for SCC    0.00 s
wall time for SCC    0.01 s
speedup  0.97
cpu  time for grad    0.01 s
wall time for grad    0.01 s
 E :    -50.46552047  G :  0.024966    pred/act E change: -0.524D-03 -0.487D-03
Maxdispl :   0.1636   ||displ|| :   0.2853   Lambda : -0.129D-02
Largest |displ|/coords:  0.1636 (   9)  0.0850 (   3)  0.0786 (   6)
................................................................................
.............................. CYCLE   47 ......................................
................................................................................
   1    -50.7580074 -0.507580E+02  0.167E-01    9.34       0.0  T
   2    -50.7580163 -0.889590E-05  0.125E-01    9.34       1.0  T
   3    -50.7580229 -0.662168E-05  0.174E-02    9.34       1.1  T
   4    -50.7580240 -0.110301E-05  0.530E-03    9.34       3.7  T
   5    -50.7580240 -0.504820E-07  0.198E-03    9.34       9.9  T
speedup  0.89
cpu  time for SCC    0.00 s
wall time for SCC    0.00 s
speedup  0.96
cpu  time for grad    0.01 s
wall time for grad    0.01 s
 E :    -50.46591793  G :  0.018866    pred/act E change: -0.528D-03 -0.397D-03
Maxdispl :   0.1386   ||displ|| :   0.2467   Lambda : -0.936D-03
Largest |displ|/coords:  0.1386 (   1)  0.0849 (   9)  0.0630 (   2)
................................................................................
.............................. CYCLE   48 ......................................
................................................................................
   1    -50.7567884 -0.507568E+02  0.194E-01    9.32       0.0  T
   2    -50.7567960 -0.754623E-05  0.146E-01    9.32       1.0  T
   3    -50.7568038 -0.786663E-05  0.149E-02    9.32       1.3  T
   4    -50.7568046 -0.750205E-06  0.689E-03    9.32       2.8  T
   5    -50.7568046 -0.496135E-07  0.199E-03    9.32       9.8  T
   6    -50.7568046 -0.535532E-08  0.118E-03    9.32      16.7  T
speedup  0.94
cpu  time for SCC    0.00 s
wall time for SCC    0.01 s
speedup  0.98
cpu  time for grad    0.01 s
wall time for grad    0.01 s
 E :    -50.46660238  G :  0.015795    pred/act E change: -0.699D-03 -0.684D-03
Maxdispl :   0.1490   ||displ|| :   0.3767   Lambda : -0.102D-02
Largest |displ|/coords:  0.1490 (   9)  0.1477 (   1)  0.1295 (   2)
................................................................................
.............................. CYCLE   49 ......................................
................................................................................
   1    -50.7567585 -0.507568E+02  0.274E-01    9.32       0.0  T
   2    -50.7567778 -0.192824E-04  0.206E-01    9.32       1.0  T
   3    -50.7567946 -0.167489E-04  0.273E-02    9.32       1.0  T
   4    -50.7567971 -0.248932E-05  0.111E-02    9.32       1.8  T
   5    -50.7567972 -0.168093E-06  0.325E-03    9.32       6.0  T
   6    -50.7567972 -0.127295E-07  0.193E-03    9.32      10.2  T
   7    -50.7567973 -0.760942E-08  0.453E-04    9.32      43.3  T
speedup  0.97
cpu  time for SCC    0.01 s
wall time for SCC    0.01 s
speedup  0.98
cpu  time for grad    0.01 s
wall time for grad    0.01 s
 E :    -50.46701915  G :  0.025490    pred/act E change: -0.496D-03 -0.417D-03
Maxdispl :   0.1112   ||displ|| :   0.2320   Lambda : -0.720D-03
Largest |displ|/coords:  0.1112 (   1)  0.0995 (   9)  0.0781 (   2)
................................................................................
.............................. CYCLE   50 ......................................
................................................................................
   1    -50.7557658 -0.507558E+02  0.163E-01    9.24       0.0  T
   2    -50.7557725 -0.673607E-05  0.122E-01    9.24       1.0  T
   3    -50.7557770 -0.451866E-05  0.158E-02    9.24       1.2  T
   4    -50.7557780 -0.101210E-05  0.449E-03    9.24       4.4  T
   5    -50.7557781 -0.342374E-07  0.172E-03    9.24      11.4  T
speedup  0.89
cpu  time for SCC    0.00 s
wall time for SCC    0.00 s
speedup  0.96
cpu  time for grad    0.01 s
wall time for grad    0.01 s
 E :    -50.46739687  G :  0.023276    pred/act E change: -0.582D-03 -0.378D-03
Maxdispl :   0.1260   ||displ|| :   0.2492   Lambda : -0.102D-02
Largest |displ|/coords:  0.1260 (   2)  0.0804 (  14)  0.0712 (   1)
................................................................................
.............................. CYCLE   51 ......................................
................................................................................
   1    -50.7637681 -0.507638E+02  0.114E-01    9.33       0.0  T
   2    -50.7637847 -0.165865E-04  0.835E-02    9.34       1.0  T
   3    -50.7637925 -0.782616E-05  0.288E-02    9.34       1.0  T
   4    -50.7637940 -0.146240E-05  0.673E-03    9.34       2.9  T
   5    -50.7637941 -0.127529E-06  0.233E-03    9.34       8.4  T
   6    -50.7637941 -0.385746E-08  0.114E-03    9.34      17.1  T
speedup  0.93
cpu  time for SCC    0.00 s
wall time for SCC    0.01 s
speedup  0.97
cpu  time for grad    0.01 s
wall time for grad    0.01 s
 E :    -50.46753645  G :  0.022154    pred/act E change: -0.379D-03 -0.140D-03
Maxdispl :   0.1778   ||displ|| :   0.3317   Lambda : -0.115D-02
Largest |displ|/coords:  0.1778 (   2)  0.1501 (   1)  0.0821 (   9)
................................................................................
.............................. CYCLE   52 ......................................
................................................................................
   1    -50.7561273 -0.507561E+02  0.228E-01    9.27       0.0  T
   2    -50.7561359 -0.860192E-05  0.171E-01    9.27       1.0  T
   3    -50.7561428 -0.694325E-05  0.176E-02    9.27       1.1  T
   4    -50.7561440 -0.114884E-05  0.746E-03    9.27       2.6  T
   5    -50.7561440 -0.787901E-07  0.238E-03    9.27       8.2  T
   6    -50.7561441 -0.500205E-08  0.133E-03    9.27      14.8  T
speedup  0.93
cpu  time for SCC    0.00 s
wall time for SCC    0.01 s
speedup  0.96
cpu  time for grad    0.01 s
wall time for grad    0.01 s
 E :    -50.46810071  G :  0.017407    pred/act E change: -0.541D-03 -0.564D-03
Maxdispl :   0.0976   ||displ|| :   0.1990   Lambda : -0.769D-03
Largest |displ|/coords:  0.0976 (   9)  0.0782 (   5)  0.0726 (   2)

generating ANC from model Hessian ...
 Shifting diagonal of input Hessian by   4.729131479846610E-003
 Lowest  eigenvalues of input Hessian
   -0.000000   -0.000000    0.000000    0.000000    0.000000    0.000000
    0.005000    0.005261    0.005933    0.006348    0.006746    0.007289
    0.007707    0.008541    0.009729    0.010524    0.011258    0.012069
 Highest eigenvalues
    1.406710    1.413736    1.463748    2.493026    3.539770    3.640137
 
cpu  time for ANC gen    0.02 s
wall time for ANC gen    0.02 s
................................................................................
.............................. CYCLE   53 ......................................
................................................................................
   1    -50.7583106 -0.507583E+02  0.156E-01    9.26       0.0  T
   2    -50.7583219 -0.112639E-04  0.118E-01    9.25       1.0  T
   3    -50.7583300 -0.812941E-05  0.205E-02    9.25       1.0  T
   4    -50.7583316 -0.152097E-05  0.792E-03    9.25       2.5  T
   5    -50.7583317 -0.103955E-06  0.218E-03    9.25       9.0  T
   6    -50.7583317 -0.403330E-08  0.122E-03    9.25      16.0  T
   7    -50.7583317 -0.291845E-08  0.350E-04    9.25      56.0  T
   8    -50.7583317 -0.260499E-09  0.113E-04    9.25     173.6  T
speedup  0.99
cpu  time for SCC    0.01 s
wall time for SCC    0.01 s
speedup  1.02
cpu  time for grad    0.02 s
wall time for grad    0.02 s
 E :    -50.46815858  G :  0.020495    pred/act E change:  0.000D+00 -0.579D-04
Maxdispl :   0.1049   ||displ|| :   0.2712   Lambda : -0.143D-02
Largest |displ|/coords:  0.1049 (  19)  0.0998 (   1)  0.0961 (   3)
................................................................................
.............................. CYCLE   54 ......................................
................................................................................
   1    -50.7581294 -0.507581E+02  0.281E-01    9.27       0.0  T
   2    -50.7581393 -0.983312E-05  0.213E-01    9.27       1.0  T
   3    -50.7581515 -0.122223E-04  0.149E-02    9.27       1.3  T
   4    -50.7581520 -0.462541E-06  0.546E-03    9.27       3.6  T
   5    -50.7581520 -0.245049E-07  0.222E-03    9.27       8.9  T
speedup  1.11
cpu  time for SCC    0.00 s
wall time for SCC    0.00 s
speedup  1.03
cpu  time for grad    0.01 s
wall time for grad    0.01 s
 E :    -50.46921325  G :  0.013050    pred/act E change:  0.000D+00 -0.105D-02
Maxdispl :   0.1705   ||displ|| :   0.3620   Lambda : -0.103D-02
Largest |displ|/coords:  0.1705 (   4)  0.1526 (   1)  0.1328 (   3)
................................................................................
.............................. CYCLE   55 ......................................
................................................................................
   1    -50.7561256 -0.507561E+02  0.310E-01    9.28       0.0  T
   2    -50.7561348 -0.921793E-05  0.234E-01    9.28       1.0  T
   3    -50.7561456 -0.107561E-04  0.177E-02    9.28       1.1  T
   4    -50.7561463 -0.713951E-06  0.655E-03    9.28       3.0  T
   5    -50.7561464 -0.438065E-07  0.291E-03    9.28       6.7  T
   6    -50.7561464 -0.166718E-07  0.115E-03    9.28      17.0  T
speedup  0.93
cpu  time for SCC    0.00 s
wall time for SCC    0.01 s
speedup  0.96
cpu  time for grad    0.01 s
wall time for grad    0.01 s
 E :    -50.46964131  G :  0.029441    pred/act E change: -0.766D-03 -0.428D-03
Maxdispl :   0.0666   ||displ|| :   0.1245   Lambda : -0.888D-03
Largest |displ|/coords:  0.0666 (   4)  0.0364 (   3)  0.0321 (   8)
................................................................................
.............................. CYCLE   56 ......................................
................................................................................
   1    -50.7597734 -0.507598E+02  0.889E-02    9.30       0.0  T
   2    -50.7597802 -0.686978E-05  0.656E-02    9.30       1.0  T
   3    -50.7597845 -0.429138E-05  0.160E-02    9.30       1.2  T
   4    -50.7597852 -0.685517E-06  0.502E-03    9.30       3.9  T
   5    -50.7597853 -0.513545E-07  0.150E-03    9.30      13.1  T
speedup  1.11
cpu  time for SCC    0.00 s
wall time for SCC    0.00 s
speedup  1.03
cpu  time for grad    0.01 s
wall time for grad    0.01 s
 E :    -50.47011990  G :  0.014359    pred/act E change: -0.585D-03 -0.479D-03
Maxdispl :   0.1487   ||displ|| :   0.2671   Lambda : -0.731D-03
Largest |displ|/coords:  0.1487 (   3)  0.1283 (   4)  0.0782 (   1)
................................................................................
.............................. CYCLE   57 ......................................
................................................................................
   1    -50.7605405 -0.507605E+02  0.171E-01    9.31       0.0  T
   2    -50.7605476 -0.712282E-05  0.129E-01    9.31       1.0  T
   3    -50.7605540 -0.637786E-05  0.156E-02    9.31       1.3  T
   4    -50.7605549 -0.926114E-06  0.614E-03    9.31       3.2  T
   5    -50.7605550 -0.419296E-07  0.200E-03    9.31       9.8  T
   6    -50.7605550 -0.422168E-08  0.114E-03    9.31      17.2  T
speedup  1.11
cpu  time for SCC    0.01 s
wall time for SCC    0.01 s
speedup  1.02
cpu  time for grad    0.01 s
wall time for grad    0.01 s
 E :    -50.47070713  G :  0.009542    pred/act E change: -0.451D-03 -0.587D-03
Maxdispl :   0.2813   ||displ|| :   0.5580   Lambda : -0.119D-02
Largest |displ|/coords:  0.2813 (   3)  0.2494 (   4)  0.2041 (   1)
................................................................................
.............................. CYCLE   58 ......................................
................................................................................
   1    -50.7576313 -0.507576E+02  0.388E-01    9.30       0.0  T
   2    -50.7576568 -0.255301E-04  0.293E-01    9.29       1.0  T
   3    -50.7576865 -0.296857E-04  0.309E-02    9.29       1.0  T
   4    -50.7576887 -0.220917E-05  0.129E-02    9.29       1.5  T
   5    -50.7576889 -0.175907E-06  0.462E-03    9.29       4.2  T
   6    -50.7576889 -0.271732E-07  0.253E-03    9.29       7.8  T
   7    -50.7576890 -0.791476E-08  0.387E-04    9.29      50.6  T
speedup  0.98
cpu  time for SCC    0.01 s
wall time for SCC    0.01 s
speedup  0.99
cpu  time for grad    0.01 s
wall time for grad    0.01 s
 E :    -50.47126677  G :  0.027767    pred/act E change: -0.392D-03 -0.560D-03
Maxdispl :   0.0592   ||displ|| :   0.1496   Lambda : -0.959D-03
Largest |displ|/coords:  0.0592 (   6)  0.0531 (   7)  0.0507 (  16)
................................................................................
.............................. CYCLE   59 ......................................
................................................................................
   1    -50.7623232 -0.507623E+02  0.923E-02    9.30       0.0  T
   2    -50.7623282 -0.495124E-05  0.690E-02    9.30       1.0  T
   3    -50.7623324 -0.419978E-05  0.132E-02    9.30       1.5  T
   4    -50.7623329 -0.559280E-06  0.398E-03    9.30       4.9  T
   5    -50.7623330 -0.172503E-07  0.150E-03    9.30      13.1  T
speedup  0.89
cpu  time for SCC    0.00 s
wall time for SCC    0.00 s
speedup  0.95
cpu  time for grad    0.01 s
wall time for grad    0.01 s
 E :    -50.47171458  G :  0.015615    pred/act E change: -0.779D-03 -0.448D-03
Maxdispl :   0.1573   ||displ|| :   0.3091   Lambda : -0.809D-03
Largest |displ|/coords:  0.1573 (   4)  0.1267 (   3)  0.1091 (   7)
................................................................................
.............................. CYCLE   60 ......................................
................................................................................
   1    -50.7599191 -0.507599E+02  0.176E-01    9.28       0.0  T
   2    -50.7599262 -0.707396E-05  0.133E-01    9.28       1.0  T
   3    -50.7599329 -0.673292E-05  0.166E-02    9.28       1.2  T
   4    -50.7599336 -0.680173E-06  0.635E-03    9.28       3.1  T
   5    -50.7599337 -0.629870E-07  0.201E-03    9.28       9.7  T
   6    -50.7599337 -0.556531E-08  0.124E-03    9.28      15.8  T
speedup  0.93
cpu  time for SCC    0.00 s
wall time for SCC    0.01 s
speedup  0.96
cpu  time for grad    0.01 s
wall time for grad    0.01 s
 E :    -50.47217890  G :  0.015468    pred/act E change: -0.490D-03 -0.464D-03
Maxdispl :   0.1766   ||displ|| :   0.3847   Lambda : -0.694D-03
Largest |displ|/coords:  0.1766 (   3)  0.1719 (   4)  0.1473 (   7)
................................................................................
.............................. CYCLE   61 ......................................
................................................................................
   1    -50.7562686 -0.507563E+02  0.239E-01    9.24       0.0  T
   2    -50.7562825 -0.139538E-04  0.181E-01    9.24       1.0  T
   3    -50.7563012 -0.186873E-04  0.205E-02    9.25       1.0  T
   4    -50.7563020 -0.781083E-06  0.639E-03    9.25       3.1  T
   5    -50.7563020 -0.645217E-07  0.324E-03    9.24       6.0  T
   6    -50.7563021 -0.201644E-07  0.122E-03    9.24      16.1  T
   7    -50.7563021 -0.303825E-08  0.279E-04    9.24      70.3  T
speedup  0.81
cpu  time for SCC    0.00 s
wall time for SCC    0.01 s
speedup  0.91
cpu  time for grad    0.01 s
wall time for grad    0.01 s
 E :    -50.47240381  G :  0.019643    pred/act E change: -0.443D-03 -0.225D-03
Maxdispl :   0.0720   ||displ|| :   0.1313   Lambda : -0.582D-03
Largest |displ|/coords:  0.0720 (   1)  0.0592 (   3)  0.0381 (   7)
................................................................................
.............................. CYCLE   62 ......................................
................................................................................
   1    -50.7612320 -0.507612E+02  0.790E-02    9.31       0.0  T
   2    -50.7612358 -0.375244E-05  0.590E-02    9.31       1.0  T
   3    -50.7612391 -0.327569E-05  0.124E-02    9.31       1.6  T
   4    -50.7612395 -0.416403E-06  0.483E-03    9.31       4.1  T
   5    -50.7612395 -0.298775E-07  0.140E-03    9.31      14.0  T
   6    -50.7612395 -0.263708E-08  0.751E-04    9.31      26.1  T
speedup  1.09
cpu  time for SCC    0.01 s
wall time for SCC    0.01 s
speedup  1.03
cpu  time for grad    0.01 s
wall time for grad    0.01 s
 E :    -50.47267324  G :  0.007980    pred/act E change: -0.399D-03 -0.269D-03
Maxdispl :   0.0808   ||displ|| :   0.1843   Lambda : -0.317D-03
Largest |displ|/coords:  0.0808 (   4)  0.0743 (   2)  0.0706 (  14)
................................................................................
.............................. CYCLE   63 ......................................
................................................................................
   1    -50.7620649 -0.507621E+02  0.114E-01    9.32       0.0  T
   2    -50.7620673 -0.247915E-05  0.861E-02    9.32       1.0  T
   3    -50.7620695 -0.212210E-05  0.891E-03    9.32       2.2  T
   4    -50.7620698 -0.314566E-06  0.354E-03    9.32       5.5  T
   5    -50.7620698 -0.232198E-07  0.120E-03    9.32      16.4  T
   6    -50.7620698 -0.172844E-08  0.690E-04    9.32      28.4  T
speedup  1.11
cpu  time for SCC    0.01 s
wall time for SCC    0.01 s
speedup  1.04
cpu  time for grad    0.01 s
wall time for grad    0.01 s
 E :    -50.47285411  G :  0.007152    pred/act E change: -0.296D-03 -0.181D-03
Maxdispl :   0.1030   ||displ|| :   0.2296   Lambda : -0.217D-03
Largest |displ|/coords:  0.1030 (   4)  0.0919 (   2)  0.0869 (   1)
................................................................................
.............................. CYCLE   64 ......................................
................................................................................
   1    -50.7612655 -0.507613E+02  0.126E-01    9.33       0.0  T
   2    -50.7612692 -0.362403E-05  0.953E-02    9.33       1.0  T
   3    -50.7612733 -0.417867E-05  0.110E-02    9.33       1.8  T
   4    -50.7612737 -0.337973E-06  0.471E-03    9.33       4.2  T
   5    -50.7612737 -0.344499E-07  0.150E-03    9.33      13.0  T
   6    -50.7612737 -0.297266E-08  0.841E-04    9.33      23.3  T
speedup  1.07
cpu  time for SCC    0.01 s
wall time for SCC    0.01 s
speedup  1.03
cpu  time for grad    0.01 s
wall time for grad    0.01 s
 E :    -50.47299943  G :  0.006841    pred/act E change: -0.164D-03 -0.145D-03
Maxdispl :   0.1125   ||displ|| :   0.2117   Lambda : -0.156D-03
Largest |displ|/coords:  0.1125 (   2)  0.1026 (   4)  0.0804 (   1)
................................................................................
.............................. CYCLE   65 ......................................
................................................................................
   1    -50.7614954 -0.507615E+02  0.112E-01    9.35       0.0  T
   2    -50.7614982 -0.281760E-05  0.841E-02    9.35       1.0  T
   3    -50.7615010 -0.280564E-05  0.102E-02    9.35       1.9  T
   4    -50.7615013 -0.321100E-06  0.410E-03    9.35       4.8  T
   5    -50.7615013 -0.242791E-07  0.126E-03    9.35      15.6  T
   6    -50.7615013 -0.200223E-08  0.735E-04    9.35      26.7  T
speedup  1.11
cpu  time for SCC    0.01 s
wall time for SCC    0.01 s
speedup  1.03
cpu  time for grad    0.01 s
wall time for grad    0.01 s
 E :    -50.47310249  G :  0.004243    pred/act E change: -0.114D-03 -0.103D-03
[...]
   2    -50.7619704 -0.295587E-06  0.333E-02    9.44       1.0  T
   3    -50.7619708 -0.379367E-06  0.369E-03    9.44       5.3  T
   4    -50.7619708 -0.117326E-07  0.750E-04    9.44      26.1  T
   5    -50.7619708 -0.912962E-09  0.288E-04    9.44      68.1  T
speedup  0.87
cpu  time for SCC    0.00 s
wall time for SCC    0.00 s
speedup  0.98
cpu  time for grad    0.01 s
wall time for grad    0.01 s
 E :    -50.47345970  G :  0.000754    pred/act E change: -0.111D-05 -0.242D-05
Maxdispl :   0.0229   ||displ|| :   0.0426   Lambda : -0.225D-05
Largest |displ|/coords:  0.0229 (   7)  0.0180 (  15)  0.0135 (  16)
................................................................................
.............................. CYCLE  136 ......................................
................................................................................
   1    -50.7619828 -0.507620E+02  0.335E-02    9.44       0.0  T
   2    -50.7619829 -0.173261E-06  0.252E-02    9.44       1.0  T
   3    -50.7619831 -0.221360E-06  0.300E-03    9.44       6.5  T
   4    -50.7619832 -0.662023E-08  0.364E-04    9.44      53.9  T
   5    -50.7619832 -0.226592E-09  0.205E-04    9.44      95.8  T
speedup  0.89
cpu  time for SCC    0.00 s
wall time for SCC    0.00 s
speedup  0.99
cpu  time for grad    0.01 s
wall time for grad    0.01 s
 E :    -50.47346148  G :  0.000645    pred/act E change: -0.175D-05 -0.178D-05
Maxdispl :   0.0442   ||displ|| :   0.0926   Lambda : -0.340D-05
Largest |displ|/coords:  0.0442 (   7)  0.0386 (  15)  0.0340 (  16)
................................................................................
.............................. CYCLE  137 ......................................
................................................................................
   1    -50.7616672 -0.507617E+02  0.793E-02    9.43       0.0  T
   2    -50.7616682 -0.988934E-06  0.593E-02    9.43       1.0  T
   3    -50.7616694 -0.121628E-05  0.842E-03    9.43       2.3  T
   4    -50.7616695 -0.427797E-07  0.961E-04    9.43      20.4  T
   5    -50.7616695 -0.185240E-08  0.462E-04    9.43      42.5  T
speedup  0.89
cpu  time for SCC    0.00 s
wall time for SCC    0.00 s
speedup  0.99
cpu  time for grad    0.01 s
wall time for grad    0.01 s
 E :    -50.47346323  G :  0.001423    pred/act E change: -0.113D-05 -0.175D-05
Maxdispl :   0.0141   ||displ|| :   0.0318   Lambda : -0.484D-05
Largest |displ|/coords:  0.0141 (   2)  0.0132 (   7)  0.0111 (  15)
................................................................................
.............................. CYCLE  138 ......................................
................................................................................
   1    -50.7620738 -0.507621E+02  0.231E-02    9.44       0.0  T
   2    -50.7620740 -0.172832E-06  0.173E-02    9.44       1.1  T
   3    -50.7620741 -0.982612E-07  0.264E-03    9.44       7.4  T
   4    -50.7620741 -0.281584E-07  0.107E-03    9.44      18.3  T
   5    -50.7620741 -0.143462E-08  0.240E-04    9.44      81.8  T
   6    -50.7620741 -0.847962E-10  0.142E-04    9.44     137.8  T
speedup  0.93
cpu  time for SCC    0.01 s
wall time for SCC    0.01 s
speedup  1.01
cpu  time for grad    0.01 s
wall time for grad    0.01 s
 E :    -50.47346422  G :  0.001167    pred/act E change: -0.172D-05 -0.989D-06
Maxdispl :   0.0089   ||displ|| :   0.0240   Lambda : -0.240D-05
Largest |displ|/coords:  0.0089 (  39)  0.0075 (   2)  0.0073 (  16)
................................................................................
.............................. CYCLE  139 ......................................
................................................................................
   1    -50.7618944 -0.507619E+02  0.210E-02    9.44       0.0  T
   2    -50.7618945 -0.849255E-07  0.154E-02    9.44       1.3  T
   3    -50.7618946 -0.800968E-07  0.291E-03    9.44       6.7  T
   4    -50.7618946 -0.602336E-08  0.727E-04    9.44      27.0  T
   5    -50.7618946 -0.891646E-09  0.115E-04    9.44     171.0  T
speedup  0.91
cpu  time for SCC    0.00 s
wall time for SCC    0.00 s
speedup  1.00
cpu  time for grad    0.01 s
wall time for grad    0.01 s
 E :    -50.47346582  G :  0.000651    pred/act E change: -0.242D-05 -0.159D-05
Maxdispl :   0.0104   ||displ|| :   0.0276   Lambda : -0.991D-06
Largest |displ|/coords:  0.0104 (   7)  0.0104 (  15)  0.0098 (  16)
................................................................................
.............................. CYCLE  140 ......................................
................................................................................
   1    -50.7618303 -0.507618E+02  0.239E-02    9.43       0.0  T
   2    -50.7618304 -0.928388E-07  0.177E-02    9.43       1.1  T
   3    -50.7618305 -0.104617E-06  0.298E-03    9.43       6.6  T
   4    -50.7618305 -0.509776E-08  0.547E-04    9.43      35.8  T
   5    -50.7618305 -0.685738E-09  0.121E-04    9.43     162.1  T
speedup  0.89
cpu  time for SCC    0.00 s
wall time for SCC    0.00 s
speedup  0.99
cpu  time for grad    0.01 s
wall time for grad    0.01 s
 E :    -50.47346650  G :  0.000640    pred/act E change: -0.120D-05 -0.682D-06
Maxdispl :   0.0061   ||displ|| :   0.0165   Lambda : -0.606D-06
Largest |displ|/coords:  0.0061 (   7)  0.0059 (  15)  0.0052 (  16)
................................................................................
.............................. CYCLE  141 ......................................
................................................................................
   1    -50.7618974 -0.507619E+02  0.133E-02    9.44       0.0  T
   2    -50.7618974 -0.286270E-07  0.984E-03    9.44       2.0  T
   3    -50.7618974 -0.322553E-07  0.165E-03    9.44      11.9  T
   4    -50.7618974 -0.161689E-08  0.292E-04    9.44      67.0  T
   5    -50.7618974 -0.218577E-09  0.656E-05    9.44     298.8  T
speedup  1.11
cpu  time for SCC    0.00 s
wall time for SCC    0.00 s
speedup  1.07
cpu  time for grad    0.01 s
wall time for grad    0.01 s
 E :    -50.47346692  G :  0.000477    pred/act E change: -0.496D-06 -0.423D-06
Maxdispl :   0.0169   ||displ|| :   0.0337   Lambda : -0.483D-06
Largest |displ|/coords:  0.0169 (   7)  0.0147 (  15)  0.0117 (  16)
................................................................................
.............................. CYCLE  142 ......................................
................................................................................
   1    -50.7618813 -0.507619E+02  0.283E-02    9.44       0.0  T
   2    -50.7618815 -0.119318E-06  0.212E-02    9.44       1.0  T
   3    -50.7618816 -0.150131E-06  0.284E-03    9.44       6.9  T
   4    -50.7618816 -0.484095E-08  0.430E-04    9.44      45.6  T
   5    -50.7618816 -0.465924E-09  0.155E-04    9.44     126.2  T
speedup  1.11
cpu  time for SCC    0.00 s
wall time for SCC    0.00 s
speedup  0.99
cpu  time for grad    0.01 s
wall time for grad    0.01 s
 E :    -50.47346724  G :  0.000488    pred/act E change: -0.303D-06 -0.316D-06
Maxdispl :   0.0050   ||displ|| :   0.0090   Lambda : -0.310D-06
Largest |displ|/coords:  0.0050 (   7)  0.0036 (  15)  0.0025 (  13)
................................................................................
.............................. CYCLE  143 ......................................
................................................................................
   1    -50.7619786 -0.507620E+02  0.737E-03    9.44       0.0  T
   2    -50.7619786 -0.101614E-07  0.556E-03    9.44       3.5  T
   3    -50.7619787 -0.104246E-07  0.696E-04    9.44      28.2  T
   4    -50.7619787 -0.903832E-09  0.260E-04    9.44      75.3  T
speedup  1.11
cpu  time for SCC    0.00 s
wall time for SCC    0.00 s
speedup  0.98
cpu  time for grad    0.01 s
wall time for grad    0.01 s
 E :    -50.47346743  G :  0.000254    pred/act E change: -0.242D-06 -0.191D-06
Maxdispl :   0.0044   ||displ|| :   0.0091   Lambda : -0.124D-06
Largest |displ|/coords:  0.0044 (   7)  0.0038 (  15)  0.0027 (  16)
................................................................................
.............................. CYCLE  144 ......................................
................................................................................
   1    -50.7619702 -0.507620E+02  0.762E-03    9.44       0.0  T
   2    -50.7619703 -0.912527E-08  0.573E-03    9.44       3.4  T
   3    -50.7619703 -0.109943E-07  0.694E-04    9.44      28.3  T
   4    -50.7619703 -0.465811E-09  0.182E-04    9.44     107.8  T
speedup  1.08
cpu  time for SCC    0.00 s
wall time for SCC    0.00 s
speedup  0.98
cpu  time for grad    0.01 s
wall time for grad    0.01 s
 E :    -50.47346753  G :  0.000174    pred/act E change: -0.155D-06 -0.971D-07
Maxdispl :   0.0090   ||displ|| :   0.0201   Lambda : -0.192D-06
Largest |displ|/coords:  0.0090 (   7)  0.0076 (  15)  0.0061 (  16)

   *** GEOMETRY OPTIMIZATION CONVERGED AFTER 144 ITERATIONS ***

------------------------------------------------------------------------
 total energy gain (kcal):     -0.0380
------------------------------------------------------------------------
================
 final structure:
================
$coord
       -2.94779056466915       -1.92816385038327       -2.36171398805641      S 
       -3.10262082544960       -1.22201609337447        0.28526160325964      O 
       -1.00135773045526       -3.80057624327719       -2.84571981779905      O 
       -2.73449371227862        0.24183640537785       -4.02827140709699      O 
       -5.55517907097822       -3.23396835086885       -3.02190843458164      O 
       -5.28361420837679       -3.56397764972418       -4.76558143053333      H 
       -0.82549475996782        2.39523893640274       -3.25157469645426      H 
        0.30337055747032        3.79496101104474       -2.69635750555845      O 
        0.42645890890786        4.91878298385301       -4.11086837206287      H 
        4.22930202443031        1.76262566440707       -0.02090097589782      O 
        4.11129649898963       -0.04402176736263       -0.37009641790386      H 
        3.01176000042388        2.56903932410209       -1.14637318952657      H 
       -2.54283106464146        3.57941920798891        1.67360108774645      O 
       -3.13898168832720        1.88726015397298        1.21217277692857      H 
       -1.71047203100135        4.18990666141498        0.15570806501708      H 
        0.21650816010093       -2.99866525513097        3.62106319734132      O 
       -1.24683533393822       -2.62473883855603        2.54857995239056      H 
        1.52073868703989       -3.51161728705232        2.43523751137865      H 
        3.27516194829772       -3.28169173269967       -0.59525741015079      O 
        1.64419751005591       -3.45642882204744       -1.51816148205241      H 
        4.38192739806033       -4.52225194765206       -1.31290620097360      H 
        1.41931889099302        1.80037101964960        4.08982067556313      N 
        2.01630511803330        2.54176728889924        5.74968937487538      H 
        2.79847856108978        1.94956497312544        2.63834110895912      H 
        0.96918221555897       -0.15619574521783        4.24258429109256      H 
       -0.23433548938445        2.71353997202484        3.39363170298262      H 
$end
 
 Bond Distances (Angstroems)
 ---------------------------
S1-O2=1.4520         S1-O3=1.4520         S1-O4=1.4523         S1-O5=1.5822         O2-S1=1.4520         O3-S1=1.4520         
O4-S1=1.4523         O5-S1=1.5822         O5-H6=0.9500         H6-O5=0.9500         H7-O8=0.9959         O8-H7=0.9959         
O8-H9=0.9582         H9-O8=0.9582         O10-H11=0.9757       O10-H12=0.9757       H11-O10=0.9757       H12-O10=0.9757       
O13-H14=0.9803       O13-H15=0.9714       H14-O13=0.9803       H15-O13=0.9714       O16-H17=0.9803       O16-H18=0.9715       
H17-O16=0.9803       H18-O16=0.9715       O19-H20=0.9960       O19-H21=0.9582       H20-O19=0.9960       H21-O19=0.9582       
N22-H23=1.0125       N22-H24=1.0625       N22-H25=1.0655       N22-H26=1.0654       H23-N22=1.0125       H24-N22=1.0625       
H25-N22=1.0655       H26-N22=1.0654       
 N  H  Rav=1.0515 sigma=0.0225  Rmin=1.0125  Rmax=1.0655     4
 O  H  Rav=0.9739 sigma=0.0139  Rmin=0.9500  Rmax=0.9960    11
 S  O  Rav=1.4846 sigma=0.0563  Rmin=1.4520  Rmax=1.5822     4
 
 selected bond angles (degree)
 --------------------
O3-S1-O2=112.69                O4-S1-O2=112.75                O4-S1-O3=112.17                O5-S1-O2=106.03                
O5-S1-O3=106.36                O5-S1-O4=106.20                H6-O5-S1= 99.37                H9-O8-H7=105.78                
H12-O10-H11=105.70             
 
 selected dihedral angles (degree)
 ---------------------------------
H6-O5-S1-O2=178.20            H6-O5-S1-O3=298.38            H6-O5-S1-O4= 58.03            
 
 CMA Distance (Angstroems)
 ---------------------------
R(CMA):  3.1816

========================================================================
 FINAL SINGLEPOINT CALCULATION ON OPTIMIZED GEOMETRY
========================================================================

 Ncao       : 65
 Nao        : 64
 Nshell     : 38
 Nel        : 80
 T(el)      :   300.0
 intcut     :    25.0
 scfconv/Eh :  0.100E-05
   qconv/e  :  0.100E-03
 intneglect :  0.100E-07
 broydamp   :      0.250
 iter      E             dE          RMSdq      gap      omega  full diag
   1    -50.7619703 -0.507620E+02  0.966E-05    9.44       0.0  T
   2    -50.7619703 -0.243006E-11  0.616E-05    9.44     318.3  T
   3    -50.7619703 -0.147793E-11  0.739E-06    9.44    2654.3  T
speedup  1.11
cpu  time for SCC    0.00 s
wall time for SCC    0.00 s

   *** convergence criteria satisfied after 3 iterations ***

          eigenvalues
 #    :          28         29         30         31         32         33         34         35
 occ. :        2.000      2.000      2.000      2.000      2.000      2.000      2.000      2.000
 eps  :       -13.558    -13.203    -12.421    -12.228    -12.199    -12.153    -12.097    -12.093
 #    :          36         37         38         39         40         41         42         43
 occ. :        2.000      2.000      2.000      2.000      2.000      0.000      0.000      0.000
 eps  :       -11.925    -11.908    -11.862    -11.816    -11.612     -2.170     -0.822     -0.261
 #    :          44         45         46         47         48         49         50         51
 occ. :        0.000      0.000      0.000      0.000      0.000      0.000      0.000      0.000
 eps  :         0.950      1.366      1.542      1.769      3.129      4.044      4.088      4.851


   #   Z            q   n(s)   n(p)   n(d)      C6AA      α(0)
   1  16 S      1.667  1.580  1.793  0.960    89.522    15.925
   2   8 O     -0.730  1.759  4.971  0.000    29.529     7.286
   3   8 O     -0.742  1.771  4.971  0.000    29.881     7.329
   4   8 O     -0.743  1.771  4.972  0.000    29.910     7.333
   5   8 O     -0.585  1.753  4.833  0.000    24.806     6.724
   6   1 H      0.342  0.658  0.000  0.000     0.597     1.209
   7   1 H      0.337  0.663  0.000  0.000     0.620     1.237
   8   8 O     -0.635  1.747  4.887  0.000    26.031     6.886
   9   1 H      0.288  0.712  0.000  0.000     0.759     1.368
  10   8 O     -0.620  1.756  4.864  0.000    25.661     6.837
  11   1 H      0.323  0.677  0.000  0.000     0.657     1.273
  12   1 H      0.322  0.678  0.000  0.000     0.657     1.274
  13   8 O     -0.612  1.752  4.860  0.000    25.481     6.813
  14   1 H      0.327  0.673  0.000  0.000     0.646     1.263
  15   1 H      0.319  0.681  0.000  0.000     0.667     1.283
  16   8 O     -0.612  1.752  4.860  0.000    25.481     6.813
  17   1 H      0.327  0.673  0.000  0.000     0.646     1.263
  18   1 H      0.319  0.681  0.000  0.000     0.667     1.283
  19   8 O     -0.634  1.747  4.887  0.000    26.026     6.885
  20   1 H      0.337  0.663  0.000  0.000     0.619     1.236
  21   1 H      0.288  0.712  0.000  0.000     0.759     1.368
  22   7 N     -0.360  1.283  4.077  0.000    29.256     8.033
  23   1 H      0.216  0.784  0.000  0.000     1.026     1.587
  24   1 H      0.286  0.714  0.000  0.000     0.757     1.363
  25   1 H      0.288  0.712  0.000  0.000     0.750     1.357
  26   1 H      0.288  0.712  0.000  0.000     0.750     1.357

 Mol. C6AA /au·bohr⁶  :       5448.109225
 Mol. C8AA /au·bohr⁸  :     117942.999010
 Mol. α(0) /au        :        106.581807

 
 Wiberg/Mayer (AO) data. WBOs > 0.1 written file <wbo>
 largest (>0.05) Wiberg bond orders for each atom
           total WBO             WBO to atom ...
     1  S   4.879    O    2 1.321    O    3 1.311    O    4 1.310    O    5 0.893
     2  O   1.745    S    1 1.321    O    3 0.109    O    4 0.109    O    5 0.060    H   14 0.051    H   17 0.051
     3  O   1.727    S    1 1.311    O    4 0.110    O    2 0.109    H   20 0.088    O    5 0.073
     4  O   1.726    S    1 1.310    O    3 0.110    O    2 0.109    H    7 0.088    O    5 0.073
     5  O   1.975    S    1 0.893    H    6 0.867    O    4 0.073    O    3 0.073    O    2 0.060
     6  H   0.883    O    5 0.867
     7  H   0.886    O    8 0.792    O    4 0.088
     8  O   1.861    H    9 0.910    H    7 0.792
     9  H   0.917    O    8 0.910
    10  O   1.924    H   12 0.848    H   11 0.848    H   24 0.117    N   22 0.059
    11  H   0.896    O   10 0.848
    12  H   0.896    O   10 0.848
    13  O   1.933    H   15 0.862    H   14 0.839    H   26 0.122    N   22 0.061
    14  H   0.893    O   13 0.839    O    2 0.051
    15  H   0.898    O   13 0.862
    16  O   1.933    H   18 0.861    H   17 0.839    H   25 0.122    N   22 0.061
    17  H   0.893    O   16 0.839    O    2 0.051
    18  H   0.898    O   16 0.861
    19  O   1.862    H   21 0.910    H   20 0.792
    20  H   0.886    O   19 0.792    O    3 0.088
    21  H   0.917    O   19 0.910
    22  N   3.513    H   23 0.949    H   24 0.797    H   26 0.791    H   25 0.790    O   16 0.061    O   13 0.061    O   10 0.059
    23  H   0.953    N   22 0.949
    24  H   0.918    N   22 0.797    O   10 0.117
    25  H   0.917    N   22 0.790    O   16 0.122
    26  H   0.917    N   22 0.791    O   13 0.122
 MOs/occ written to file <molden.input>
 
molecular dipole:
                 x           y           z       tot (Debye)
 q only:        1.508       0.961       1.086
   full:        1.026       0.407      -0.125       2.824
molecular quadrupole (traceless):
                xx          xy          yy          xz          yz          zz
 q only:       -8.098      -1.270      -0.938       4.891       5.189       9.036
  q+dip:       -9.135      -1.165      -0.599       6.853       6.187       9.734
   full:       -9.070      -0.909      -0.694       7.243       6.423       9.764

SCC energy    :     -50.7619703
rep           :       0.2881219
ES            :       0.2628208
AES           :      -0.0779520
AXC           :      -0.0085524
disp          :      -0.0192064
XB            :       0.0000000
fix           :       0.0000000
total E       :     -50.4734675
atomizationE  :       5.0037717     3139.91
(atE without considering molecular charge,
 total energy contains solvation terms)
H-L gap (eV)  :          9.4419
optimized geometry written to: xtbopt.xyz


------------------------------------------------------------------------
 * finished run on 2019/09/16 at 11:15:05.481     
------------------------------------------------------------------------
 total:
 * wall-time:     0 d,  0 h,  0 min,  3.187 sec
 *  cpu-time:     0 d,  0 h,  0 min,  3.137 sec
 * ratio c/w:     0.984 speedup
 SCF:
 * wall-time:     0 d,  0 h,  0 min,  0.165 sec
 *  cpu-time:     0 d,  0 h,  0 min,  0.140 sec
 * ratio c/w:     0.846 speedup
 ANC optimizer:
 * wall-time:     0 d,  0 h,  0 min,  2.996 sec
 *  cpu-time:     0 d,  0 h,  0 min,  2.976 sec
 * ratio c/w:     0.993 speedup

