      -----------------------------------------------------------      
     |                   =====================                   |     
     |                           x T B                           |     
     |                   =====================                   |     
     |                         S. Grimme                         |     
     |          Mulliken Center for Theoretical Chemistry        |     
     |                    University of Bonn                     |     
     |                 Version 6.0.1 (SAW181210)                 |     
      -----------------------------------------------------------      

   This program is distributed in the hope that it will be useful,
   but WITHOUT ANY WARRANTY; without even the implied warranty of
   MERCHANTABILITY or FITNESS FOR A PARTICULAR PURPOSE.
   
   FOR NON-COMMERCIAL, ACADEMIA USE ONLY.
   
   Cite this work as:
   S. Grimme, C. Bannwarth, P. Shushkov, J. Comput. Theory Chem., 2017,
   13, 1989-2009.
   C. Bannwarth, S. Ehlert and S. Grimme., ChemRxiv, 2018, preprint.
   http://doi.org/10.26434/chemrxiv.7246238.v1
   
   for sTDA-xTB:
   S. Grimme and C. Bannwarth, J. Chem. Phys., 2016, 145, 054103.
   
   in the mass-spec context:
   V. Asgeirsson, C. Bauer and S. Grimme, Chem. Sci., 2017, 8, 4879.
   
   if GBSA is used:
   P. Shushkov, F. März and S. Grimme, unpublished.
   
   for ANC optimizer:
   S. Grimme, unpublished.
   Rational Function algorithm used in ANCopt:
   F. Eckert, P. Pulay, H.-J. Werner, J. Comput. Chem., 1997, 18, 1473.
   
   with help from (in alphabetical order)
   C. Bannwarth, F. Bohle, G. Brandenburg, E. Caldeweyher, M. Checinski,
   S. Dohm, S. Ehlert, S. Ehrlich, F. März, H. Neugebauer, J. Pisarek,
   P. Pracht, P. Shushkov, and S. Spicher.
   
 * started run on 2019/09/16 at 11:12:34.858     
========================================================================
 # omp threads = 1
========================================================================
number of atoms            : 26
number of electrons        : 80
charge                     : 0
spin                       : .0
first test random number   : .2350

########################################################################
# WARNING! Please study the warnings concerning your input carefully
#  - XTBPATH is not set, using XTBHOME instead
#  - the use of '-opt' is discouraged, please use '--opt' next time
#  - the use of '-chrg' is discouraged, please use '--chrg' next time
#  - the use of '-uhf' is discouraged, please use '--uhf' next time
########################################################################

           ------------------------------------------------- 
          |                 G F N 2 - x T B                 |
          | Geometry, Frequencies, Noncovalent interactions |
          |            JCTC 2018 parametrisation            |
           ------------------------------------------------- 
      method parameters     
 k(s)        :  1.8500
 k(p)        :  2.2300
 k(d)        :  2.2300
 k(f)        :  2.0000
 kEN (H0ij)  : -2.0000
 D4 a1       :  0.5200
 D4 a2       :  5.0000
 D4 s6       :  1.0000
 D4 s8       :  2.7000
 D4 s9       :  5.0000
 alphaj      :  2.0000


            Z     q(EN)     CN     RAES       Cart. coordinates
     1  S   6.0    0.58    4.29    4.21    -3.95780    -1.71138     2.66223
     2  O   6.0   -0.34    1.20    1.80    -1.36528    -1.76602     1.73634
     3  O   6.0   -0.27    1.09    1.80    -4.58536    -1.67814     5.31604
     4  O   6.0   -0.23    2.04    1.83    -5.38971     0.60424     1.20176
     5  O   6.0   -0.22    2.05    1.83    -5.56920    -4.00065     1.46626
     6  H   1.0    0.16    1.18    1.46    -5.10808    -4.20953    -0.30294
     7  H   1.0    0.16    1.19    1.46    -4.13341     1.91354     0.89550
     8  O   6.0   -0.29    2.03    1.83    -3.91603    -3.76268    -3.28838
     9  H   1.0    0.15    0.97    1.43    -4.57279    -4.19165    -4.93132
    10  H   1.0    0.16    1.03    1.43    -2.51824    -2.64040    -3.60665
    11  O   6.0   -0.30    2.01    1.83     2.99279     4.34898     2.00726
    12  H   1.0    0.16    1.04    1.43     3.38021     2.60193     2.34246
    13  H   1.0    0.14    0.97    1.43     3.94090     5.29722     3.23874
    14  O   6.0   -0.31    2.03    1.83     3.59368    -0.63054     2.76411
    15  H   1.0    0.15    0.97    1.43     4.28807    -1.94447     3.81579
    16  H   1.0    0.17    1.02    1.43     1.88005    -1.14211     2.42297
    17  O   6.0   -0.30    2.03    1.83     0.03798    -0.58333    -3.15694
    18  H   1.0    0.16    1.02    1.43    -0.11648    -1.01644    -1.39536
    19  H   1.0    0.15    1.04    1.43     1.79912    -0.19365    -3.40429
    20  O   6.0   -0.29    2.04    1.83    -1.56547     3.59374    -0.03388
    21  H   1.0    0.16    1.03    1.43    -0.02694     4.20443     0.72414
    22  H   1.0    0.15    0.98    1.43    -1.10154     3.07962    -1.71765
    23  N   5.0   -0.22    3.00    1.93     5.07927     0.76907    -2.50967
    24  H   1.0    0.11    1.01    1.43     4.99817     0.11737    -0.69865
    25  H   1.0    0.10    0.99    1.43     5.12487     2.69007    -2.37280
    26  H   1.0    0.10    0.99    1.43     6.81122     0.25077    -3.17508

  Z AO/shell   Hii/eV     exponent
  1     Wed Apr 25 08:07:45 CEST 2018   EN: 2.200 GM2: 0.406  GM3: 0.0800  RAES: 1.40
     1s    -10.707211    1.230000
  7     Wed Apr 25 08:07:45 CEST 2018   EN: 3.040 GM2: 0.461  GM3:-0.0640  RAES: 1.90
     2s    -16.686243    2.339881
     2p    -12.523956    2.014332
  8     Wed Apr 25 08:07:45 CEST 2018   EN: 3.440 GM2: 0.452  GM3:-0.0517  RAES: 1.80
     2s    -20.229985    2.439742
     2p    -15.503117    2.137023
 16     Tue Apr 24 11:44:34 CEST 2018   EN: 2.580 GM2: 0.340  GM3:-0.0502  RAES: 3.10
     3s    -20.029654    1.981333
     3p    -11.377694    2.025643
     3d     -0.420282    1.702555
 no old-style atom pair restraining (fixing) potential

molecular fragmentation (1/2 indicates fragments):
11111112222222222222222222
# atoms in fragment 1/2:     7    19
 fragment masses (1/2) :       98.07      107.11
CMA distance (Bohr)    :   6.499
constraining FC (au)   :  0.0500
           ------------------------------------------------- 
          |        Self-Consistent Charge Iterations        |
           ------------------------------------------------- 

 Ncao       : 65
 Nao        : 64
 Nshell     : 38
 Nel        : 80
 T(el)      :   300.0
 intcut     :    25.0
 scfconv/Eh :  0.100E-05
   qconv/e  :  0.100E-03
 intneglect :  0.100E-07
 broydamp   :      0.250
 iter      E             dE          RMSdq      gap      omega  full diag
   1    -50.6295725 -0.506296E+02  0.704E+00    7.98       0.0  T
   2    -50.6807834 -0.512108E-01  0.492E+00    7.26       1.0  T
   3    -50.7183651 -0.375818E-01  0.123E+00    6.05       1.0  T
   4    -50.7225194 -0.415429E-02  0.610E-01    6.23       1.0  T
   5    -50.7235940 -0.107453E-02  0.302E-01    6.21       1.0  T
   6    -50.7240261 -0.432188E-03  0.166E-01    6.19       1.0  T
   7    -50.7241893 -0.163140E-03  0.581E-02    6.16       1.0  T
   8    -50.7242115 -0.221944E-04  0.250E-02    6.17       1.0  T
   9    -50.7242147 -0.320193E-05  0.131E-02    6.18       1.5  T
  10    -50.7242157 -0.100429E-05  0.339E-03    6.18       5.8  T
  11    -50.7242157 -0.363196E-07  0.111E-03    6.18      17.7  T
  12    -50.7242157 -0.431727E-08  0.425E-04    6.18      46.2  T
  13    -50.7242157 -0.954543E-09  0.184E-04    6.18     106.4  T
speedup  1.00
cpu  time for SCC    0.01 s
wall time for SCC    0.01 s

   *** convergence criteria satisfied after 13 iterations ***

          eigenvalues
 #    :          28         29         30         31         32         33         34         35
 occ. :        2.000      2.000      2.000      2.000      2.000      2.000      2.000      2.000
 eps  :       -13.342    -13.247    -12.964    -12.824    -12.751    -12.669    -12.469    -12.313
 #    :          36         37         38         39         40         41         42         43
 occ. :        2.000      2.000      2.000      2.000      2.000      0.000      0.000      0.000
 eps  :       -12.269    -12.145    -11.818    -11.654    -10.999     -4.820     -2.063     -0.900
 #    :          44         45         46         47         48         49         50         51
 occ. :        0.000      0.000      0.000      0.000      0.000      0.000      0.000      0.000
 eps  :        -0.105      0.495      1.413      2.079      2.311      3.354      4.418      4.972


   #   Z            q   n(s)   n(p)   n(d)      C6AA      α(0)
   1  16 S      1.648  1.629  1.799  0.923    89.948    15.962
   2   8 O     -0.689  1.764  4.925  0.000    28.403     7.145
   3   8 O     -0.613  1.768  4.844  0.000    26.432     6.893
   4   8 O     -0.588  1.765  4.823  0.000    24.879     6.734
   5   8 O     -0.571  1.754  4.816  0.000    24.472     6.678
   6   1 H      0.388  0.612  0.000  0.000     0.506     1.116
   7   1 H      0.385  0.615  0.000  0.000     0.510     1.121
   8   8 O     -0.621  1.743  4.878  0.000    25.688     6.841
   9   1 H      0.289  0.711  0.000  0.000     0.754     1.364
  10   1 H      0.339  0.661  0.000  0.000     0.615     1.231
  11   8 O     -0.609  1.742  4.867  0.000    25.410     6.803
  12   1 H      0.330  0.670  0.000  0.000     0.638     1.254
  13   1 H      0.280  0.720  0.000  0.000     0.784     1.391
  14   8 O     -0.604  1.735  4.870  0.000    25.291     6.788
  15   1 H      0.290  0.710  0.000  0.000     0.750     1.361
  16   1 H      0.332  0.668  0.000  0.000     0.633     1.249
  17   8 O     -0.642  1.745  4.897  0.000    26.211     6.910
  18   1 H      0.315  0.685  0.000  0.000     0.676     1.292
  19   1 H      0.313  0.687  0.000  0.000     0.682     1.297
  20   8 O     -0.635  1.748  4.887  0.000    26.034     6.886
  21   1 H      0.332  0.668  0.000  0.000     0.631     1.248
  22   1 H      0.310  0.690  0.000  0.000     0.691     1.306
  23   7 N     -0.456  1.399  4.057  0.000    32.011     8.403
  24   1 H      0.180  0.820  0.000  0.000     1.216     1.727
  25   1 H      0.156  0.844  0.000  0.000     1.363     1.829
  26   1 H      0.140  0.860  0.000  0.000     1.471     1.900

 Mol. C6AA /au·bohr⁶  :       5438.551395
 Mol. C8AA /au·bohr⁸  :     117395.101717
 Mol. α(0) /au        :        106.729623

 
 Wiberg/Mayer (AO) data. WBOs > 0.1 written file <wbo>
 largest (>0.05) Wiberg bond orders for each atom
           total WBO             WBO to atom ...
     1  S   4.766    O    3 1.491    O    2 1.346    O    5 0.969    O    4 0.928
     2  O   1.758    S    1 1.346    O    3 0.137    O    4 0.096    O    5 0.091
     3  O   1.827    S    1 1.491    O    2 0.137    O    4 0.100    O    5 0.085
     4  O   1.980    S    1 0.928    H    7 0.768    O    3 0.100    O    2 0.096    O    5 0.058
     5  O   2.012    S    1 0.969    H    6 0.775    O    2 0.091    O    3 0.085    O    4 0.058
     6  H   0.850    O    5 0.775    O    8 0.056
     7  H   0.852    O    4 0.768    O   20 0.064
     8  O   1.844    H    9 0.910    H   10 0.835    H    6 0.056
     9  H   0.916    O    8 0.910
    10  H   0.885    O    8 0.835
    11  O   1.846    H   13 0.913    H   12 0.845
    12  H   0.891    O   11 0.845
    13  H   0.921    O   11 0.913
    14  O   1.865    H   15 0.904    H   16 0.850
    15  H   0.916    O   14 0.904
    16  H   0.890    O   14 0.850
    17  O   1.839    H   18 0.864    H   19 0.848
    18  H   0.901    O   17 0.864
    19  H   0.902    O   17 0.848
    20  O   1.848    H   22 0.887    H   21 0.838    H    7 0.064
    21  H   0.890    O   20 0.838
    22  H   0.904    O   20 0.887
    23  N   2.977    H   26 0.975    H   25 0.972    H   24 0.945
    24  H   0.968    N   23 0.945
    25  H   0.976    N   23 0.972
    26  H   0.980    N   23 0.975
 MOs/occ written to file <molden.input>
 
molecular dipole:
                 x           y           z       tot (Debye)
 q only:        1.827       0.003      -0.835
   full:        2.682      -0.015      -0.730       7.066
molecular quadrupole (traceless):
                xx          xy          yy          xz          yz          zz
 q only:       -2.049       0.171       2.844      15.401       5.744      -0.795
  q+dip:       -0.279       1.342       1.830      19.427       6.723      -1.551
   full:       -0.427       1.765       1.934      19.707       6.685      -1.508

SCC energy    :     -50.7242157
rep           :       0.2982698
ES            :       0.2301715
AES           :      -0.0382671
AXC           :      -0.0042014
disp          :      -0.0173048
XB            :       0.0000000
fix           :       0.0000000
total E       :     -50.4256459
atomizationE  :       4.9559501     3109.91
(atE without considering molecular charge,
 total energy contains solvation terms)
H-L gap (eV)  :          6.1792
           ------------------------------------------------- 
          |                 ===============                 |
          |                   A N C O P T                   |
          |                 ===============                 |
          |          Approximate Normal Coordinate          |
          |           Rational Function Optimizer           |
           ------------------------------------------------- 
dumping coords to <xtbopt.coord> and <xtbopt.log>
 optlevel               2
 Maxcycle             520
 Maxmicro              25
 Econv         1.000000000000000E-007
 Gconv         2.000000000000000E-004
 Maxdispl       1.00000000000000     
 Hlow          5.000000000000000E-003
 S6             20.0000000000000     
 Nvar               72

generating ANC from model Hessian ...
 Shifting diagonal of input Hessian by   5.126450427768032E-003
 Lowest  eigenvalues of input Hessian
    0.005000    0.005089   -0.000000   -0.000000   -0.000000   -0.000000
    0.000000    0.000000    0.005443    0.005617    0.005722    0.005901
    0.005999    0.006274    0.006548    0.006845    0.007140    0.007353
 Highest eigenvalues
    1.421248    1.426937    1.427383    1.950337    2.773470    3.593442
 
cpu  time for ANC gen    0.01 s
wall time for ANC gen    0.02 s
................................................................................
.............................. CYCLE    1 ......................................
................................................................................
   1    -50.7242157 -0.507242E+02  0.583E-05    6.18       0.0  T
   2    -50.7242157 -0.601119E-11  0.458E-05    6.18     427.9  T
   3    -50.7242157 -0.670042E-11  0.225E-05    6.18     872.3  T
speedup  1.00
cpu  time for SCC    0.00 s
wall time for SCC    0.00 s
speedup  0.98
cpu  time for grad    0.01 s
wall time for grad    0.01 s
 E :    -50.42564591  G :  0.092031    pred/act E change:  0.000D+00  0.298D-07
Maxdispl :   0.1399   ||displ|| :   0.3826   Lambda : -0.112D-01
Largest |displ|/coords:  0.1399 (  23)  0.1256 (  34)  0.1205 (  24)
................................................................................
.............................. CYCLE    2 ......................................
................................................................................
   1    -50.7266025 -0.507266E+02  0.551E-01    6.63       0.0  T
   2    -50.7267149 -0.112400E-03  0.418E-01    6.62       1.0  T
   3    -50.7267800 -0.651112E-04  0.622E-02    6.58       1.0  T
   4    -50.7267985 -0.184226E-04  0.306E-02    6.60       1.0  T
   5    -50.7267996 -0.118498E-05  0.574E-03    6.60       3.4  T
   6    -50.7267997 -0.407276E-07  0.344E-03    6.60       5.7  T
speedup  0.94
cpu  time for SCC    0.00 s
wall time for SCC    0.01 s
speedup  1.02
cpu  time for grad    0.01 s
wall time for grad    0.01 s
 E :    -50.43381958  G :  0.067951    pred/act E change:  0.000D+00 -0.817D-02
Maxdispl :   0.0861   ||displ|| :   0.2975   Lambda : -0.612D-02
Largest |displ|/coords:  0.0861 (   8)  0.0774 (  31)  0.0735 (   4)
................................................................................
.............................. CYCLE    3 ......................................
................................................................................
   1    -50.7382282 -0.507382E+02  0.301E-01    7.29       0.0  T
   2    -50.7382687 -0.405912E-04  0.226E-01    7.30       1.0  T
   3    -50.7382879 -0.191494E-04  0.357E-02    7.32       1.0  T
   4    -50.7382941 -0.625416E-05  0.193E-02    7.32       1.0  T
   5    -50.7382945 -0.395354E-06  0.267E-03    7.32       7.4  T
   6    -50.7382946 -0.924302E-08  0.175E-03    7.32      11.2  T
speedup  1.13
cpu  time for SCC    0.01 s
wall time for SCC    0.01 s
speedup  1.02
cpu  time for grad    0.01 s
wall time for grad    0.01 s
 E :    -50.43826802  G :  0.046017    pred/act E change: -0.640D-02 -0.445D-02
Maxdispl :   0.1791   ||displ|| :   0.5254   Lambda : -0.773D-02
Largest |displ|/coords:  0.1791 (  14)  0.1481 (  23)  0.1402 (  17)
................................................................................
.............................. CYCLE    4 ......................................
................................................................................
   1    -50.7435350 -0.507435E+02  0.571E-01    8.43       0.0  T
   2    -50.7437116 -0.176647E-03  0.431E-01    8.44       1.0  T
   3    -50.7438012 -0.896160E-04  0.749E-02    8.46       1.0  T
   4    -50.7438291 -0.278434E-04  0.379E-02    8.47       1.0  T
   5    -50.7438309 -0.183200E-05  0.600E-03    8.47       3.3  T
   6    -50.7438310 -0.611927E-07  0.414E-03    8.47       4.7  T
   7    -50.7438310 -0.287005E-07  0.137E-03    8.47      14.3  T
speedup  1.13
cpu  time for SCC    0.01 s
wall time for SCC    0.01 s
speedup  1.01
cpu  time for grad    0.01 s
wall time for grad    0.01 s
 E :    -50.44109118  G :  0.040930    pred/act E change: -0.333D-02 -0.282D-02
Maxdispl :   0.2649   ||displ|| :   0.4217   Lambda : -0.440D-02
Largest |displ|/coords:  0.2649 (  11)  0.1272 (   3)  0.1149 (  23)
................................................................................
.............................. CYCLE    5 ......................................
................................................................................
   1    -50.7480381 -0.507480E+02  0.573E-01    8.51       0.0  T
   2    -50.7481722 -0.134098E-03  0.435E-01    8.53       1.0  T
   3    -50.7482680 -0.958595E-04  0.700E-02    8.57       1.0  T
   4    -50.7482869 -0.188326E-04  0.165E-02    8.56       1.2  T
   5    -50.7482875 -0.636219E-06  0.629E-03    8.56       3.1  T
   6    -50.7482875 -0.143541E-07  0.319E-03    8.56       6.2  T
   7    -50.7482875 -0.183001E-07  0.609E-04    8.56      32.2  T
speedup  0.97
cpu  time for SCC    0.01 s
wall time for SCC    0.01 s
speedup  1.01
cpu  time for grad    0.01 s
wall time for grad    0.01 s
 E :    -50.44155958  G :  0.040389    pred/act E change: -0.493D-02 -0.468D-03
Maxdispl :   0.1802   ||displ|| :   0.3312   Lambda : -0.356D-02
Largest |displ|/coords:  0.1802 (  15)  0.0945 (   5)  0.0866 (  25)
................................................................................
.............................. CYCLE    6 ......................................
................................................................................
   1    -50.7439628 -0.507440E+02  0.370E-01    8.07       0.0  T
   2    -50.7440186 -0.557747E-04  0.280E-01    8.08       1.0  T
   3    -50.7440472 -0.285596E-04  0.448E-02    8.11       1.0  T
   4    -50.7440561 -0.890374E-05  0.193E-02    8.11       1.0  T
   5    -50.7440566 -0.593710E-06  0.348E-03    8.11       5.6  T
   6    -50.7440567 -0.818489E-08  0.205E-03    8.11       9.6  T
speedup  0.93
cpu  time for SCC    0.00 s
wall time for SCC    0.01 s
speedup  1.00
cpu  time for grad    0.01 s
wall time for grad    0.01 s
 E :    -50.44268300  G :  0.027192    pred/act E change: -0.259D-02 -0.112D-02
Maxdispl :   0.1018   ||displ|| :   0.2656   Lambda : -0.218D-02
Largest |displ|/coords:  0.1018 (   4)  0.0966 (  17)  0.0755 (   2)
................................................................................
.............................. CYCLE    7 ......................................
................................................................................
   1    -50.7411463 -0.507411E+02  0.252E-01    8.01       0.0  T
   2    -50.7411690 -0.226613E-04  0.190E-01    8.01       1.0  T
   3    -50.7411828 -0.137942E-04  0.275E-02    8.02       1.0  T
   4    -50.7411864 -0.363105E-05  0.767E-03    8.02       2.6  T
   5    -50.7411865 -0.123226E-06  0.287E-03    8.02       6.8  T
   6    -50.7411865 -0.539680E-08  0.164E-03    8.02      11.9  T
speedup  1.11
cpu  time for SCC    0.01 s
wall time for SCC    0.01 s
speedup  1.00
cpu  time for grad    0.01 s
wall time for grad    0.01 s
 E :    -50.44373764  G :  0.018224    pred/act E change: -0.197D-02 -0.105D-02
Maxdispl :   0.1823   ||displ|| :   0.4138   Lambda : -0.201D-02
Largest |displ|/coords:  0.1823 (   4)  0.1663 (   7)  0.1421 (  23)
................................................................................
.............................. CYCLE    8 ......................................
................................................................................
   1    -50.7309851 -0.507310E+02  0.463E-01    8.06       0.0  T
   2    -50.7310636 -0.784932E-04  0.350E-01    8.07       1.0  T
   3    -50.7311203 -0.567106E-04  0.502E-02    8.10       1.0  T
   4    -50.7311313 -0.109313E-04  0.114E-02    8.10       1.7  T
   5    -50.7311315 -0.192950E-06  0.489E-03    8.10       4.0  T
   6    -50.7311315 -0.220776E-07  0.261E-03    8.10       7.5  T
   7    -50.7311315 -0.119833E-07  0.623E-04    8.10      31.5  T
speedup  0.97
cpu  time for SCC    0.01 s
wall time for SCC    0.01 s
speedup  0.94
cpu  time for grad    0.01 s
wall time for grad    0.01 s
 E :    -50.44352593  G :  0.045120    pred/act E change: -0.117D-02  0.212D-03
Maxdispl :   0.1122   ||displ|| :   0.2596   Lambda : -0.330D-02
Largest |displ|/coords:  0.1122 (  11)  0.1119 (  15)  0.0990 (  17)
................................................................................
.............................. CYCLE    9 ......................................
................................................................................
   1    -50.7359089 -0.507359E+02  0.338E-01    8.32       0.0  T
   2    -50.7359821 -0.732284E-04  0.253E-01    8.32       1.0  T
   3    -50.7360272 -0.450282E-04  0.503E-02    8.33       1.0  T
   4    -50.7360370 -0.978600E-05  0.154E-02    8.33       1.3  T
   5    -50.7360375 -0.582726E-06  0.493E-03    8.33       4.0  T
   6    -50.7360376 -0.163234E-07  0.285E-03    8.33       6.9  T
speedup  0.94
cpu  time for SCC    0.00 s
wall time for SCC    0.01 s
speedup  1.00
cpu  time for grad    0.01 s
wall time for grad    0.01 s
 E :    -50.44441127  G :  0.026638    pred/act E change: -0.117D-02 -0.885D-03
Maxdispl :   0.1434   ||displ|| :   0.3030   Lambda : -0.263D-02
Largest |displ|/coords:  0.1434 (   8)  0.0850 (  23)  0.0799 (  26)
................................................................................
.............................. CYCLE   10 ......................................
................................................................................
   1    -50.7511402 -0.507511E+02  0.419E-01    8.29       0.0  T
   2    -50.7512111 -0.709799E-04  0.317E-01    8.29       1.0  T
   3    -50.7512623 -0.511559E-04  0.458E-02    8.30       1.0  T
   4    -50.7512720 -0.970788E-05  0.159E-02    8.29       1.2  T
   5    -50.7512725 -0.467524E-06  0.492E-03    8.29       4.0  T
   6    -50.7512725 -0.104988E-07  0.286E-03    8.29       6.8  T
speedup  0.96
cpu  time for SCC    0.01 s
wall time for SCC    0.01 s
speedup  1.01
cpu  time for grad    0.01 s
wall time for grad    0.01 s
 E :    -50.44322117  G :  0.041507    pred/act E change: -0.176D-02  0.119D-02
Maxdispl :   0.0895   ||displ|| :   0.2475   Lambda : -0.348D-02
Largest |displ|/coords:  0.0895 (   2)  0.0852 (  23)  0.0819 (   4)
................................................................................
.............................. CYCLE   11 ......................................
................................................................................
   1    -50.7378804 -0.507379E+02  0.323E-01    8.13       0.0  T
   2    -50.7379157 -0.353346E-04  0.244E-01    8.13       1.0  T
   3    -50.7379417 -0.260399E-04  0.332E-02    8.14       1.0  T
   4    -50.7379463 -0.453323E-05  0.764E-03    8.14       2.6  T
   5    -50.7379463 -0.776731E-07  0.368E-03    8.14       5.3  T
   6    -50.7379464 -0.135752E-07  0.177E-03    8.14      11.1  T
speedup  1.13
cpu  time for SCC    0.01 s
wall time for SCC    0.01 s
speedup  1.00
cpu  time for grad    0.01 s
wall time for grad    0.01 s
 E :    -50.44507480  G :  0.015580    pred/act E change: -0.143D-02 -0.185D-02
Maxdispl :   0.1346   ||displ|| :   0.3161   Lambda : -0.129D-02
Largest |displ|/coords:  0.1346 (  14)  0.1177 (   7)  0.1109 (  26)
................................................................................
.............................. CYCLE   12 ......................................
................................................................................
   1    -50.7320610 -0.507321E+02  0.354E-01    8.20       0.0  T
   2    -50.7321120 -0.509182E-04  0.268E-01    8.21       1.0  T
   3    -50.7321474 -0.354026E-04  0.394E-02    8.23       1.0  T
   4    -50.7321549 -0.756837E-05  0.902E-03    8.23       2.2  T
   5    -50.7321550 -0.103612E-06  0.406E-03    8.23       4.8  T
   6    -50.7321550 -0.152120E-07  0.201E-03    8.23       9.7  T
   7    -50.7321550 -0.752854E-08  0.469E-04    8.23      41.8  T
speedup  0.98
cpu  time for SCC    0.01 s
wall time for SCC    0.01 s
speedup  0.94
cpu  time for grad    0.01 s
wall time for grad    0.01 s
 E :    -50.44467572  G :  0.037852    pred/act E change: -0.184D-02  0.399D-03
Maxdispl :   0.0624   ||displ|| :   0.1755   Lambda : -0.196D-02
Largest |displ|/coords:  0.0624 (   3)  0.0581 (  14)  0.0536 (  11)
................................................................................
.............................. CYCLE   13 ......................................
................................................................................
   1    -50.7384135 -0.507384E+02  0.232E-01    8.27       0.0  T
   2    -50.7384435 -0.299364E-04  0.175E-01    8.27       1.0  T
   3    -50.7384632 -0.196824E-04  0.311E-02    8.27       1.0  T
   4    -50.7384674 -0.419811E-05  0.715E-03    8.28       2.7  T
   5    -50.7384674 -0.909211E-07  0.316E-03    8.27       6.2  T
   6    -50.7384675 -0.680873E-08  0.161E-03    8.27      12.2  T
speedup  0.93
cpu  time for SCC    0.00 s
wall time for SCC    0.01 s
speedup  0.99
cpu  time for grad    0.01 s
wall time for grad    0.01 s
 E :    -50.44551011  G :  0.012538    pred/act E change: -0.711D-03 -0.834D-03
Maxdispl :   0.1146   ||displ|| :   0.2875   Lambda : -0.820D-03
Largest |displ|/coords:  0.1146 (  10)  0.1031 (   6)  0.0990 (   4)
................................................................................
.............................. CYCLE   14 ......................................
................................................................................
   1    -50.7364622 -0.507365E+02  0.259E-01    8.18       0.0  T
   2    -50.7364741 -0.119492E-04  0.195E-01    8.19       1.0  T
   3    -50.7364827 -0.860062E-05  0.190E-02    8.20       1.0  T
   4    -50.7364845 -0.178515E-05  0.765E-03    8.20       2.6  T
   5    -50.7364846 -0.769218E-07  0.277E-03    8.20       7.1  T
   6    -50.7364846 -0.654238E-08  0.152E-03    8.20      12.9  T
speedup  1.13
cpu  time for SCC    0.01 s
wall time for SCC    0.01 s
speedup  0.98
cpu  time for grad    0.01 s
wall time for grad    0.01 s
 E :    -50.44541662  G :  0.021485    pred/act E change: -0.101D-02  0.935D-04
Maxdispl :   0.0646   ||displ|| :   0.1671   Lambda : -0.903D-03
Largest |displ|/coords:  0.0646 (   7)  0.0581 (  13)  0.0516 (   5)
................................................................................
.............................. CYCLE   15 ......................................
................................................................................
   1    -50.7373761 -0.507374E+02  0.146E-01    8.21       0.0  T
   2    -50.7373845 -0.845659E-05  0.110E-01    8.21       1.0  T
   3    -50.7373904 -0.582032E-05  0.164E-02    8.21       1.2  T
   4    -50.7373916 -0.125631E-05  0.401E-03    8.21       4.9  T
   5    -50.7373916 -0.193957E-07  0.198E-03    8.21       9.9  T
speedup  0.89
cpu  time for SCC    0.00 s
wall time for SCC    0.00 s
speedup  0.90
cpu  time for grad    0.01 s
wall time for grad    0.01 s
 E :    -50.44589736  G :  0.014775    pred/act E change: -0.444D-03 -0.481D-03
Maxdispl :   0.1397   ||displ|| :   0.2518   Lambda : -0.618D-03
Largest |displ|/coords:  0.1397 (   5)  0.0862 (   4)  0.0839 (   8)
................................................................................
.............................. CYCLE   16 ......................................
................................................................................
   1    -50.7374511 -0.507375E+02  0.207E-01    8.26       0.0  T
   2    -50.7374614 -0.103257E-04  0.157E-01    8.27       1.0  T
   3    -50.7374722 -0.108124E-04  0.171E-02    8.29       1.1  T
   4    -50.7374732 -0.100769E-05  0.565E-03    8.28       3.5  T
   5    -50.7374733 -0.344428E-07  0.263E-03    8.28       7.5  T
   6    -50.7374733 -0.124881E-07  0.104E-03    8.28      18.9  T
speedup  0.94
cpu  time for SCC    0.00 s
wall time for SCC    0.01 s
speedup  1.00
cpu  time for grad    0.01 s
wall time for grad    0.01 s
 E :    -50.44583119  G :  0.015409    pred/act E change: -0.464D-03  0.662D-04
Maxdispl :   0.1341   ||displ|| :   0.2064   Lambda : -0.745D-03
Largest |displ|/coords:  0.1341 (   5)  0.0820 (   2)  0.0766 (   4)
................................................................................
.............................. CYCLE   17 ......................................
................................................................................
   1    -50.7368334 -0.507368E+02  0.171E-01    8.26       0.0  T
   2    -50.7368372 -0.373021E-05  0.128E-01    8.26       1.0  T
   3    -50.7368408 -0.363494E-05  0.107E-02    8.26       1.8  T
   4    -50.7368412 -0.406469E-06  0.533E-03    8.26       3.7  T
   5    -50.7368412 -0.376335E-07  0.154E-03    8.27      12.7  T
   6    -50.7368412 -0.357286E-08  0.905E-04    8.26      21.7  T
speedup  0.93
cpu  time for SCC    0.00 s
wall time for SCC    0.01 s
speedup  0.99
cpu  time for grad    0.01 s
wall time for grad    0.01 s
 E :    -50.44630107  G :  0.009659    pred/act E change: -0.329D-03 -0.470D-03
Maxdispl :   0.1261   ||displ|| :   0.2538   Lambda : -0.337D-03
Largest |displ|/coords:  0.1261 (   2)  0.1234 (   4)  0.1069 (   5)
................................................................................
.............................. CYCLE   18 ......................................
................................................................................
   1    -50.7370859 -0.507371E+02  0.160E-01    8.22       0.0  T
   2    -50.7370893 -0.336098E-05  0.121E-01    8.22       1.0  T
   3    -50.7370910 -0.171296E-05  0.965E-03    8.23       2.0  T
   4    -50.7370916 -0.630321E-06  0.452E-03    8.23       4.3  T
   5    -50.7370917 -0.400294E-07  0.122E-03    8.23      16.1  T
   6    -50.7370917 -0.112517E-08  0.739E-04    8.23      26.5  T
speedup  0.94
cpu  time for SCC    0.00 s
wall time for SCC    0.01 s
speedup  1.00
cpu  time for grad    0.01 s
wall time for grad    0.01 s
 E :    -50.44652710  G :  0.012343    pred/act E change: -0.388D-03 -0.226D-03
Maxdispl :   0.2121   ||displ|| :   0.3893   Lambda : -0.430D-03
Largest |displ|/coords:  0.2121 (   2)  0.1711 (   4)  0.1294 (  10)
................................................................................
.............................. CYCLE   19 ......................................
................................................................................
   1    -50.7353177 -0.507353E+02  0.222E-01    8.20       0.0  T
   2    -50.7353236 -0.588786E-05  0.167E-01    8.21       1.0  T
   3    -50.7353279 -0.437557E-05  0.146E-02    8.23       1.3  T
   4    -50.7353288 -0.861484E-06  0.622E-03    8.23       3.2  T
   5    -50.7353288 -0.436756E-07  0.178E-03    8.23      11.0  T
   6    -50.7353288 -0.240129E-08  0.100E-03    8.23      19.6  T
speedup  1.09
cpu  time for SCC    0.01 s
wall time for SCC    0.01 s
speedup  0.98
cpu  time for grad    0.01 s
wall time for grad    0.01 s
 E :    -50.44679112  G :  0.015602    pred/act E change: -0.179D-03 -0.264D-03
Maxdispl :   0.1840   ||displ|| :   0.3279   Lambda : -0.560D-03
Largest |displ|/coords:  0.1840 (   2)  0.1245 (   4)  0.1183 (  10)
................................................................................
.............................. CYCLE   20 ......................................
................................................................................
   1    -50.7390675 -0.507391E+02  0.185E-01    8.23       0.0  T
   2    -50.7390748 -0.733090E-05  0.139E-01    8.23       1.0  T
   3    -50.7390801 -0.527613E-05  0.157E-02    8.24       1.2  T
   4    -50.7390811 -0.101694E-05  0.611E-03    8.24       3.2  T
   5    -50.7390812 -0.587629E-07  0.194E-03    8.24      10.1  T
   6    -50.7390812 -0.375321E-08  0.116E-03    8.24      16.9  T
speedup  0.94
cpu  time for SCC    0.00 s
wall time for SCC    0.01 s
speedup  1.00
cpu  time for grad    0.01 s
wall time for grad    0.01 s
 E :    -50.44710116  G :  0.012484    pred/act E change: -0.248D-03 -0.310D-03
Maxdispl :   0.2588   ||displ|| :   0.4148   Lambda : -0.680D-03
Largest |displ|/coords:  0.2588 (   2)  0.1465 (   4)  0.1373 (  10)
................................................................................
.............................. CYCLE   21 ......................................
................................................................................
   1    -50.7376430 -0.507376E+02  0.267E-01    8.27       0.0  T
   2    -50.7376609 -0.179020E-04  0.201E-01    8.27       1.0  T
   3    -50.7376727 -0.117477E-04  0.247E-02    8.29       1.0  T
   4    -50.7376754 -0.274050E-05  0.616E-03    8.29       3.2  T
   5    -50.7376755 -0.695756E-07  0.271E-03    8.29       7.2  T
   6    -50.7376755 -0.628884E-08  0.161E-03    8.29      12.2  T
speedup  1.09
cpu  time for SCC    0.01 s
wall time for SCC    0.01 s
speedup  0.98
cpu  time for grad    0.01 s
wall time for grad    0.01 s
 E :    -50.44747344  G :  0.015086    pred/act E change: -0.310D-03 -0.372D-03
Maxdispl :   0.1828   ||displ|| :   0.2847   Lambda : -0.576D-03
Largest |displ|/coords:  0.1828 (   2)  0.1250 (  10)  0.0715 (  18)
................................................................................
.............................. CYCLE   22 ......................................
................................................................................
   1    -50.7405065 -0.507405E+02  0.157E-01    8.26       0.0  T
   2    -50.7405188 -0.122838E-04  0.117E-01    8.26       1.0  T
   3    -50.7405276 -0.883450E-05  0.201E-02    8.27       1.0  T
   4    -50.7405293 -0.163209E-05  0.528E-03    8.27       3.7  T
   5    -50.7405293 -0.449812E-07  0.241E-03    8.27       8.1  T
   6    -50.7405293 -0.628933E-08  0.108E-03    8.27      18.2  T
speedup  0.94
cpu  time for SCC    0.01 s
wall time for SCC    0.01 s
speedup  0.99
cpu  time for grad    0.01 s
wall time for grad    0.01 s
 E :    -50.44750350  G :  0.022357    pred/act E change: -0.399D-03 -0.301D-04
Maxdispl :   0.2007   ||displ|| :   0.3136   Lambda : -0.943D-03
Largest |displ|/coords:  0.2007 (   2)  0.1121 (  10)  0.0688 (  23)
................................................................................
.............................. CYCLE   23 ......................................
................................................................................
   1    -50.7345188 -0.507345E+02  0.212E-01    8.24       0.0  T
   2    -50.7345341 -0.153046E-04  0.159E-01    8.25       1.0  T
   3    -50.7345436 -0.953699E-05  0.223E-02    8.28       1.0  T
   4    -50.7345458 -0.222702E-05  0.699E-03    8.27       2.8  T
   5    -50.7345459 -0.865890E-07  0.261E-03    8.27       7.5  T
   6    -50.7345459 -0.504803E-08  0.139E-03    8.27      14.1  T
speedup  1.13
cpu  time for SCC    0.01 s
wall time for SCC    0.01 s
speedup  1.07
cpu  time for grad    0.01 s
wall time for grad    0.01 s
 E :    -50.44784259  G :  0.017375    pred/act E change: -0.312D-03 -0.339D-03
Maxdispl :   0.0836   ||displ|| :   0.2126   Lambda : -0.839D-03
Largest |displ|/coords:  0.0836 (  12)  0.0817 (   2)  0.0624 (  19)
................................................................................
.............................. CYCLE   24 ......................................
................................................................................
   1    -50.7396428 -0.507396E+02  0.162E-01    8.37       0.0  T
   2    -50.7396554 -0.126413E-04  0.120E-01    8.35       1.0  T
   3    -50.7396614 -0.598087E-05  0.193E-02    8.32       1.0  T
   4    -50.7396632 -0.176343E-05  0.594E-03    8.33       3.3  T
   5    -50.7396632 -0.592740E-07  0.209E-03    8.33       9.4  T
   6    -50.7396633 -0.286283E-08  0.102E-03    8.33      19.2  T
speedup  0.94
cpu  time for SCC    0.00 s
wall time for SCC    0.01 s
speedup  0.99
cpu  time for grad    0.01 s
wall time for grad    0.01 s
 E :    -50.44798547  G :  0.018402    pred/act E change: -0.518D-03 -0.143D-03
Maxdispl :   0.1983   ||displ|| :   0.2723   Lambda : -0.704D-03
Largest |displ|/coords:  0.1983 (   2)  0.0865 (  10)  0.0671 (  18)
................................................................................
.............................. CYCLE   25 ......................................
................................................................................
   1    -50.7385200 -0.507385E+02  0.173E-01    8.31       0.0  T
   2    -50.7385297 -0.972413E-05  0.130E-01    8.32       1.0  T
   3    -50.7385366 -0.683842E-05  0.176E-02    8.33       1.1  T
   4    -50.7385379 -0.131850E-05  0.593E-03    8.33       3.3  T
   5    -50.7385380 -0.645370E-07  0.209E-03    8.33       9.4  T
   6    -50.7385380 -0.304605E-08  0.114E-03    8.33      17.1  T
speedup  1.13
cpu  time for SCC    0.01 s
wall time for SCC    0.01 s
speedup  1.00
cpu  time for grad    0.01 s
wall time for grad    0.01 s
 E :    -50.44825939  G :  0.016435    pred/act E change: -0.439D-03 -0.274D-03
Maxdispl :   0.0880   ||displ|| :   0.1965   Lambda : -0.692D-03
Largest |displ|/coords:  0.0880 (   4)  0.0860 (   2)  0.0616 (  19)

generating ANC from model Hessian ...
 Shifting diagonal of input Hessian by   5.373107475590860E-003
 Lowest  eigenvalues of input Hessian
    0.005000    0.005264   -0.000000   -0.000000   -0.000000   -0.000000
    0.000000    0.000000    0.005474    0.005795    0.005858    0.006103
    0.006526    0.006710    0.006997    0.007096    0.007648    0.009790
 Highest eigenvalues
    1.410588    1.422540    1.437475    2.740106    3.250485    3.791842
 
cpu  time for ANC gen    0.02 s
wall time for ANC gen    0.02 s
................................................................................
.............................. CYCLE   26 ......................................
................................................................................
   1    -50.7402727 -0.507403E+02  0.928E-02    8.25       0.0  T
   2    -50.7402850 -0.123615E-04  0.668E-02    8.26       1.0  T
   3    -50.7402909 -0.590241E-05  0.197E-02    8.27       1.0  T
   4    -50.7402920 -0.104173E-05  0.483E-03    8.26       4.1  T
   5    -50.7402920 -0.487167E-07  0.180E-03    8.26      10.9  T
   6    -50.7402920 -0.386791E-08  0.927E-04    8.26      21.1  T
   7    -50.7402920 -0.115577E-08  0.307E-04    8.26      64.0  T
speedup  0.98
cpu  time for SCC    0.01 s
wall time for SCC    0.01 s
speedup  0.97
cpu  time for grad    0.01 s
wall time for grad    0.01 s
 E :    -50.44833705  G :  0.014306    pred/act E change:  0.000D+00 -0.777D-04
Maxdispl :   0.1467   ||displ|| :   0.2189   Lambda : -0.730D-03
Largest |displ|/coords:  0.1467 (   5)  0.0686 (   3)  0.0672 (   4)
................................................................................
.............................. CYCLE   27 ......................................
................................................................................
   1    -50.7391045 -0.507391E+02  0.201E-01    8.29       0.0  T
   2    -50.7391109 -0.641946E-05  0.152E-01    8.28       1.0  T
   3    -50.7391165 -0.552776E-05  0.143E-02    8.27       1.4  T
   4    -50.7391173 -0.885548E-06  0.517E-03    8.28       3.8  T
   5    -50.7391174 -0.343091E-07  0.202E-03    8.28       9.7  T
   6    -50.7391174 -0.377518E-08  0.898E-04    8.28      21.8  T
speedup  0.93
cpu  time for SCC    0.00 s
wall time for SCC    0.01 s
speedup  0.98
cpu  time for grad    0.01 s
wall time for grad    0.01 s
 E :    -50.44877925  G :  0.004199    pred/act E change:  0.000D+00 -0.442D-03
Maxdispl :   0.1307   ||displ|| :   0.2246   Lambda : -0.334D-03
Largest |displ|/coords:  0.1307 (   3)  0.1281 (   5)  0.0498 (  21)
................................................................................
.............................. CYCLE   28 ......................................
................................................................................
   1    -50.7375326 -0.507375E+02  0.197E-01    8.26       0.0  T
   2    -50.7375392 -0.657410E-05  0.149E-01    8.25       1.0  T
   3    -50.7375461 -0.687567E-05  0.133E-02    8.24       1.5  T
   4    -50.7375467 -0.636929E-06  0.411E-03    8.25       4.8  T
   5    -50.7375467 -0.155349E-07  0.203E-03    8.25       9.7  T
   6    -50.7375467 -0.621513E-08  0.714E-04    8.25      27.5  T
speedup  1.13
cpu  time for SCC    0.01 s
wall time for SCC    0.01 s
speedup  1.07
cpu  time for grad    0.01 s
wall time for grad    0.01 s
 E :    -50.44890124  G :  0.014135    pred/act E change: -0.382D-03 -0.122D-03
Maxdispl :   0.0577   ||displ|| :   0.1028   Lambda : -0.225D-03
Largest |displ|/coords:  0.0577 (   1)  0.0516 (   3)  0.0337 (   7)
................................................................................
.............................. CYCLE   29 ......................................
................................................................................
   1    -50.7391736 -0.507392E+02  0.469E-02    8.26       0.0  T
   2    -50.7391745 -0.901736E-06  0.351E-02    8.26       1.0  T
   3    -50.7391753 -0.732097E-06  0.567E-03    8.26       3.5  T
   4    -50.7391754 -0.110308E-06  0.176E-03    8.26      11.1  T
   5    -50.7391754 -0.540888E-08  0.725E-04    8.26      27.1  T
speedup  0.89
cpu  time for SCC    0.00 s
wall time for SCC    0.00 s
speedup  0.98
cpu  time for grad    0.01 s
wall time for grad    0.01 s
 E :    -50.44905747  G :  0.007811    pred/act E change: -0.175D-03 -0.156D-03
Maxdispl :   0.1663   ||displ|| :   0.2759   Lambda : -0.317D-03
Largest |displ|/coords:  0.1663 (   5)  0.1543 (   3)  0.0778 (   1)
................................................................................
.............................. CYCLE   30 ......................................
................................................................................
   1    -50.7401493 -0.507401E+02  0.131E-01    8.26       0.0  T
   2    -50.7401514 -0.211001E-05  0.976E-02    8.27       1.0  T
   3    -50.7401530 -0.164522E-05  0.943E-03    8.27       2.1  T
   4    -50.7401533 -0.260269E-06  0.252E-03    8.27       7.8  T
   5    -50.7401533 -0.730093E-08  0.114E-03    8.27      17.2  T
speedup  1.14
cpu  time for SCC    0.00 s
wall time for SCC    0.00 s
speedup  1.07
cpu  time for grad    0.01 s
wall time for grad    0.01 s
 E :    -50.44925879  G :  0.004616    pred/act E change: -0.114D-03 -0.201D-03
Maxdispl :   0.3271   ||displ|| :   0.5033   Lambda : -0.415D-03
Largest |displ|/coords:  0.3271 (   3)  0.2572 (   5)  0.1875 (   1)
................................................................................
.............................. CYCLE   31 ......................................
................................................................................
   1    -50.7369505 -0.507370E+02  0.271E-01    8.26       0.0  T
   2    -50.7369578 -0.734051E-05  0.204E-01    8.26       1.0  T
   3    -50.7369658 -0.797665E-05  0.160E-02    8.25       1.2  T
   4    -50.7369664 -0.636940E-06  0.642E-03    8.26       3.1  T
   5    -50.7369665 -0.347180E-07  0.250E-03    8.26       7.8  T
   6    -50.7369665 -0.790013E-08  0.120E-03    8.26      16.3  T
speedup  0.94
cpu  time for SCC    0.00 s
wall time for SCC    0.01 s
speedup  0.99
cpu  time for grad    0.01 s
wall time for grad    0.01 s
 E :    -50.44946732  G :  0.013099    pred/act E change: -0.171D-03 -0.209D-03
Maxdispl :   0.1629   ||displ|| :   0.3027   Lambda : -0.466D-03
Largest |displ|/coords:  0.1629 (   3)  0.1408 (   5)  0.0969 (  14)
................................................................................
.............................. CYCLE   32 ......................................
................................................................................
   1    -50.7376445 -0.507376E+02  0.144E-01    8.22       0.0  T
   2    -50.7376517 -0.718353E-05  0.108E-01    8.22       1.0  T
   3    -50.7376570 -0.526827E-05  0.162E-02    8.23       1.2  T
   4    -50.7376579 -0.940963E-06  0.436E-03    8.23       4.5  T
   5    -50.7376579 -0.220640E-07  0.169E-03    8.23      11.6  T
   6    -50.7376579 -0.250336E-08  0.877E-04    8.23      22.4  T
speedup  1.13
cpu  time for SCC    0.01 s
wall time for SCC    0.01 s
speedup  1.07
cpu  time for grad    0.01 s
wall time for grad    0.01 s
 E :    -50.44964747  G :  0.012373    pred/act E change: -0.260D-03 -0.180D-03
Maxdispl :   0.2034   ||displ|| :   0.3078   Lambda : -0.561D-03
Largest |displ|/coords:  0.2034 (   5)  0.1247 (   3)  0.0769 (   6)
................................................................................
.............................. CYCLE   33 ......................................
................................................................................
   1    -50.7400011 -0.507400E+02  0.166E-01    8.22       0.0  T
   2    -50.7400093 -0.821650E-05  0.125E-01    8.22       1.0  T
   3    -50.7400162 -0.686275E-05  0.165E-02    8.23       1.2  T
   4    -50.7400172 -0.104677E-05  0.500E-03    8.23       3.9  T
   5    -50.7400173 -0.322291E-07  0.220E-03    8.23       8.9  T
   6    -50.7400173 -0.537427E-08  0.107E-03    8.23      18.4  T
speedup  0.94
cpu  time for SCC    0.00 s
wall time for SCC    0.01 s
speedup  0.99
cpu  time for grad    0.01 s
wall time for grad    0.01 s
 E :    -50.44989596  G :  0.012126    pred/act E change: -0.254D-03 -0.248D-03
Maxdispl :   0.2933   ||displ|| :   0.4978   Lambda : -0.492D-03
Largest |displ|/coords:  0.2933 (   5)  0.2838 (   3)  0.1453 (   1)
................................................................................
.............................. CYCLE   34 ......................................
................................................................................
   1    -50.7342821 -0.507343E+02  0.247E-01    8.20       0.0  T
   2    -50.7342895 -0.740369E-05  0.186E-01    8.21       1.0  T
   3    -50.7342964 -0.688804E-05  0.160E-02    8.22       1.2  T
   4    -50.7342973 -0.862751E-06  0.593E-03    8.22       3.3  T
   5    -50.7342973 -0.391303E-07  0.245E-03    8.22       8.0  T
   6    -50.7342973 -0.723487E-08  0.117E-03    8.22      16.7  T
speedup  0.93
cpu  time for SCC    0.01 s
wall time for SCC    0.01 s
speedup  0.98
cpu  time for grad    0.01 s
wall time for grad    0.01 s
 E :    -50.45007145  G :  0.020429    pred/act E change: -0.307D-03 -0.175D-03
Maxdispl :   0.0659   ||displ|| :   0.1562   Lambda : -0.574D-03
Largest |displ|/coords:  0.0659 (  12)  0.0645 (   4)  0.0554 (   3)
................................................................................
.............................. CYCLE   35 ......................................
................................................................................
   1    -50.7376031 -0.507376E+02  0.110E-01    8.25       0.0  T
   2    -50.7376100 -0.688895E-05  0.827E-02    8.26       1.0  T
   3    -50.7376155 -0.549433E-05  0.156E-02    8.27       1.3  T
   4    -50.7376162 -0.790220E-06  0.381E-03    8.26       5.1  T
   5    -50.7376163 -0.199075E-07  0.175E-03    8.26      11.2  T
speedup  1.11
cpu  time for SCC    0.00 s
wall time for SCC    0.00 s
speedup  0.97
cpu  time for grad    0.01 s
wall time for grad    0.01 s
 E :    -50.45030406  G :  0.013486    pred/act E change: -0.307D-03 -0.233D-03
Maxdispl :   0.2040   ||displ|| :   0.3476   Lambda : -0.608D-03
Largest |displ|/coords:  0.2040 (   3)  0.1219 (   5)  0.0965 (   6)
................................................................................
.............................. CYCLE   36 ......................................
................................................................................
   1    -50.7403606 -0.507404E+02  0.140E-01    8.24       0.0  T
   2    -50.7403658 -0.516440E-05  0.105E-01    8.25       1.0  T
   3    -50.7403693 -0.356880E-05  0.151E-02    8.25       1.3  T
   4    -50.7403701 -0.713898E-06  0.505E-03    8.25       3.9  T
   5    -50.7403701 -0.342049E-07  0.139E-03    8.25      14.1  T
   6    -50.7403701 -0.146746E-08  0.774E-04    8.25      25.4  T
speedup  0.94
cpu  time for SCC    0.01 s
wall time for SCC    0.01 s
speedup  0.98
cpu  time for grad    0.01 s
wall time for grad    0.01 s
 E :    -50.45056258  G :  0.008723    pred/act E change: -0.294D-03 -0.259D-03
Maxdispl :   0.3464   ||displ|| :   0.5364   Lambda : -0.533D-03
Largest |displ|/coords:  0.3464 (   5)  0.2715 (   3)  0.1193 (  18)
................................................................................
.............................. CYCLE   37 ......................................
................................................................................
   1    -50.7353929 -0.507354E+02  0.233E-01    8.20       0.0  T
   2    -50.7354002 -0.730134E-05  0.175E-01    8.20       1.0  T
   3    -50.7354075 -0.730329E-05  0.164E-02    8.21       1.2  T
   4    -50.7354083 -0.803732E-06  0.677E-03    8.21       2.9  T
   5    -50.7354084 -0.569069E-07  0.236E-03    8.21       8.3  T
   6    -50.7354084 -0.724205E-08  0.125E-03    8.21      15.7  T
speedup  1.15
cpu  time for SCC    0.01 s
wall time for SCC    0.01 s
speedup  1.07
cpu  time for grad    0.01 s
wall time for grad    0.01 s
 E :    -50.45084429  G :  0.015641    pred/act E change: -0.341D-03 -0.282D-03
Maxdispl :   0.2380   ||displ|| :   0.3800   Lambda : -0.620D-03
Largest |displ|/coords:  0.2380 (   5)  0.1332 (   3)  0.1320 (   6)
................................................................................
.............................. CYCLE   38 ......................................
................................................................................
   1    -50.7345424 -0.507345E+02  0.194E-01    8.18       0.0  T
   2    -50.7345469 -0.450910E-05  0.146E-01    8.18       1.0  T
   3    -50.7345517 -0.479423E-05  0.124E-02    8.19       1.6  T
   4    -50.7345520 -0.347106E-06  0.412E-03    8.19       4.8  T
   5    -50.7345520 -0.216445E-07  0.174E-03    8.19      11.3  T
   6    -50.7345520 -0.545781E-08  0.996E-04    8.19      19.7  T
speedup  0.94
cpu  time for SCC    0.00 s
wall time for SCC    0.01 s
speedup  0.98
cpu  time for grad    0.01 s
wall time for grad    0.01 s
 E :    -50.45101469  G :  0.020684    pred/act E change: -0.343D-03 -0.170D-03
Maxdispl :   0.0941   ||displ|| :   0.1750   Lambda : -0.673D-03
Largest |displ|/coords:  0.0941 (   3)  0.0692 (   5)  0.0454 (  20)
................................................................................
.............................. CYCLE   39 ......................................
................................................................................
   1    -50.7408202 -0.507408E+02  0.105E-01    8.24       0.0  T
   2    -50.7408268 -0.657674E-05  0.784E-02    8.24       1.0  T
   3    -50.7408313 -0.446816E-05  0.149E-02    8.24       1.3  T
   4    -50.7408320 -0.791920E-06  0.357E-03    8.24       5.5  T
   5    -50.7408321 -0.139095E-07  0.171E-03    8.24      11.5  T
speedup  0.89
cpu  time for SCC    0.00 s
wall time for SCC    0.00 s
speedup  0.97
cpu  time for grad    0.01 s
wall time for grad    0.01 s
 E :    -50.45122700  G :  0.016602    pred/act E change: -0.355D-03 -0.212D-03
Maxdispl :   0.1409   ||displ|| :   0.2807   Lambda : -0.866D-03
Largest |displ|/coords:  0.1409 (   8)  0.1262 (   5)  0.0820 (  23)
................................................................................
.............................. CYCLE   40 ......................................
................................................................................
   1    -50.7448815 -0.507449E+02  0.172E-01    8.27       0.0  T
   2    -50.7448958 -0.143556E-04  0.129E-01    8.27       1.0  T
   3    -50.7449079 -0.120355E-04  0.237E-02    8.29       1.0  T
   4    -50.7449094 -0.155400E-05  0.790E-03    8.29       2.5  T
   5    -50.7449095 -0.121124E-06  0.277E-03    8.29       7.1  T
   6    -50.7449095 -0.693741E-08  0.144E-03    8.29      13.6  T
speedup  1.13
cpu  time for SCC    0.01 s
wall time for SCC    0.01 s
speedup  1.04
cpu  time for grad    0.01 s
wall time for grad    0.01 s
 E :    -50.45124759  G :  0.024134    pred/act E change: -0.347D-03 -0.206D-04
Maxdispl :   0.2249   ||displ|| :   0.3721   Lambda : -0.960D-03
Largest |displ|/coords:  0.2249 (   5)  0.1987 (   3)  0.0954 (   6)
................................................................................
.............................. CYCLE   41 ......................................
................................................................................
   1    -50.7364437 -0.507364E+02  0.190E-01    8.21       0.0  T
   2    -50.7364542 -0.104497E-04  0.143E-01    8.21       1.0  T
   3    -50.7364623 -0.811690E-05  0.189E-02    8.22       1.0  T
   4    -50.7364637 -0.136902E-05  0.666E-03    8.21       2.9  T
   5    -50.7364637 -0.634807E-07  0.239E-03    8.21       8.2  T
   6    -50.7364637 -0.611995E-08  0.131E-03    8.21      14.9  T
speedup  1.15
cpu  time for SCC    0.01 s
wall time for SCC    0.01 s
speedup  0.99
cpu  time for grad    0.01 s
wall time for grad    0.01 s
 E :    -50.45168423  G :  0.012522    pred/act E change: -0.467D-03 -0.437D-03
Maxdispl :   0.0803   ||displ|| :   0.1448   Lambda : -0.394D-03
Largest |displ|/coords:  0.0803 (   5)  0.0599 (   1)  0.0445 (   9)
................................................................................
.............................. CYCLE   42 ......................................
................................................................................
   1    -50.7409226 -0.507409E+02  0.102E-01    8.25       0.0  T
   2    -50.7409258 -0.323321E-05  0.765E-02    8.25       1.0  T
   3    -50.7409282 -0.237874E-05  0.105E-02    8.24       1.9  T
   4    -50.7409286 -0.419165E-06  0.371E-03    8.25       5.3  T
   5    -50.7409286 -0.190468E-07  0.123E-03    8.25      16.0  T
   6    -50.7409286 -0.179939E-08  0.691E-04    8.25      28.4  T
speedup  0.93
cpu  time for SCC    0.00 s
wall time for SCC    0.01 s
speedup  0.83
cpu  time for grad    0.01 s
wall time for grad    0.02 s
 E :    -50.45183608  G :  0.011248    pred/act E change: -0.546D-03 -0.152D-03
Maxdispl :   0.2872   ||displ|| :   0.4494   Lambda : -0.336D-03
Largest |displ|/coords:  0.2872 (   5)  0.1889 (   3)  0.1048 (   8)
................................................................................
.............................. CYCLE   43 ......................................
................................................................................
   1    -50.7396655 -0.507397E+02  0.183E-01    8.21       0.0  T
   2    -50.7396693 -0.380589E-05  0.138E-01    8.22       1.0  T
   3    -50.7396730 -0.369670E-05  0.119E-02    8.23       1.6  T
   4    -50.7396734 -0.406497E-06  0.456E-03    8.23       4.3  T
   5    -50.7396734 -0.286053E-07  0.169E-03    8.23      11.6  T
   6    -50.7396735 -0.487243E-08  0.910E-04    8.23      21.6  T
speedup  1.13
cpu  time for SCC    0.01 s
wall time for SCC    0.01 s
speedup  1.05
cpu  time for grad    0.01 s
wall time for grad    0.01 s
 E :    -50.45205392  G :  0.009551    pred/act E change: -0.201D-03 -0.218D-03
Maxdispl :   0.1408   ||displ|| :   0.2263   Lambda : -0.355D-03
Largest |displ|/coords:  0.1408 (   5)  0.0755 (  13)  0.0578 (  23)
................................................................................
.............................. CYCLE   44 ......................................
................................................................................
   1    -50.7424302 -0.507424E+02  0.114E-01    8.29       0.0  T
   2    -50.7424343 -0.409869E-05  0.848E-02    8.29       1.0  T
   3    -50.7424371 -0.285496E-05  0.130E-02    8.31       1.5  T
   4    -50.7424377 -0.534150E-06  0.465E-03    8.31       4.2  T
   5    -50.7424377 -0.323861E-07  0.142E-03    8.30      13.8  T
   6    -50.7424377 -0.240853E-08  0.727E-04    8.31      27.0  T
speedup  0.94
cpu  time for SCC    0.00 s
wall time for SCC    0.01 s
speedup  0.98
cpu  time for grad    0.01 s
wall time for grad    0.01 s
 E :    -50.45216723  G :  0.010774    pred/act E change: -0.202D-03 -0.113D-03
Maxdispl :   0.1942   ||displ|| :   0.2527   Lambda : -0.289D-03
Largest |displ|/coords:  0.1942 (   5)  0.0523 (   3)  0.0509 (  18)
................................................................................
.............................. CYCLE   45 ......................................
................................................................................
   1    -50.7404638 -0.507405E+02  0.138E-01    8.31       0.0  T
   2    -50.7404657 -0.191461E-05  0.103E-01    8.31       1.0  T
   3    -50.7404676 -0.191204E-05  0.778E-03    8.31       2.5  T
   4    -50.7404679 -0.215764E-06  0.281E-03    8.31       7.0  T
   5    -50.7404679 -0.114138E-07  0.123E-03    8.31      15.9  T
speedup  0.91
cpu  time for SCC    0.00 s
wall time for SCC    0.00 s
speedup  0.97
cpu  time for grad    0.01 s
wall time for grad    0.01 s
 E :    -50.45234069  G :  0.009260    pred/act E change: -0.186D-03 -0.173D-03
Maxdispl :   0.0823   ||displ|| :   0.1657   Lambda : -0.234D-03
Largest |displ|/coords:  0.0823 (   5)  0.0682 (  11)  0.0679 (   2)
................................................................................
.............................. CYCLE   46 ......................................
................................................................................
   1    -50.7403759 -0.507404E+02  0.991E-02    8.30       0.0  T
   2    -50.7403776 -0.164098E-05  0.743E-02    8.30       1.0  T
   3    -50.7403791 -0.149129E-05  0.866E-03    8.30       2.3  T
   4    -50.7403792 -0.166203E-06  0.255E-03    8.30       7.7  T
   5    -50.7403793 -0.115141E-07  0.905E-04    8.30      21.7  T
speedup  0.91
cpu  time for SCC    0.00 s
wall time for SCC    0.00 s
speedup  0.97
cpu  time for grad    0.01 s
wall time for grad    0.01 s
 E :    -50.45247128  G :  0.009344    pred/act E change: -0.153D-03 -0.131D-03
Maxdispl :   0.1264   ||displ|| :   0.1961   Lambda : -0.207D-03
Largest |displ|/coords:  0.1264 (   5)  0.0779 (   2)  0.0582 (  11)
................................................................................
.............................. CYCLE   47 ......................................
................................................................................
   1    -50.7415409 -0.507415E+02  0.118E-01    8.32       0.0  T
   2    -50.7415428 -0.189440E-05  0.883E-02    8.32       1.0  T
   3    -50.7415451 -0.230595E-05  0.907E-03    8.32       2.2  T
   4    -50.7415453 -0.143518E-06  0.296E-03    8.32       6.6  T
   5    -50.7415453 -0.118619E-07  0.122E-03    8.32      16.1  T
speedup  1.09
cpu  time for SCC    0.01 s
wall time for SCC    0.00 s
speedup  1.03
cpu  time for grad    0.01 s
wall time for grad    0.01 s
 E :    -50.45261311  G :  0.011071    pred/act E change: -0.120D-03 -0.142D-03
Maxdispl :   0.1953   ||displ|| :   0.3279   Lambda : -0.339D-03
Largest |displ|/coords:  0.1953 (   5)  0.1187 (  11)  0.1034 (   2)
................................................................................
.............................. CYCLE   48 ......................................
................................................................................
   1    -50.7405646 -0.507406E+02  0.188E-01    8.28       0.0  T
   2    -50.7405692 -0.453686E-05  0.142E-01    8.28       1.0  T
   3    -50.7405744 -0.529198E-05  0.123E-02    8.28       1.6  T
   4    -50.7405748 -0.346990E-06  0.426E-03    8.28       4.6  T
   5    -50.7405748 -0.256280E-07  0.181E-03    8.28      10.8  T
   6    -50.7405748 -0.436003E-08  0.893E-04    8.28      22.0  T
speedup  0.94
cpu  time for SCC    0.00 s
wall time for SCC    0.01 s
speedup  0.98
cpu  time for grad    0.01 s
wall time for grad    0.01 s
 E :    -50.45280869  G :  0.009451    pred/act E change: -0.107D-03 -0.196D-03
Maxdispl :   0.1562   ||displ|| :   0.2677   Lambda : -0.265D-03
Largest |displ|/coords:  0.1562 (   5)  0.1002 (  11)  0.0674 (   1)
................................................................................
.............................. CYCLE   49 ......................................
................................................................................
   1    -50.7427304 -0.507427E+02  0.149E-01    8.27       0.0  T
   2    -50.7427351 -0.464342E-05  0.112E-01    8.26       1.0  T
   3    -50.7427395 -0.438595E-05  0.132E-02    8.26       1.5  T
   4    -50.7427400 -0.554871E-06  0.487E-03    8.26       4.0  T
   5    -50.7427401 -0.382511E-07  0.163E-03    8.26      12.0  T
   6    -50.7427401 -0.286344E-08  0.866E-04    8.26      22.6  T
speedup  1.11
cpu  time for SCC    0.01 s
wall time for SCC    0.01 s
speedup  1.04
cpu  time for grad    0.01 s
wall time for grad    0.01 s
 E :    -50.45291725  G :  0.011767    pred/act E change: -0.188D-03 -0.109D-03
Maxdispl :   0.1786   ||displ|| :   0.2699   Lambda : -0.324D-03
Largest |displ|/coords:  0.1786 (   5)  0.0846 (   9)  0.0797 (   1)
................................................................................
.............................. CYCLE   50 ......................................
................................................................................
   1    -50.7423610 -0.507424E+02  0.165E-01    8.27       0.0  T
   2    -50.7423673 -0.631616E-05  0.124E-01    8.26       1.0  T
   3    -50.7423722 -0.484870E-05  0.153E-02    8.25       1.3  T
   4    -50.7423731 -0.889682E-06  0.538E-03    8.25       3.6  T
   5    -50.7423731 -0.552145E-07  0.197E-03    8.25      10.0  T
   6    -50.7423731 -0.460566E-08  0.110E-03    8.25      17.8  T
speedup  0.94
cpu  time for SCC    0.00 s
wall time for SCC    0.01 s
speedup  0.98
cpu  time for grad    0.01 s
wall time for grad    0.01 s
 E :    -50.45304147  G :  0.010850    pred/act E change: -0.142D-03 -0.124D-03
Maxdispl :   0.0657   ||displ|| :   0.1503   Lambda : -0.326D-03
Largest |displ|/coords:  0.0657 (  11)  0.0552 (   2)  0.0530 (   6)
................................................................................
.............................. CYCLE   51 ......................................
................................................................................
   1    -50.7458755 -0.507459E+02  0.942E-02    8.31       0.0  T
   2    -50.7458801 -0.463407E-05  0.701E-02    8.31       1.0  T
   3    -50.7458827 -0.260628E-05  0.150E-02    8.29       1.3  T
   4    -50.7458833 -0.588953E-06  0.503E-03    8.30       3.9  T
   5    -50.7458834 -0.479041E-07  0.136E-03    8.30      14.5  T
   6    -50.7458834 -0.256994E-08  0.829E-04    8.30      23.7  T
speedup  0.93
cpu  time for SCC    0.00 s
wall time for SCC    0.01 s
speedup  0.98
cpu  time for grad    0.01 s
wall time for grad    0.01 s
 E :    -50.45316607  G :  0.009842    pred/act E change: -0.174D-03 -0.125D-03
Maxdispl :   0.2484   ||displ|| :   0.3597   Lambda : -0.395D-03
Largest |displ|/coords:  0.2484 (   5)  0.0954 (  11)  0.0807 (  13)
................................................................................
.............................. CYCLE   52 ......................................
................................................................................
   1    -50.7377901 -0.507378E+02  0.199E-01    8.15       0.0  T
   2    -50.7378003 -0.101226E-04  0.151E-01    8.15       1.0  T
   3    -50.7378101 -0.986569E-05  0.188E-02    8.15       1.0  T
   4    -50.7378113 -0.115996E-05  0.777E-03    8.15       2.5  T
   5    -50.7378114 -0.105064E-06  0.271E-03    8.15       7.2  T
   6    -50.7378114 -0.112761E-07  0.157E-03    8.15      12.5  T
speedup  0.94
cpu  time for SCC    0.00 s
wall time for SCC    0.01 s
speedup  0.98
cpu  time for grad    0.01 s
wall time for grad    0.01 s
 E :    -50.45314538  G :  0.017342    pred/act E change: -0.166D-03  0.207D-04
Maxdispl :   0.1375   ||displ|| :   0.2316   Lambda : -0.652D-03
Largest |displ|/coords:  0.1375 (   5)  0.0853 (   3)  0.0733 (  10)

generating ANC from model Hessian ...
 Shifting diagonal of input Hessian by   5.025225496184891E-003
 Lowest  eigenvalues of input Hessian
    0.005000   -0.000000   -0.000000    0.000000    0.000000    0.000000
    0.000000    0.005046    0.005282    0.005454    0.005875    0.006313
    0.006415    0.006655    0.006847    0.007045    0.007900    0.009414
 Highest eigenvalues
    1.383723    1.400207    1.442115    2.738338    3.222513    3.779377
 
cpu  time for ANC gen    0.02 s
wall time for ANC gen    0.02 s
................................................................................
.............................. CYCLE   53 ......................................
................................................................................
   1    -50.7461412 -0.507461E+02  0.124E-01    8.23       0.0  T
   2    -50.7461468 -0.569188E-05  0.923E-02    8.22       1.0  T
   3    -50.7461509 -0.405035E-05  0.148E-02    8.21       1.3  T
   4    -50.7461516 -0.694669E-06  0.552E-03    8.22       3.6  T
   5    -50.7461516 -0.416960E-07  0.183E-03    8.22      10.7  T
   6    -50.7461516 -0.379973E-08  0.951E-04    8.22      20.6  T
   7    -50.7461516 -0.236808E-08  0.283E-04    8.22      69.2  T
speedup  0.97
cpu  time for SCC    0.01 s
wall time for SCC    0.01 s
speedup  1.02
cpu  time for grad    0.01 s
wall time for grad    0.01 s
 E :    -50.45305168  G :  0.022767    pred/act E change:  0.000D+00  0.937D-04
Maxdispl :   0.0875   ||displ|| :   0.1551   Lambda : -0.795D-03
Largest |displ|/coords:  0.0875 (  10)  0.0541 (   9)  0.0502 (   3)
................................................................................
.............................. CYCLE   54 ......................................
................................................................................
   1    -50.7435606 -0.507436E+02  0.150E-01    8.23       0.0  T
   2    -50.7435655 -0.485250E-05  0.113E-01    8.23       1.0  T
   3    -50.7435700 -0.457736E-05  0.114E-02    8.24       1.7  T
   4    -50.7435706 -0.525832E-06  0.354E-03    8.24       5.5  T
   5    -50.7435706 -0.151003E-07  0.159E-03    8.24      12.3  T
speedup  1.14
cpu  time for SCC    0.00 s
wall time for SCC    0.00 s
speedup  1.05
cpu  time for grad    0.01 s
wall time for grad    0.01 s
 E :    -50.45357265  G :  0.007766    pred/act E change:  0.000D+00 -0.521D-03
Maxdispl :   0.1010   ||displ|| :   0.1647   Lambda : -0.245D-03
Largest |displ|/coords:  0.1010 (  10)  0.0591 (   9)  0.0492 (   7)
................................................................................
.............................. CYCLE   55 ......................................
................................................................................
   1    -50.7422052 -0.507422E+02  0.118E-01    8.24       0.0  T
   2    -50.7422073 -0.208461E-05  0.895E-02    8.25       1.0  T
   3    -50.7422096 -0.232307E-05  0.751E-03    8.25       2.6  T
   4    -50.7422098 -0.171982E-06  0.316E-03    8.25       6.2  T
   5    -50.7422098 -0.102604E-07  0.114E-03    8.25      17.1  T
   6    -50.7422098 -0.173286E-08  0.574E-04    8.25      34.2  T
speedup  0.94
cpu  time for SCC    0.01 s
wall time for SCC    0.01 s
speedup  0.98
cpu  time for grad    0.01 s
wall time for grad    0.01 s
 E :    -50.45369120  G :  0.009516    pred/act E change: -0.407D-03 -0.119D-03
Maxdispl :   0.0423   ||displ|| :   0.0959   Lambda : -0.130D-03
Largest |displ|/coords:  0.0423 (  10)  0.0364 (   3)  0.0333 (  12)
................................................................................
.............................. CYCLE   56 ......................................
................................................................................
   1    -50.7431407 -0.507431E+02  0.446E-02    8.27       0.0  T
   2    -50.7431418 -0.107306E-05  0.331E-02    8.27       1.0  T
   3    -50.7431424 -0.647705E-06  0.585E-03    8.27       3.4  T
   4    -50.7431426 -0.137890E-06  0.135E-03    8.27      14.5  T
   5    -50.7431426 -0.292210E-08  0.596E-04    8.27      32.9  T
speedup  0.91
cpu  time for SCC    0.00 s
wall time for SCC    0.00 s
speedup  0.98
cpu  time for grad    0.01 s
wall time for grad    0.01 s
 E :    -50.45377413  G :  0.005576    pred/act E change: -0.126D-03 -0.829D-04
Maxdispl :   0.0749   ||displ|| :   0.1496   Lambda : -0.106D-03
Largest |displ|/coords:  0.0749 (  10)  0.0737 (   3)  0.0427 (   9)
................................................................................
.............................. CYCLE   57 ......................................
................................................................................
   1    -50.7437523 -0.507438E+02  0.746E-02    8.28       0.0  T
   2    -50.7437533 -0.105167E-05  0.562E-02    8.28       1.0  T
   3    -50.7437543 -0.969796E-06  0.676E-03    8.28       2.9  T
   4    -50.7437544 -0.129184E-06  0.262E-03    8.28       7.5  T
   5    -50.7437544 -0.963783E-08  0.804E-04    8.28      24.4  T
speedup  0.91
cpu  time for SCC    0.00 s
wall time for SCC    0.00 s
speedup  0.97
cpu  time for grad    0.01 s
wall time for grad    0.01 s
 E :    -50.45385513  G :  0.003988    pred/act E change: -0.654D-04 -0.810D-04
Maxdispl :   0.1226   ||displ|| :   0.2447   Lambda : -0.139D-03
Largest |displ|/coords:  0.1226 (   3)  0.1060 (  10)  0.0832 (   7)
................................................................................
.............................. CYCLE   58 ......................................
................................................................................
   1    -50.7442023 -0.507442E+02  0.126E-01    8.28       0.0  T
   2    -50.7442054 -0.309606E-05  0.946E-02    8.27       1.0  T
   3    -50.7442084 -0.306831E-05  0.118E-02    8.27       1.7  T
   4    -50.7442088 -0.364716E-06  0.471E-03    8.27       4.2  T
   5    -50.7442088 -0.291430E-07  0.137E-03    8.27      14.3  T
   6    -50.7442088 -0.294985E-08  0.781E-04    8.27      25.1  T
   7    -50.7442088 -0.157070E-08  0.225E-04    8.27      87.0  T
speedup  0.98
cpu  time for SCC    0.01 s
wall time for SCC    0.01 s
speedup  1.03
cpu  time for grad    0.01 s
wall time for grad    0.01 s
 E :    -50.45394802  G :  0.003579    pred/act E change: -0.541D-04 -0.929D-04
Maxdispl :   0.0951   ||displ|| :   0.2165   Lambda : -0.983D-04
Largest |displ|/coords:  0.0951 (  10)  0.0858 (   3)  0.0762 (   8)
................................................................................
.............................. CYCLE   59 ......................................
................................................................................
   1    -50.7440197 -0.507440E+02  0.115E-01    8.25       0.0  T
   2    -50.7440234 -0.368873E-05  0.866E-02    8.25       1.0  T
   3    -50.7440266 -0.323172E-05  0.137E-02    8.25       1.4  T
   4    -50.7440271 -0.495622E-06  0.497E-03    8.25       3.9  T
   5    -50.7440272 -0.343849E-07  0.142E-03    8.25      13.8  T
   6    -50.7440272 -0.327703E-08  0.840E-04    8.25      23.3  T
   7    -50.7440272 -0.169686E-08  0.252E-04    8.25      77.7  T
speedup  1.09
cpu  time for SCC    0.01 s
wall time for SCC    0.01 s
speedup  1.01
cpu  time for grad    0.01 s
wall time for grad    0.01 s
 E :    -50.45401587  G :  0.004822    pred/act E change: -0.739D-04 -0.679D-04
Maxdispl :   0.1044   ||displ|| :   0.2804   Lambda : -0.148D-03
Largest |displ|/coords:  0.1044 (   8)  0.1012 (   3)  0.0984 (   7)
................................................................................
.............................. CYCLE   60 ......................................
................................................................................
   1    -50.7444328 -0.507444E+02  0.141E-01    8.22       0.0  T
   2    -50.7444387 -0.587918E-05  0.105E-01    8.21       1.0  T
   3    -50.7444433 -0.462255E-05  0.174E-02    8.21       1.1  T
   4    -50.7444441 -0.796149E-06  0.646E-03    8.21       3.0  T
   5    -50.7444441 -0.591137E-07  0.173E-03    8.21      11.3  T
   6    -50.7444442 -0.507358E-08  0.110E-03    8.21      17.8  T
speedup  0.94
cpu  time for SCC    0.01 s
wall time for SCC    0.01 s
speedup  0.98
cpu  time for grad    0.01 s
wall time for grad    0.01 s
 E :    -50.45409368  G :  0.006522    pred/act E change: -0.515D-04 -0.778D-04
Maxdispl :   0.1223   ||displ|| :   0.2606   Lambda : -0.112D-03
Largest |displ|/coords:  0.1223 (  10)  0.0938 (   8)  0.0877 (  14)
................................................................................
.............................. CYCLE   61 ......................................
................................................................................
   1    -50.7413480 -0.507413E+02  0.154E-01    8.19       0.0  T
   2    -50.7413568 -0.875319E-05  0.115E-01    8.18       1.0  T
   3    -50.7413640 -0.722514E-05  0.185E-02    8.18       1.1  T
   4    -50.7413652 -0.115830E-05  0.658E-03    8.18       3.0  T
   5    -50.7413652 -0.759100E-07  0.251E-03    8.18       7.8  T
   6    -50.7413652 -0.923881E-08  0.141E-03    8.18      14.0  T
speedup  1.13
cpu  time for SCC    0.01 s
wall time for SCC    0.01 s
speedup  1.05
cpu  time for grad    0.01 s
wall time for grad    0.01 s
 E :    -50.45405901  G :  0.009668    pred/act E change: -0.800D-04  0.347D-04
Maxdispl :   0.0898   ||displ|| :   0.1694   Lambda : -0.202D-03
Largest |displ|/coords:  0.0898 (  10)  0.0733 (   3)  0.0550 (   7)
................................................................................
.............................. CYCLE   62 ......................................
................................................................................
   1    -50.7448577 -0.507449E+02  0.955E-02    8.23       0.0  T
   2    -50.7448607 -0.298466E-05  0.717E-02    8.23       1.0  T
   3    -50.7448633 -0.259643E-05  0.107E-02    8.23       1.8  T
   4    -50.7448637 -0.388890E-06  0.404E-03    8.23       4.9  T
   5    -50.7448637 -0.270807E-07  0.148E-03    8.23      13.3  T
   6    -50.7448637 -0.311282E-08  0.784E-04    8.23      25.0  T
speedup  0.94
cpu  time for SCC    0.00 s
wall time for SCC    0.01 s
speedup  0.98
cpu  time for grad    0.01 s
wall time for grad    0.01 s
 E :    -50.45415138  G :  0.002865    pred/act E change: -0.597D-04 -0.924D-04
Maxdispl :   0.0429   ||displ|| :   0.0688   Lambda : -0.265D-04
Largest |displ|/coords:  0.0429 (   8)  0.0263 (   2)  0.0237 (  12)
................................................................................
.............................. CYCLE   63 ......................................
................................................................................
   1    -50.7442998 -0.507443E+02  0.381E-02    8.22       0.0  T
   2    -50.7443001 -0.312408E-06  0.283E-02    8.23       1.0  T
   3    -50.7443003 -0.204642E-06  0.348E-03    8.23       5.6  T
   4    -50.7443004 -0.478673E-07  0.110E-03    8.22      17.9  T
   5    -50.7443004 -0.166104E-08  0.412E-04    8.22      47.6  T
   6    -50.7443004 -0.288409E-09  0.243E-04    8.23      80.6  T
speedup  0.96
cpu  time for SCC    0.00 s
wall time for SCC    0.01 s
speedup  1.02
cpu  time for grad    0.01 s
wall time for grad    0.01 s
 E :    -50.45416582  G :  0.003547    pred/act E change: -0.104D-03 -0.144D-04
Maxdispl :   0.0308   ||displ|| :   0.0789   Lambda : -0.300D-04
Largest |displ|/coords:  0.0308 (   8)  0.0288 (  14)  0.0240 (   1)
................................................................................
.............................. CYCLE   64 ......................................
................................................................................
   1    -50.7448670 -0.507449E+02  0.479E-02    8.25       0.0  T
   2    -50.7448676 -0.585827E-06  0.357E-02    8.24       1.0  T
   3    -50.7448681 -0.520566E-06  0.515E-03    8.24       3.8  T
   4    -50.7448682 -0.672632E-07  0.212E-03    8.24       9.3  T
   5    -50.7448682 -0.617052E-08  0.575E-04    8.24      34.1  T
   6    -50.7448682 -0.553456E-09  0.387E-04    8.24      50.7  T
speedup  1.13
cpu  time for SCC    0.01 s
wall time for SCC    0.01 s
speedup  1.01
cpu  time for grad    0.01 s
wall time for grad    0.01 s
 E :    -50.45418803  G :  0.002513    pred/act E change: -0.133D-04 -0.222D-04
Maxdispl :   0.0442   ||displ|| :   0.1083   Lambda : -0.257D-04
Largest |displ|/coords:  0.0442 (   8)  0.0414 (  14)  0.0413 (  12)
................................................................................
.............................. CYCLE   65 ......................................
................................................................................
   1    -50.7453675 -0.507454E+02  0.637E-02    8.26       0.0  T
   2    -50.7453686 -0.102341E-05  0.476E-02    8.25       1.0  T
   3    -50.7453695 -0.938347E-06  0.668E-03    8.25       2.9  T
   4    -50.7453696 -0.115405E-06  0.269E-03    8.25       7.3  T
   5    -50.7453696 -0.103242E-07  0.773E-04    8.25      25.4  T
   6    -50.7453696 -0.101151E-08  0.518E-04    8.25      37.9  T
speedup  1.11
cpu  time for SCC    0.01 s
wall time for SCC    0.01 s
speedup  0.99
cpu  time for grad    0.01 s
wall time for grad    0.01 s
 E :    -50.45420288  G :  0.001788    pred/act E change: -0.151D-04 -0.148D-04
Maxdispl :   0.0152   ||displ|| :   0.0407   Lambda : -0.104D-04
Largest |displ|/coords:  0.0152 (   8)  0.0127 (   6)  0.0124 (   2)
................................................................................
.............................. CYCLE   66 ......................................
................................................................................
   1    -50.7459551 -0.507460E+02  0.241E-02    8.26       0.0  T
   2    -50.7459553 -0.168375E-06  0.180E-02    8.25       1.1  T
   3    -50.7459554 -0.136304E-06  0.259E-03    8.25       7.6  T
[...]
Maxdispl :   0.0476   ||displ|| :   0.0579   Lambda : -0.195D-05
Largest |displ|/coords:  0.0476 (   1)  0.0203 (   4)  0.0166 (   2)
................................................................................
.............................. CYCLE   91 ......................................
................................................................................
   1    -50.7457377 -0.507457E+02  0.246E-02    8.29       0.0  T
   2    -50.7457377 -0.740287E-07  0.182E-02    8.29       1.1  T
   3    -50.7457378 -0.824568E-07  0.130E-03    8.29      15.1  T
   4    -50.7457378 -0.261041E-08  0.546E-04    8.29      35.9  T
   5    -50.7457378 -0.269701E-09  0.172E-04    8.29     114.2  T
speedup  0.91
cpu  time for SCC    0.00 s
wall time for SCC    0.00 s
speedup  1.01
cpu  time for grad    0.01 s
wall time for grad    0.01 s
 E :    -50.45432098  G :  0.000583    pred/act E change: -0.932D-06 -0.140D-05
Maxdispl :   0.0460   ||displ|| :   0.0596   Lambda : -0.175D-05
Largest |displ|/coords:  0.0460 (   1)  0.0218 (   4)  0.0176 (   5)
................................................................................
.............................. CYCLE   92 ......................................
................................................................................
   1    -50.7456864 -0.507457E+02  0.267E-02    8.29       0.0  T
   2    -50.7456865 -0.765611E-07  0.198E-02    8.29       1.0  T
   3    -50.7456866 -0.839615E-07  0.137E-03    8.30      14.3  T
   4    -50.7456866 -0.340898E-08  0.461E-04    8.29      42.5  T
   5    -50.7456866 -0.254218E-09  0.206E-04    8.29      95.4  T
speedup  1.14
cpu  time for SCC    0.00 s
wall time for SCC    0.00 s
speedup  1.01
cpu  time for grad    0.01 s
wall time for grad    0.01 s
 E :    -50.45432213  G :  0.000695    pred/act E change: -0.979D-06 -0.114D-05
Maxdispl :   0.0290   ||displ|| :   0.0395   Lambda : -0.192D-05
Largest |displ|/coords:  0.0290 (   1)  0.0147 (   2)  0.0119 (   8)
................................................................................
.............................. CYCLE   93 ......................................
................................................................................
   1    -50.7459473 -0.507459E+02  0.163E-02    8.30       0.0  T
   2    -50.7459474 -0.481888E-07  0.120E-02    8.30       1.6  T
   3    -50.7459474 -0.471897E-07  0.157E-03    8.30      12.5  T
   4    -50.7459474 -0.334051E-08  0.467E-04    8.30      42.0  T
   5    -50.7459474 -0.311950E-09  0.155E-04    8.30     126.6  T
speedup  0.91
cpu  time for SCC    0.00 s
wall time for SCC    0.00 s
speedup  1.01
cpu  time for grad    0.01 s
wall time for grad    0.01 s
 E :    -50.45432271  G :  0.000557    pred/act E change: -0.880D-06 -0.587D-06
Maxdispl :   0.0201   ||displ|| :   0.0364   Lambda : -0.143D-05
Largest |displ|/coords:  0.0201 (   1)  0.0154 (   4)  0.0147 (   6)
................................................................................
.............................. CYCLE   94 ......................................
................................................................................
   1    -50.7457599 -0.507458E+02  0.187E-02    8.30       0.0  T
   2    -50.7457599 -0.238414E-07  0.139E-02    8.30       1.4  T
   3    -50.7457599 -0.223503E-07  0.790E-04    8.30      24.8  T
   4    -50.7457599 -0.193311E-08  0.290E-04    8.30      67.7  T
speedup  0.83
cpu  time for SCC    0.00 s
wall time for SCC    0.00 s
speedup  0.99
cpu  time for grad    0.01 s
wall time for grad    0.01 s
 E :    -50.45432366  G :  0.000460    pred/act E change: -0.960D-06 -0.952D-06
Maxdispl :   0.0096   ||displ|| :   0.0214   Lambda : -0.986D-06
Largest |displ|/coords:  0.0096 (   6)  0.0095 (   4)  0.0083 (   2)
................................................................................
.............................. CYCLE   95 ......................................
................................................................................
   1    -50.7456818 -0.507457E+02  0.109E-02    8.30       0.0  T
   2    -50.7456818 -0.715166E-08  0.809E-03    8.30       2.4  T
   3    -50.7456818 -0.558602E-08  0.518E-04    8.30      37.8  T
   4    -50.7456818 -0.832465E-09  0.242E-04    8.30      80.9  T
speedup  1.11
cpu  time for SCC    0.00 s
wall time for SCC    0.00 s
speedup  1.07
cpu  time for grad    0.01 s
wall time for grad    0.01 s
 E :    -50.45432439  G :  0.000500    pred/act E change: -0.715D-06 -0.729D-06
Maxdispl :   0.0143   ||displ|| :   0.0309   Lambda : -0.942D-06
Largest |displ|/coords:  0.0143 (   2)  0.0138 (   4)  0.0131 (   1)
................................................................................
.............................. CYCLE   96 ......................................
................................................................................
   1    -50.7456657 -0.507457E+02  0.141E-02    8.30       0.0  T
   2    -50.7456657 -0.165813E-07  0.105E-02    8.30       1.9  T
   3    -50.7456657 -0.156995E-07  0.857E-04    8.30      22.9  T
   4    -50.7456657 -0.147922E-08  0.353E-04    8.30      55.6  T
speedup  1.11
cpu  time for SCC    0.00 s
wall time for SCC    0.00 s
speedup  1.00
cpu  time for grad    0.01 s
wall time for grad    0.01 s
 E :    -50.45432505  G :  0.000411    pred/act E change: -0.493D-06 -0.655D-06
Maxdispl :   0.0183   ||displ|| :   0.0331   Lambda : -0.539D-06
Largest |displ|/coords:  0.0183 (   1)  0.0151 (   4)  0.0148 (   2)
................................................................................
.............................. CYCLE   97 ......................................
................................................................................
   1    -50.7456689 -0.507457E+02  0.146E-02    8.30       0.0  T
   2    -50.7456689 -0.194279E-07  0.108E-02    8.30       1.8  T
   3    -50.7456689 -0.215907E-07  0.902E-04    8.30      21.7  T
   4    -50.7456689 -0.110624E-08  0.350E-04    8.30      56.0  T
speedup  1.11
cpu  time for SCC    0.00 s
wall time for SCC    0.00 s
speedup  0.98
cpu  time for grad    0.01 s
wall time for grad    0.01 s
 E :    -50.45432546  G :  0.000306    pred/act E change: -0.472D-06 -0.408D-06
Maxdispl :   0.0175   ||displ|| :   0.0307   Lambda : -0.373D-06
Largest |displ|/coords:  0.0175 (   1)  0.0141 (   4)  0.0135 (   2)
................................................................................
.............................. CYCLE   98 ......................................
................................................................................
   1    -50.7456860 -0.507457E+02  0.136E-02    8.30       0.0  T
   2    -50.7456860 -0.173016E-07  0.101E-02    8.30       1.9  T
   3    -50.7456860 -0.192229E-07  0.827E-04    8.30      23.7  T
   4    -50.7456860 -0.997119E-09  0.312E-04    8.30      63.0  T
speedup  1.11
cpu  time for SCC    0.00 s
wall time for SCC    0.00 s
speedup  1.00
cpu  time for grad    0.01 s
wall time for grad    0.01 s
 E :    -50.45432573  G :  0.000184    pred/act E change: -0.270D-06 -0.272D-06
Maxdispl :   0.0122   ||displ|| :   0.0215   Lambda : -0.157D-06
Largest |displ|/coords:  0.0122 (   1)  0.0101 (   4)  0.0088 (   2)
................................................................................
.............................. CYCLE   99 ......................................
................................................................................
   1    -50.7456896 -0.507457E+02  0.101E-02    8.30       0.0  T
   2    -50.7456896 -0.883960E-08  0.750E-03    8.30       2.6  T
   3    -50.7456896 -0.101095E-07  0.536E-04    8.30      36.6  T
   4    -50.7456896 -0.474607E-09  0.216E-04    8.30      90.9  T
speedup  0.83
cpu  time for SCC    0.00 s
wall time for SCC    0.00 s
speedup  1.00
cpu  time for grad    0.01 s
wall time for grad    0.01 s
 E :    -50.45432584  G :  0.000133    pred/act E change: -0.187D-06 -0.114D-06
Maxdispl :   0.0017   ||displ|| :   0.0040   Lambda : -0.842D-07
Largest |displ|/coords:  0.0017 (   6)  0.0016 (   1)  0.0015 (  11)
................................................................................
.............................. CYCLE  100 ......................................
................................................................................
   1    -50.7457510 -0.507458E+02  0.261E-03    8.31       0.0  T
   2    -50.7457510 -0.177847E-08  0.196E-03    8.31      10.0  T
   3    -50.7457510 -0.115118E-08  0.241E-04    8.30      81.3  T
   4    -50.7457510 -0.298101E-09  0.857E-05    8.30     228.9  T
speedup  1.11
cpu  time for SCC    0.00 s
wall time for SCC    0.00 s
speedup  1.07
cpu  time for grad    0.01 s
wall time for grad    0.01 s
 E :    -50.45432588  G :  0.000108    pred/act E change: -0.785D-07 -0.407D-07
Maxdispl :   0.0099   ||displ|| :   0.0169   Lambda : -0.694D-07
Largest |displ|/coords:  0.0099 (   1)  0.0072 (   4)  0.0064 (   6)

   *** GEOMETRY OPTIMIZATION CONVERGED AFTER 100 ITERATIONS ***

------------------------------------------------------------------------
 total energy gain (kcal):     -0.0167
------------------------------------------------------------------------
================
 final structure:
================
$coord
       -2.58013829017592       -2.44655481475153        2.61598331529961      S 
       -0.38712383256361       -2.93363170369235        1.04067958033945      O 
       -2.32019649097068       -3.09075458775786        5.20337194560910      O 
       -3.26130089619678        0.36592892272971        2.40202722988166      O 
       -4.86682744883492       -3.83186286516757        1.44784408758995      O 
       -4.98615146698487       -3.27680499119437       -0.34322639309437      H 
       -2.63029628862306        1.27773170669442        0.76207011358113      H 
       -4.73208692006279       -1.83603933217571       -3.07323615415371      O 
       -5.00997007486960       -0.04474054921267       -2.92637631810522      H 
       -3.06348798984154       -2.03315877823555       -3.80316878515363      H 
        2.30803227946747        4.07725461304558        1.48929371264275      O 
        2.32811534705331        2.60079526052456        2.62051105826882      H 
        2.07007387679136        5.52305413388908        2.55384902114464      H 
        2.16911433985999       -0.11280732625845        4.35551765462333      O 
        1.04864721906832       -0.47066394750717        5.74134853240495      H 
        1.71467123346950       -1.35123398866698        3.07966822904912      H 
        0.52469560430009       -1.33937814905581       -3.62854503971781      O 
        0.41144895639369       -2.28859843243822       -2.05166521816113      H 
        2.26245865536518       -0.65624346321264       -3.62526208795882      H 
       -1.58710778322590        2.58066147652689       -1.42668979849385      O 
       -0.18027602366030        3.43925258215799       -0.58065193211617      H 
       -0.77747377227619        1.23816305875372       -2.46618792011976      H 
        4.98230867123172        0.91413795462519       -2.57319705449091      N 
        6.06682396737326       -0.32522677482320       -1.59870398587414      H 
        4.40550516414127        2.26044589946779       -1.33276118356332      H 
        6.09054198259122        1.76027409574530       -3.88249266609711      H 
$end
 
 Bond Distances (Angstroems)
 ---------------------------
S1-O2=1.4519         S1-O3=1.4177         S1-O4=1.5355         S1-O5=1.5439         O2-S1=1.4519         O3-S1=1.4177         
O4-S1=1.5355         O4-H7=1.0476         O5-S1=1.5439         O5-H6=0.9943         H6-O5=0.9943         H7-O4=1.0476         
O8-H9=0.9624         O8-H10=0.9694        H9-O8=0.9624         H10-O8=0.9694        O11-H12=0.9843       O11-H13=0.9584       
H12-O11=0.9843       H13-O11=0.9584       O14-H15=0.9619       O14-H16=0.9712       H15-O14=0.9619       H16-O14=0.9712       
O17-H18=0.9758       O17-H19=0.9881       H18-O17=0.9758       H19-O17=0.9881       O20-H21=0.9804       O20-H22=0.9954       
H21-O20=0.9804       H22-O20=0.9954       N23-H24=1.0126       N23-H25=1.0157       N23-H26=1.0122       H24-N23=1.0126       
H25-N23=1.0157       H26-N23=1.0122       
 N  H  Rav=1.0135 sigma=0.0016  Rmin=1.0122  Rmax=1.0157     3
 O  H  Rav=0.9824 sigma=0.0230  Rmin=0.9584  Rmax=1.0476    12
 S  O  Rav=1.4873 sigma=0.0539  Rmin=1.4177  Rmax=1.5439     4
 
 selected bond angles (degree)
 --------------------
O3-S1-O2=115.74                O4-S1-O2=108.50                O4-S1-O3=109.09                O5-S1-O2=108.20                
O5-S1-O3=110.40                O5-S1-O4=104.28                H7-O4-S1=115.64                H6-O5-S1=106.93                
H10-O8-H9=106.10               
 
 selected dihedral angles (degree)
 ---------------------------------
H7-O4-S1-O2= 23.18            H7-O4-S1-O3=150.08            H7-O4-S1-O5=268.03            H6-O5-S1-O2=306.06            
H6-O5-S1-O3=178.48            H6-O5-S1-O4= 61.43            
 
 CMA Distance (Angstroems)
 ---------------------------
R(CMA):  2.9501

========================================================================
 FINAL SINGLEPOINT CALCULATION ON OPTIMIZED GEOMETRY
========================================================================

 Ncao       : 65
 Nao        : 64
 Nshell     : 38
 Nel        : 80
 T(el)      :   300.0
 intcut     :    25.0
 scfconv/Eh :  0.100E-05
   qconv/e  :  0.100E-03
 intneglect :  0.100E-07
 broydamp   :      0.250
 iter      E             dE          RMSdq      gap      omega  full diag
   1    -50.7457510 -0.507458E+02  0.355E-05    8.30       0.0  T
   2    -50.7457510 -0.112976E-11  0.216E-05    8.30     906.6  T
   3    -50.7457510 -0.518696E-12  0.461E-06    8.30    4250.7  T
speedup  0.74
cpu  time for SCC    0.00 s
wall time for SCC    0.00 s

   *** convergence criteria satisfied after 3 iterations ***

          eigenvalues
 #    :          28         29         30         31         32         33         34         35
 occ. :        2.000      2.000      2.000      2.000      2.000      2.000      2.000      2.000
 eps  :       -13.860    -13.624    -13.243    -12.897    -12.830    -12.700    -12.649    -12.533
 #    :          36         37         38         39         40         41         42         43
 occ. :        2.000      2.000      2.000      2.000      2.000      0.000      0.000      0.000
 eps  :       -12.431    -12.316    -12.266    -12.087    -11.283     -2.979     -0.701     -0.638
 #    :          44         45         46         47         48         49         50         51
 occ. :        0.000      0.000      0.000      0.000      0.000      0.000      0.000      0.000
 eps  :        -0.100      0.686      1.149      1.636      2.767      3.433      4.213      5.325


   #   Z            q   n(s)   n(p)   n(d)      C6AA      α(0)
   1  16 S      1.718  1.575  1.760  0.946    88.351    15.820
   2   8 O     -0.746  1.766  4.980  0.000    29.989     7.342
   3   8 O     -0.658  1.750  4.908  0.000    27.586     7.042
   4   8 O     -0.646  1.763  4.883  0.000    26.296     6.922
   5   8 O     -0.599  1.755  4.844  0.000    25.133     6.768
   6   1 H      0.390  0.610  0.000  0.000     0.499     1.107
   7   1 H      0.396  0.604  0.000  0.000     0.489     1.097
   8   8 O     -0.602  1.747  4.855  0.000    25.224     6.778
   9   1 H      0.316  0.684  0.000  0.000     0.674     1.290
  10   1 H      0.338  0.662  0.000  0.000     0.618     1.235
  11   8 O     -0.618  1.745  4.873  0.000    25.613     6.830
  12   1 H      0.336  0.664  0.000  0.000     0.622     1.239
  13   1 H      0.287  0.713  0.000  0.000     0.762     1.372
  14   8 O     -0.609  1.731  4.878  0.000    25.409     6.803
  15   1 H      0.303  0.697  0.000  0.000     0.711     1.325
  16   1 H      0.312  0.688  0.000  0.000     0.687     1.302
  17   8 O     -0.647  1.759  4.889  0.000    26.350     6.928
  18   1 H      0.320  0.680  0.000  0.000     0.663     1.279
  19   1 H      0.320  0.680  0.000  0.000     0.663     1.280
  20   8 O     -0.636  1.772  4.864  0.000    26.039     6.888
  21   1 H      0.335  0.665  0.000  0.000     0.626     1.243
  22   1 H      0.340  0.660  0.000  0.000     0.612     1.229
  23   7 N     -0.448  1.372  4.076  0.000    31.759     8.370
  24   1 H      0.157  0.843  0.000  0.000     1.353     1.822
  25   1 H      0.188  0.812  0.000  0.000     1.168     1.693
  26   1 H      0.152  0.848  0.000  0.000     1.388     1.845

 Mol. C6AA /au·bohr⁶  :       5460.568646
 Mol. C8AA /au·bohr⁸  :     117851.619630
 Mol. α(0) /au        :        106.848327

 
 Wiberg/Mayer (AO) data. WBOs > 0.1 written file <wbo>
 largest (>0.05) Wiberg bond orders for each atom
           total WBO             WBO to atom ...
     1  S   4.838    O    3 1.491    O    2 1.298    O    4 1.021    O    5 0.988
     2  O   1.716    S    1 1.298    O    3 0.116    O    4 0.092    O    5 0.086
     3  O   1.801    S    1 1.491    O    2 0.116    O    4 0.080    O    5 0.077
     4  O   1.942    S    1 1.021    H    7 0.620    O    2 0.092    O    3 0.080    O    5 0.066    O   20 0.059
     5  O   1.990    S    1 0.988    H    6 0.733    O    2 0.086    O    3 0.077    O    4 0.066
     6  H   0.848    O    5 0.733    O    8 0.096
     7  H   0.844    O    4 0.620    O   20 0.203
     8  O   1.906    H    9 0.893    H   10 0.860    H    6 0.096
     9  H   0.900    O    8 0.893
    10  H   0.886    O    8 0.860
    11  O   1.868    H   13 0.912    H   12 0.823    H   21 0.057
    12  H   0.887    O   11 0.823    O   14 0.061
    13  H   0.918    O   11 0.912
    14  O   1.869    H   15 0.894    H   16 0.856    H   12 0.061
    15  H   0.908    O   14 0.894
    16  H   0.903    O   14 0.856
    17  O   1.887    H   18 0.848    H   19 0.813    H   22 0.091
    18  H   0.897    O   17 0.848
    19  H   0.897    O   17 0.813    N   23 0.077
    20  O   1.968    H   21 0.828    H   22 0.787    H    7 0.203    O    4 0.059
    21  H   0.888    O   20 0.828    O   11 0.057
    22  H   0.884    O   20 0.787    O   17 0.091
    23  N   3.022    H   26 0.974    H   24 0.974    H   25 0.950    H   19 0.077
    24  H   0.975    N   23 0.974
    25  H   0.965    N   23 0.950
    26  H   0.977    N   23 0.974
 MOs/occ written to file <molden.input>
 
molecular dipole:
                 x           y           z       tot (Debye)
 q only:        0.807       1.239      -1.112
   full:        1.207       1.409      -0.790       5.126
molecular quadrupole (traceless):
                xx          xy          yy          xz          yz          zz
 q only:        4.636      -2.173       0.480       2.823       7.122      -5.117
  q+dip:        6.438      -1.838       0.807       0.875       7.342      -7.245
   full:        6.140      -1.692       1.036       0.688       7.324      -7.176

SCC energy    :     -50.7457510
rep           :       0.2911021
ES            :       0.2322096
AES           :      -0.0570229
AXC           :      -0.0068028
disp          :      -0.0193055
XB            :       0.0000000
fix           :       0.0000000
total E       :     -50.4543259
atomizationE  :       4.9846300     3127.90
(atE without considering molecular charge,
 total energy contains solvation terms)
H-L gap (eV)  :          8.3048
optimized geometry written to: xtbopt.xyz


------------------------------------------------------------------------
 * finished run on 2019/09/16 at 11:12:37.118     
------------------------------------------------------------------------
 total:
 * wall-time:     0 d,  0 h,  0 min,  2.258 sec
 *  cpu-time:     0 d,  0 h,  0 min,  2.236 sec
 * ratio c/w:     0.990 speedup
 SCF:
 * wall-time:     0 d,  0 h,  0 min,  0.144 sec
 *  cpu-time:     0 d,  0 h,  0 min,  0.141 sec
 * ratio c/w:     0.982 speedup
 ANC optimizer:
 * wall-time:     0 d,  0 h,  0 min,  2.088 sec
 *  cpu-time:     0 d,  0 h,  0 min,  2.073 sec
 * ratio c/w:     0.993 speedup

