      -----------------------------------------------------------      
     |                   =====================                   |     
     |                           x T B                           |     
     |                   =====================                   |     
     |                         S. Grimme                         |     
     |          Mulliken Center for Theoretical Chemistry        |     
     |                    University of Bonn                     |     
     |                 Version 6.0.1 (SAW181210)                 |     
      -----------------------------------------------------------      

   This program is distributed in the hope that it will be useful,
   but WITHOUT ANY WARRANTY; without even the implied warranty of
   MERCHANTABILITY or FITNESS FOR A PARTICULAR PURPOSE.
   
   FOR NON-COMMERCIAL, ACADEMIA USE ONLY.
   
   Cite this work as:
   S. Grimme, C. Bannwarth, P. Shushkov, J. Comput. Theory Chem., 2017,
   13, 1989-2009.
   C. Bannwarth, S. Ehlert and S. Grimme., ChemRxiv, 2018, preprint.
   http://doi.org/10.26434/chemrxiv.7246238.v1
   
   for sTDA-xTB:
   S. Grimme and C. Bannwarth, J. Chem. Phys., 2016, 145, 054103.
   
   in the mass-spec context:
   V. Asgeirsson, C. Bauer and S. Grimme, Chem. Sci., 2017, 8, 4879.
   
   if GBSA is used:
   P. Shushkov, F. März and S. Grimme, unpublished.
   
   for ANC optimizer:
   S. Grimme, unpublished.
   Rational Function algorithm used in ANCopt:
   F. Eckert, P. Pulay, H.-J. Werner, J. Comput. Chem., 1997, 18, 1473.
   
   with help from (in alphabetical order)
   C. Bannwarth, F. Bohle, G. Brandenburg, E. Caldeweyher, M. Checinski,
   S. Dohm, S. Ehlert, S. Ehrlich, F. März, H. Neugebauer, J. Pisarek,
   P. Pracht, P. Shushkov, and S. Spicher.
   
 * started run on 2019/09/16 at 11:31:27.991     
========================================================================
 # omp threads = 1
========================================================================
number of atoms            : 26
number of electrons        : 80
charge                     : 0
spin                       : .0
first test random number   : .7868

########################################################################
# WARNING! Please study the warnings concerning your input carefully
#  - XTBPATH is not set, using XTBHOME instead
#  - the use of '-opt' is discouraged, please use '--opt' next time
#  - the use of '-chrg' is discouraged, please use '--chrg' next time
#  - the use of '-uhf' is discouraged, please use '--uhf' next time
########################################################################

           ------------------------------------------------- 
          |                 G F N 2 - x T B                 |
          | Geometry, Frequencies, Noncovalent interactions |
          |            JCTC 2018 parametrisation            |
           ------------------------------------------------- 
      method parameters     
 k(s)        :  1.8500
 k(p)        :  2.2300
 k(d)        :  2.2300
 k(f)        :  2.0000
 kEN (H0ij)  : -2.0000
 D4 a1       :  0.5200
 D4 a2       :  5.0000
 D4 s6       :  1.0000
 D4 s8       :  2.7000
 D4 s9       :  5.0000
 alphaj      :  2.0000


            Z     q(EN)     CN     RAES       Cart. coordinates
     1  S   6.0    0.58    4.30    4.23    -1.71885    -1.72151    -2.99525
     2  O   6.0   -0.32    1.16    1.80    -1.75537     0.48932    -1.35442
     3  O   6.0   -0.30    1.11    1.80    -1.08998    -1.59208    -5.64580
     4  O   6.0   -0.24    2.04    1.83     0.01769    -3.85799    -1.59336
     5  O   6.0   -0.23    2.05    1.83    -4.37450    -3.20306    -2.85305
     6  H   1.0    0.16    1.19    1.46    -4.96977    -3.21835    -1.11185
     7  H   1.0    0.16    1.18    1.46     1.32335    -2.96573    -0.65235
     8  O   6.0   -0.32    2.05    1.83     4.43154     3.25703     2.91556
     9  H   1.0    0.14    0.97    1.43     5.17316     2.81200     4.51761
    10  H   1.0    0.14    0.97    1.43     5.03275     4.93768     2.55699
    11  O   6.0   -0.29    2.02    1.83    -4.86726     0.91144     5.05495
    12  H   1.0    0.16    1.04    1.44    -3.32356     1.66042     4.44614
    13  H   1.0    0.15    0.97    1.43    -5.68085     2.21342     6.03349
    14  O   6.0   -0.29    2.03    1.83    -0.75082     2.94366     3.01400
    15  H   1.0    0.18    1.03    1.43    -1.19628     2.27319     1.38101
    16  H   1.0    0.16    1.02    1.43     1.06508     3.07388     3.00195
    17  O   6.0   -0.29    2.04    1.83     3.72488    -0.75398    -0.21231
    18  H   1.0    0.15    1.03    1.43     4.31781    -0.23448    -1.85339
    19  H   1.0    0.16    1.03    1.43     4.05059     0.66013     0.88715
    20  O   6.0   -0.29    2.04    1.83    -5.47313    -3.05500     2.02229
    21  H   1.0    0.17    1.04    1.43    -5.30744    -1.56048     3.04872
    22  H   1.0    0.15    0.97    1.43    -5.93994    -4.38285     3.17707
    23  N   5.0   -0.22    2.99    1.92     4.34423     0.33581    -5.38273
    24  H   1.0    0.10    0.99    1.43     5.69743    -0.79400    -6.15955
    25  H   1.0    0.10    0.99    1.43     4.60364     2.07675    -6.16561
    26  H   1.0    0.12    1.01    1.43     2.66561    -0.30523    -6.07725

  Z AO/shell   Hii/eV     exponent
  1     Wed Apr 25 08:07:45 CEST 2018   EN: 2.200 GM2: 0.406  GM3: 0.0800  RAES: 1.40
     1s    -10.707211    1.230000
  7     Wed Apr 25 08:07:45 CEST 2018   EN: 3.040 GM2: 0.461  GM3:-0.0640  RAES: 1.90
     2s    -16.686243    2.339881
     2p    -12.523956    2.014332
  8     Wed Apr 25 08:07:45 CEST 2018   EN: 3.440 GM2: 0.452  GM3:-0.0517  RAES: 1.80
     2s    -20.229985    2.439742
     2p    -15.503117    2.137023
 16     Tue Apr 24 11:44:34 CEST 2018   EN: 2.580 GM2: 0.340  GM3:-0.0502  RAES: 3.10
     3s    -20.029654    1.981333
     3p    -11.377694    2.025643
     3d     -0.420282    1.702555
 no old-style atom pair restraining (fixing) potential

molecular fragmentation (1/2 indicates fragments):
11111112222222222222222222
# atoms in fragment 1/2:     7    19
 fragment masses (1/2) :       98.07      107.11
CMA distance (Bohr)    :   5.303
constraining FC (au)   :  0.0500
           ------------------------------------------------- 
          |        Self-Consistent Charge Iterations        |
           ------------------------------------------------- 

 Ncao       : 65
 Nao        : 64
 Nshell     : 38
 Nel        : 80
 T(el)      :   300.0
 intcut     :    25.0
 scfconv/Eh :  0.100E-05
   qconv/e  :  0.100E-03
 intneglect :  0.100E-07
 broydamp   :      0.250
 iter      E             dE          RMSdq      gap      omega  full diag
   1    -50.6206280 -0.506206E+02  0.705E+00    7.90       0.0  T
   2    -50.6717492 -0.511212E-01  0.493E+00    7.30       1.0  T
   3    -50.7100081 -0.382589E-01  0.120E+00    6.34       1.0  T
   4    -50.7140932 -0.408509E-02  0.607E-01    6.55       1.0  T
   5    -50.7152486 -0.115548E-02  0.269E-01    6.55       1.0  T
   6    -50.7155877 -0.339087E-03  0.158E-01    6.50       1.0  T
   7    -50.7157334 -0.145693E-03  0.544E-02    6.48       1.0  T
   8    -50.7157520 -0.185583E-04  0.252E-02    6.49       1.0  T
   9    -50.7157556 -0.364875E-05  0.110E-02    6.50       1.8  T
  10    -50.7157562 -0.610261E-06  0.237E-03    6.50       8.3  T
  11    -50.7157562 -0.172983E-07  0.132E-03    6.50      14.8  T
  12    -50.7157563 -0.787087E-08  0.325E-04    6.50      60.4  T
  13    -50.7157563 -0.374349E-09  0.186E-04    6.50     105.7  T
speedup  1.02
cpu  time for SCC    0.01 s
wall time for SCC    0.01 s

   *** convergence criteria satisfied after 13 iterations ***

          eigenvalues
 #    :          28         29         30         31         32         33         34         35
 occ. :        2.000      2.000      2.000      2.000      2.000      2.000      2.000      2.000
 eps  :       -13.111    -12.906    -12.691    -12.507    -12.260    -12.187    -12.142    -11.939
 #    :          36         37         38         39         40         41         42         43
 occ. :        2.000      2.000      2.000      2.000      2.000      0.000      0.000      0.000
 eps  :       -11.741    -11.656    -11.526    -11.355    -10.856     -4.359     -1.627     -0.530
 #    :          44         45         46         47         48         49         50         51
 occ. :        0.000      0.000      0.000      0.000      0.000      0.000      0.000      0.000
 eps  :        -0.106      1.005      1.366      1.641      3.198      3.973      4.832      5.026


   #   Z            q   n(s)   n(p)   n(d)      C6AA      α(0)
   1  16 S      1.637  1.632  1.805  0.926    90.212    15.986
   2   8 O     -0.665  1.768  4.897  0.000    27.780     7.067
   3   8 O     -0.631  1.765  4.866  0.000    26.879     6.951
   4   8 O     -0.589  1.762  4.828  0.000    24.905     6.737
   5   8 O     -0.575  1.753  4.822  0.000    24.569     6.691
   6   1 H      0.389  0.611  0.000  0.000     0.504     1.114
   7   1 H      0.383  0.617  0.000  0.000     0.515     1.126
   8   8 O     -0.563  1.737  4.826  0.000    24.319     6.656
   9   1 H      0.308  0.692  0.000  0.000     0.698     1.312
  10   1 H      0.306  0.694  0.000  0.000     0.702     1.316
  11   8 O     -0.617  1.741  4.876  0.000    25.596     6.828
  12   1 H      0.335  0.665  0.000  0.000     0.624     1.240
  13   1 H      0.279  0.721  0.000  0.000     0.789     1.395
  14   8 O     -0.639  1.744  4.895  0.000    26.138     6.900
  15   1 H      0.324  0.676  0.000  0.000     0.652     1.269
  16   1 H      0.305  0.695  0.000  0.000     0.706     1.320
  17   8 O     -0.641  1.746  4.895  0.000    26.193     6.907
  18   1 H      0.307  0.693  0.000  0.000     0.701     1.315
  19   1 H      0.315  0.685  0.000  0.000     0.677     1.292
  20   8 O     -0.622  1.743  4.879  0.000    25.720     6.845
  21   1 H      0.344  0.656  0.000  0.000     0.602     1.219
  22   1 H      0.289  0.711  0.000  0.000     0.756     1.366
  23   7 N     -0.455  1.397  4.058  0.000    31.954     8.395
  24   1 H      0.150  0.850  0.000  0.000     1.403     1.856
  25   1 H      0.148  0.852  0.000  0.000     1.416     1.864
  26   1 H      0.179  0.821  0.000  0.000     1.218     1.729

 Mol. C6AA /au·bohr⁶  :       5433.836954
 Mol. C8AA /au·bohr⁸  :     117299.003472
 Mol. α(0) /au        :        106.697566

 
 Wiberg/Mayer (AO) data. WBOs > 0.1 written file <wbo>
 largest (>0.05) Wiberg bond orders for each atom
           total WBO             WBO to atom ...
     1  S   4.771    O    3 1.460    O    2 1.390    O    5 0.970    O    4 0.919
     2  O   1.766    S    1 1.390    O    3 0.139    O    4 0.099    O    5 0.095
     3  O   1.813    S    1 1.460    O    2 0.139    O    4 0.097    O    5 0.082
     4  O   1.977    S    1 0.919    H    7 0.781    O    2 0.099    O    3 0.097    O    5 0.056
     5  O   2.008    S    1 0.970    H    6 0.768    O    2 0.095    O    3 0.082    O    4 0.056
     6  H   0.849    O    5 0.768    O   20 0.062
     7  H   0.853    O    4 0.781    O   17 0.054
     8  O   1.910    H    9 0.901    H   10 0.899
     9  H   0.905    O    8 0.901
    10  H   0.906    O    8 0.899
    11  O   1.840    H   13 0.912    H   12 0.834
    12  H   0.888    O   11 0.834    O   14 0.050
    13  H   0.922    O   11 0.912
    14  O   1.833    H   15 0.859    H   16 0.858    H   12 0.050
    15  H   0.895    O   14 0.859
    16  H   0.907    O   14 0.858
    17  O   1.837    H   18 0.860    H   19 0.855    H    7 0.054
    18  H   0.906    O   17 0.860
    19  H   0.901    O   17 0.855
    20  O   1.847    H   22 0.910    H   21 0.827    H    6 0.062
    21  H   0.882    O   20 0.827
    22  H   0.916    O   20 0.910
    23  N   2.979    H   24 0.976    H   25 0.975    H   26 0.952
    24  H   0.978    N   23 0.976
    25  H   0.978    N   23 0.975
    26  H   0.968    N   23 0.952
 MOs/occ written to file <molden.input>
 
molecular dipole:
                 x           y           z       tot (Debye)
 q only:        1.595       1.238       1.559
   full:        2.038       1.720       1.566       7.862
molecular quadrupole (traceless):
                xx          xy          yy          xz          yz          zz
 q only:        8.148       9.176      -2.486      -3.938      -1.780      -5.662
  q+dip:        7.683      11.646      -5.030      -7.045      -1.582      -2.654
   full:        7.808      12.048      -4.959      -7.090      -1.544      -2.849

SCC energy    :     -50.7157563
rep           :       0.2981659
ES            :       0.2344545
AES           :      -0.0363016
AXC           :      -0.0039804
disp          :      -0.0161573
XB            :       0.0000000
fix           :       0.0000000
total E       :     -50.4173680
atomizationE  :       4.9476722     3104.71
(atE without considering molecular charge,
 total energy contains solvation terms)
H-L gap (eV)  :          6.4973
           ------------------------------------------------- 
          |                 ===============                 |
          |                   A N C O P T                   |
          |                 ===============                 |
          |          Approximate Normal Coordinate          |
          |           Rational Function Optimizer           |
           ------------------------------------------------- 
dumping coords to <xtbopt.coord> and <xtbopt.log>
 optlevel               2
 Maxcycle             520
 Maxmicro              25
 Econv         1.000000000000000E-007
 Gconv         2.000000000000000E-004
 Maxdispl       1.00000000000000     
 Hlow          5.000000000000000E-003
 S6             20.0000000000000     
 Nvar               72

generating ANC from model Hessian ...
 Shifting diagonal of input Hessian by   5.176477020551618E-003
 Lowest  eigenvalues of input Hessian
    0.005000    0.005029    0.005171   -0.000000   -0.000000    0.000000
    0.000000    0.000000    0.000000    0.005347    0.005511    0.005725
    0.005841    0.006263    0.006445    0.006517    0.006930    0.007231
 Highest eigenvalues
    1.423200    1.426798    1.434309    1.951429    2.769572    3.591824
 
cpu  time for ANC gen    0.01 s
wall time for ANC gen    0.01 s
................................................................................
.............................. CYCLE    1 ......................................
................................................................................
   1    -50.7157563 -0.507158E+02  0.552E-05    6.50       0.0  T
   2    -50.7157563 -0.433431E-11  0.437E-05    6.50     448.4  T
   3    -50.7157563 -0.543565E-11  0.186E-05    6.50    1053.4  T
speedup  0.71
cpu  time for SCC    0.00 s
wall time for SCC    0.00 s
speedup  0.93
cpu  time for grad    0.01 s
wall time for grad    0.01 s
 E :    -50.41736801  G :  0.081960    pred/act E change:  0.000D+00  0.287D-07
Maxdispl :   0.1472   ||displ|| :   0.3883   Lambda : -0.111D-01
Largest |displ|/coords:  0.1472 (  23)  0.1462 (  27)  0.1259 (  32)
................................................................................
.............................. CYCLE    2 ......................................
................................................................................
   1    -50.7204576 -0.507205E+02  0.502E-01    7.00       0.0  T
   2    -50.7205731 -0.115573E-03  0.377E-01    6.98       1.0  T
   3    -50.7206328 -0.596727E-04  0.627E-02    6.94       1.0  T
   4    -50.7206505 -0.177323E-04  0.307E-02    6.96       1.0  T
   5    -50.7206517 -0.119111E-05  0.577E-03    6.96       3.4  T
   6    -50.7206518 -0.495551E-07  0.326E-03    6.96       6.0  T
speedup  0.96
cpu  time for SCC    0.00 s
wall time for SCC    0.01 s
speedup  0.97
cpu  time for grad    0.01 s
wall time for grad    0.01 s
 E :    -50.42580986  G :  0.058099    pred/act E change:  0.000D+00 -0.844D-02
Maxdispl :   0.1173   ||displ|| :   0.3011   Lambda : -0.549D-02
Largest |displ|/coords:  0.1173 (  10)  0.1052 (  33)  0.0755 (  15)
................................................................................
.............................. CYCLE    3 ......................................
................................................................................
   1    -50.7289575 -0.507290E+02  0.283E-01    7.53       0.0  T
   2    -50.7289953 -0.377212E-04  0.210E-01    7.53       1.0  T
   3    -50.7290148 -0.195683E-04  0.358E-02    7.53       1.0  T
   4    -50.7290197 -0.486127E-05  0.200E-02    7.53       1.0  T
   5    -50.7290200 -0.329401E-06  0.270E-03    7.53       7.3  T
   6    -50.7290200 -0.905184E-08  0.181E-03    7.53      10.8  T
speedup  0.96
cpu  time for SCC    0.00 s
wall time for SCC    0.01 s
speedup  1.04
cpu  time for grad    0.01 s
wall time for grad    0.01 s
 E :    -50.43019765  G :  0.042686    pred/act E change: -0.637D-02 -0.439D-02
Maxdispl :   0.2199   ||displ|| :   0.4845   Lambda : -0.696D-02
Largest |displ|/coords:  0.2199 (  10)  0.1910 (  33)  0.1311 (  25)
................................................................................
.............................. CYCLE    4 ......................................
................................................................................
   1    -50.7415645 -0.507416E+02  0.452E-01    8.57       0.0  T
   2    -50.7417241 -0.159560E-03  0.336E-01    8.57       1.0  T
   3    -50.7417967 -0.725663E-04  0.712E-02    8.59       1.0  T
   4    -50.7418172 -0.204995E-04  0.353E-02    8.59       1.0  T
   5    -50.7418186 -0.143055E-05  0.570E-03    8.59       3.4  T
   6    -50.7418186 -0.541925E-07  0.383E-03    8.59       5.1  T
speedup  0.93
cpu  time for SCC    0.00 s
wall time for SCC    0.01 s
speedup  0.95
cpu  time for grad    0.01 s
wall time for grad    0.01 s
 E :    -50.43341925  G :  0.033871    pred/act E change: -0.300D-02 -0.322D-02
Maxdispl :   0.1766   ||displ|| :   0.4376   Lambda : -0.362D-02
Largest |displ|/coords:  0.1766 (  12)  0.1465 (  10)  0.1443 (  19)
................................................................................
.............................. CYCLE    5 ......................................
................................................................................
   1    -50.7346515 -0.507347E+02  0.459E-01    8.71       0.0  T
   2    -50.7347370 -0.855149E-04  0.343E-01    8.71       1.0  T
   3    -50.7347970 -0.599735E-04  0.547E-02    8.72       1.0  T
   4    -50.7348079 -0.109109E-04  0.174E-02    8.73       1.1  T
   5    -50.7348083 -0.361772E-06  0.506E-03    8.73       3.9  T
   6    -50.7348083 -0.384912E-07  0.294E-03    8.73       6.7  T
speedup  0.96
cpu  time for SCC    0.00 s
wall time for SCC    0.01 s
speedup  0.96
cpu  time for grad    0.01 s
wall time for grad    0.01 s
 E :    -50.43440766  G :  0.043611    pred/act E change: -0.429D-02 -0.988D-03
Maxdispl :   0.1155   ||displ|| :   0.3080   Lambda : -0.329D-02
Largest |displ|/coords:  0.1155 (  11)  0.1140 (  12)  0.1016 (   6)
................................................................................
.............................. CYCLE    6 ......................................
................................................................................
   1    -50.7388006 -0.507388E+02  0.327E-01    8.42       0.0  T
   2    -50.7388624 -0.618012E-04  0.244E-01    8.42       1.0  T
   3    -50.7389023 -0.398565E-04  0.448E-02    8.43       1.0  T
   4    -50.7389102 -0.785025E-05  0.136E-02    8.43       1.4  T
   5    -50.7389105 -0.328287E-06  0.459E-03    8.43       4.3  T
   6    -50.7389105 -0.116182E-07  0.251E-03    8.43       7.8  T
speedup  0.96
cpu  time for SCC    0.00 s
wall time for SCC    0.01 s
speedup  1.04
cpu  time for grad    0.01 s
wall time for grad    0.01 s
 E :    -50.43526919  G :  0.025109    pred/act E change: -0.216D-02 -0.862D-03
Maxdispl :   0.1136   ||displ|| :   0.3258   Lambda : -0.289D-02
Largest |displ|/coords:  0.1136 (  14)  0.1129 (  30)  0.0956 (  18)
................................................................................
.............................. CYCLE    7 ......................................
................................................................................
   1    -50.7240327 -0.507240E+02  0.392E-01    8.11       0.0  T
   2    -50.7241021 -0.693805E-04  0.293E-01    8.11       1.0  T
   3    -50.7241482 -0.460535E-04  0.517E-02    8.12       1.0  T
   4    -50.7241568 -0.859954E-05  0.113E-02    8.12       1.7  T
   5    -50.7241570 -0.267036E-06  0.447E-03    8.12       4.4  T
   6    -50.7241571 -0.327217E-07  0.264E-03    8.12       7.4  T
speedup  0.94
cpu  time for SCC    0.01 s
wall time for SCC    0.01 s
speedup  1.02
cpu  time for grad    0.01 s
wall time for grad    0.01 s
 E :    -50.43566369  G :  0.039220    pred/act E change: -0.180D-02 -0.395D-03
Maxdispl :   0.1958   ||displ|| :   0.2995   Lambda : -0.306D-02
Largest |displ|/coords:  0.1958 (   7)  0.0843 (  28)  0.0804 (   6)
................................................................................
.............................. CYCLE    8 ......................................
................................................................................
   1    -50.7306887 -0.507307E+02  0.359E-01    8.26       0.0  T
   2    -50.7307687 -0.800113E-04  0.269E-01    8.27       1.0  T
   3    -50.7308241 -0.553569E-04  0.509E-02    8.31       1.0  T
   4    -50.7308345 -0.103878E-04  0.111E-02    8.30       1.8  T
   5    -50.7308347 -0.191232E-06  0.542E-03    8.30       3.6  T
   6    -50.7308347 -0.230474E-07  0.253E-03    8.30       7.7  T
speedup  0.96
cpu  time for SCC    0.00 s
wall time for SCC    0.01 s
speedup  0.96
cpu  time for grad    0.01 s
wall time for grad    0.01 s
 E :    -50.43594521  G :  0.037607    pred/act E change: -0.160D-02 -0.282D-03
Maxdispl :   0.1553   ||displ|| :   0.3669   Lambda : -0.427D-02
Largest |displ|/coords:  0.1553 (   7)  0.1328 (  24)  0.1005 (  33)
................................................................................
.............................. CYCLE    9 ......................................
................................................................................
   1    -50.7380082 -0.507380E+02  0.469E-01    8.68       0.0  T
   2    -50.7381161 -0.107924E-03  0.350E-01    8.68       1.0  T
   3    -50.7381826 -0.664134E-04  0.613E-02    8.71       1.0  T
   4    -50.7381959 -0.133023E-04  0.187E-02    8.71       1.1  T
   5    -50.7381967 -0.802390E-06  0.530E-03    8.71       3.7  T
   6    -50.7381967 -0.160768E-07  0.294E-03    8.71       6.7  T
speedup  1.13
cpu  time for SCC    0.01 s
wall time for SCC    0.01 s
speedup  1.03
cpu  time for grad    0.01 s
wall time for grad    0.01 s
 E :    -50.43519179  G :  0.042695    pred/act E change: -0.166D-02  0.753D-03
Maxdispl :   0.0845   ||displ|| :   0.2018   Lambda : -0.372D-02
Largest |displ|/coords:  0.0845 (  30)  0.0606 (   6)  0.0602 (  31)
................................................................................
.............................. CYCLE   10 ......................................
................................................................................
   1    -50.7305995 -0.507306E+02  0.264E-01    8.42       0.0  T
   2    -50.7306326 -0.330843E-04  0.196E-01    8.41       1.0  T
   3    -50.7306532 -0.205882E-04  0.338E-02    8.41       1.0  T
   4    -50.7306570 -0.374154E-05  0.115E-02    8.40       1.7  T
   5    -50.7306572 -0.268068E-06  0.312E-03    8.40       6.3  T
   6    -50.7306572 -0.133518E-07  0.176E-03    8.40      11.1  T
speedup  0.96
cpu  time for SCC    0.00 s
wall time for SCC    0.01 s
speedup  1.03
cpu  time for grad    0.01 s
wall time for grad    0.01 s
 E :    -50.43742482  G :  0.015461    pred/act E change: -0.242D-02 -0.223D-02
Maxdispl :   0.1126   ||displ|| :   0.2793   Lambda : -0.129D-02
Largest |displ|/coords:  0.1126 (  16)  0.0919 (  13)  0.0911 (  17)
................................................................................
.............................. CYCLE   11 ......................................
................................................................................
   1    -50.7284397 -0.507284E+02  0.249E-01    8.31       0.0  T
   2    -50.7284613 -0.216455E-04  0.186E-01    8.31       1.0  T
   3    -50.7284777 -0.164330E-04  0.259E-02    8.30       1.0  T
   4    -50.7284802 -0.247384E-05  0.711E-03    8.31       2.8  T
   5    -50.7284803 -0.550367E-07  0.309E-03    8.31       6.3  T
   6    -50.7284803 -0.163031E-07  0.120E-03    8.31      16.3  T
   7    -50.7284803 -0.396358E-08  0.374E-04    8.31      52.4  T
speedup  0.98
cpu  time for SCC    0.01 s
wall time for SCC    0.01 s
speedup  0.97
cpu  time for grad    0.01 s
wall time for grad    0.01 s
 E :    -50.43756719  G :  0.025160    pred/act E change: -0.194D-02 -0.142D-03
Maxdispl :   0.0709   ||displ|| :   0.1928   Lambda : -0.106D-02
Largest |displ|/coords:  0.0709 (   6)  0.0668 (  17)  0.0661 (  18)
................................................................................
.............................. CYCLE   12 ......................................
................................................................................
   1    -50.7271955 -0.507272E+02  0.161E-01    8.34       0.0  T
   2    -50.7272047 -0.913224E-05  0.119E-01    8.35       1.0  T
   3    -50.7272108 -0.611660E-05  0.153E-02    8.37       1.3  T
   4    -50.7272118 -0.100582E-05  0.520E-03    8.37       3.8  T
   5    -50.7272118 -0.241815E-07  0.190E-03    8.37      10.3  T
speedup  1.11
cpu  time for SCC    0.00 s
wall time for SCC    0.00 s
speedup  1.02
cpu  time for grad    0.01 s
wall time for grad    0.01 s
 E :    -50.43822628  G :  0.016604    pred/act E change: -0.694D-03 -0.659D-03
Maxdispl :   0.1446   ||displ|| :   0.2615   Lambda : -0.728D-03
Largest |displ|/coords:  0.1446 (   6)  0.0850 (   2)  0.0812 (  21)
................................................................................
.............................. CYCLE   13 ......................................
................................................................................
   1    -50.7307429 -0.507307E+02  0.136E-01    8.46       0.0  T
   2    -50.7307486 -0.572355E-05  0.102E-01    8.47       1.0  T
   3    -50.7307541 -0.545336E-05  0.145E-02    8.48       1.4  T
   4    -50.7307546 -0.577136E-06  0.542E-03    8.48       3.6  T
   5    -50.7307547 -0.503743E-07  0.184E-03    8.48      10.6  T
   6    -50.7307547 -0.386101E-08  0.953E-04    8.48      20.6  T
speedup  1.13
cpu  time for SCC    0.01 s
wall time for SCC    0.01 s
speedup  1.02
cpu  time for grad    0.01 s
wall time for grad    0.01 s
 E :    -50.43854934  G :  0.013750    pred/act E change: -0.551D-03 -0.323D-03
Maxdispl :   0.1478   ||displ|| :   0.3397   Lambda : -0.765D-03
Largest |displ|/coords:  0.1478 (   2)  0.1099 (  18)  0.0999 (  13)
................................................................................
.............................. CYCLE   14 ......................................
................................................................................
   1    -50.7294642 -0.507295E+02  0.201E-01    8.43       0.0  T
   2    -50.7294770 -0.128441E-04  0.153E-01    8.43       1.0  T
   3    -50.7294892 -0.121549E-04  0.185E-02    8.45       1.1  T
   4    -50.7294907 -0.149557E-05  0.752E-03    8.44       2.6  T
   5    -50.7294908 -0.894491E-07  0.236E-03    8.44       8.3  T
   6    -50.7294908 -0.512390E-08  0.136E-03    8.44      14.5  T
speedup  1.13
cpu  time for SCC    0.01 s
wall time for SCC    0.01 s
speedup  1.01
cpu  time for grad    0.01 s
wall time for grad    0.01 s
 E :    -50.43905171  G :  0.013183    pred/act E change: -0.389D-03 -0.502D-03
Maxdispl :   0.1268   ||displ|| :   0.3475   Lambda : -0.630D-03
Largest |displ|/coords:  0.1268 (   6)  0.1221 (   2)  0.1160 (  13)
................................................................................
.............................. CYCLE   15 ......................................
................................................................................
   1    -50.7288032 -0.507288E+02  0.197E-01    8.39       0.0  T
   2    -50.7288114 -0.819513E-05  0.149E-01    8.40       1.0  T
   3    -50.7288192 -0.781465E-05  0.147E-02    8.41       1.3  T
   4    -50.7288200 -0.833148E-06  0.682E-03    8.41       2.9  T
   5    -50.7288201 -0.483005E-07  0.167E-03    8.41      11.8  T
   6    -50.7288201 -0.271280E-08  0.939E-04    8.41      20.9  T
speedup  1.15
cpu  time for SCC    0.01 s
wall time for SCC    0.01 s
speedup  1.02
cpu  time for grad    0.01 s
wall time for grad    0.01 s
 E :    -50.43933781  G :  0.016251    pred/act E change: -0.427D-03 -0.286D-03
Maxdispl :   0.1284   ||displ|| :   0.3276   Lambda : -0.683D-03
Largest |displ|/coords:  0.1284 (   5)  0.1228 (   2)  0.1079 (  13)
................................................................................
.............................. CYCLE   16 ......................................
................................................................................
   1    -50.7263679 -0.507264E+02  0.224E-01    8.42       0.0  T
   2    -50.7263868 -0.188688E-04  0.170E-01    8.41       1.0  T
   3    -50.7264073 -0.205000E-04  0.231E-02    8.40       1.0  T
   4    -50.7264092 -0.189669E-05  0.661E-03    8.41       3.0  T
   5    -50.7264093 -0.612125E-07  0.316E-03    8.41       6.2  T
   6    -50.7264093 -0.165878E-07  0.113E-03    8.41      17.3  T
   7    -50.7264093 -0.328219E-08  0.244E-04    8.41      80.2  T
speedup  0.98
cpu  time for SCC    0.01 s
wall time for SCC    0.01 s
speedup  1.04
cpu  time for grad    0.01 s
wall time for grad    0.01 s
 E :    -50.43938823  G :  0.019364    pred/act E change: -0.353D-03 -0.504D-04
Maxdispl :   0.0823   ||displ|| :   0.1558   Lambda : -0.828D-03
Largest |displ|/coords:  0.0823 (   4)  0.0495 (  19)  0.0463 (   5)
................................................................................
.............................. CYCLE   17 ......................................
................................................................................
   1    -50.7344977 -0.507345E+02  0.136E-01    8.45       0.0  T
   2    -50.7345098 -0.120074E-04  0.100E-01    8.44       1.0  T
   3    -50.7345181 -0.829719E-05  0.205E-02    8.42       1.0  T
   4    -50.7345194 -0.136560E-05  0.492E-03    8.42       4.0  T
   5    -50.7345195 -0.415454E-07  0.234E-03    8.42       8.4  T
   6    -50.7345195 -0.619338E-08  0.106E-03    8.42      18.6  T
speedup  0.96
cpu  time for SCC    0.01 s
wall time for SCC    0.01 s
speedup  1.03
cpu  time for grad    0.01 s
wall time for grad    0.01 s
 E :    -50.43953548  G :  0.018349    pred/act E change: -0.378D-03 -0.147D-03
Maxdispl :   0.0636   ||displ|| :   0.1593   Lambda : -0.778D-03
Largest |displ|/coords:  0.0636 (  11)  0.0620 (  16)  0.0570 (  28)
................................................................................
.............................. CYCLE   18 ......................................
................................................................................
   1    -50.7336765 -0.507337E+02  0.155E-01    8.41       0.0  T
   2    -50.7336897 -0.132288E-04  0.115E-01    8.42       1.0  T
   3    -50.7336991 -0.935613E-05  0.203E-02    8.44       1.0  T
   4    -50.7337008 -0.173348E-05  0.618E-03    8.43       3.2  T
   5    -50.7337009 -0.538997E-07  0.244E-03    8.43       8.0  T
   6    -50.7337009 -0.802392E-08  0.112E-03    8.43      17.5  T
speedup  0.96
cpu  time for SCC    0.00 s
wall time for SCC    0.01 s
speedup  1.03
cpu  time for grad    0.01 s
wall time for grad    0.01 s
 E :    -50.43961987  G :  0.018133    pred/act E change: -0.424D-03 -0.844D-04
Maxdispl :   0.0685   ||displ|| :   0.1475   Lambda : -0.604D-03
Largest |displ|/coords:  0.0685 (   4)  0.0491 (  11)  0.0428 (  13)
................................................................................
.............................. CYCLE   19 ......................................
................................................................................
   1    -50.7288069 -0.507288E+02  0.121E-01    8.43       0.0  T
   2    -50.7288158 -0.889540E-05  0.902E-02    8.42       1.0  T
   3    -50.7288215 -0.571311E-05  0.166E-02    8.42       1.2  T
   4    -50.7288226 -0.113837E-05  0.346E-03    8.42       5.7  T
   5    -50.7288227 -0.176735E-07  0.165E-03    8.42      11.9  T
   6    -50.7288227 -0.297931E-08  0.713E-04    8.42      27.5  T
speedup  0.98
cpu  time for SCC    0.00 s
wall time for SCC    0.01 s
speedup  1.03
cpu  time for grad    0.01 s
wall time for grad    0.01 s
 E :    -50.43981281  G :  0.013510    pred/act E change: -0.399D-03 -0.193D-03
Maxdispl :   0.0458   ||displ|| :   0.1280   Lambda : -0.451D-03
Largest |displ|/coords:  0.0458 (   6)  0.0433 (   1)  0.0359 (  16)
................................................................................
.............................. CYCLE   20 ......................................
................................................................................
   1    -50.7371695 -0.507372E+02  0.104E-01    8.49       0.0  T
   2    -50.7371771 -0.764728E-05  0.760E-02    8.47       1.0  T
   3    -50.7371818 -0.466087E-05  0.156E-02    8.45       1.3  T
   4    -50.7371826 -0.804700E-06  0.507E-03    8.46       3.9  T
   5    -50.7371826 -0.409983E-07  0.175E-03    8.46      11.2  T
   6    -50.7371826 -0.388087E-08  0.907E-04    8.46      21.6  T
speedup  0.96
cpu  time for SCC    0.00 s
wall time for SCC    0.01 s
speedup  0.87
cpu  time for grad    0.01 s
wall time for grad    0.01 s
 E :    -50.43978896  G :  0.016065    pred/act E change: -0.309D-03  0.239D-04
Maxdispl :   0.0852   ||displ|| :   0.2058   Lambda : -0.553D-03
Largest |displ|/coords:  0.0852 (   6)  0.0832 (   4)  0.0758 (   2)
................................................................................
.............................. CYCLE   21 ......................................
................................................................................
   1    -50.7306475 -0.507306E+02  0.157E-01    8.33       0.0  T
   2    -50.7306583 -0.108662E-04  0.117E-01    8.34       1.0  T
   3    -50.7306660 -0.769141E-05  0.195E-02    8.36       1.0  T
   4    -50.7306674 -0.132355E-05  0.528E-03    8.35       3.7  T
   5    -50.7306674 -0.419335E-07  0.224E-03    8.35       8.8  T
   6    -50.7306674 -0.701813E-08  0.107E-03    8.35      18.4  T
speedup  0.96
cpu  time for SCC    0.00 s
wall time for SCC    0.01 s
speedup  1.01
cpu  time for grad    0.01 s
wall time for grad    0.01 s
 E :    -50.43992875  G :  0.017091    pred/act E change: -0.229D-03 -0.140D-03
Maxdispl :   0.0455   ||displ|| :   0.1148   Lambda : -0.420D-03
Largest |displ|/coords:  0.0455 (   4)  0.0378 (  21)  0.0355 (   2)
................................................................................
.............................. CYCLE   22 ......................................
................................................................................
   1    -50.7328478 -0.507328E+02  0.936E-02    8.42       0.0  T
   2    -50.7328520 -0.421225E-05  0.691E-02    8.41       1.0  T
   3    -50.7328553 -0.331156E-05  0.128E-02    8.41       1.5  T
   4    -50.7328557 -0.435481E-06  0.396E-03    8.41       5.0  T
   5    -50.7328558 -0.278188E-07  0.143E-03    8.41      13.8  T
   6    -50.7328558 -0.303798E-08  0.678E-04    8.41      28.9  T
speedup  0.96
cpu  time for SCC    0.00 s
wall time for SCC    0.01 s
speedup  0.94
cpu  time for grad    0.01 s
wall time for grad    0.01 s
 E :    -50.44005174  G :  0.010545    pred/act E change: -0.288D-03 -0.123D-03
Maxdispl :   0.0456   ||displ|| :   0.1073   Lambda : -0.188D-03
Largest |displ|/coords:  0.0456 (   1)  0.0443 (   3)  0.0299 (   4)
................................................................................
.............................. CYCLE   23 ......................................
................................................................................
   1    -50.7327862 -0.507328E+02  0.660E-02    8.41       0.0  T
   2    -50.7327878 -0.164064E-05  0.493E-02    8.41       1.0  T
   3    -50.7327892 -0.133372E-05  0.771E-03    8.41       2.5  T
   4    -50.7327894 -0.197768E-06  0.233E-03    8.40       8.4  T
   5    -50.7327894 -0.745267E-08  0.837E-04    8.40      23.4  T
speedup  0.91
cpu  time for SCC    0.00 s
wall time for SCC    0.00 s
speedup  1.01
cpu  time for grad    0.01 s
wall time for grad    0.01 s
 E :    -50.44015556  G :  0.006059    pred/act E change: -0.213D-03 -0.104D-03
Maxdispl :   0.1197   ||displ|| :   0.2327   Lambda : -0.249D-03
Largest |displ|/coords:  0.1197 (   1)  0.1010 (   4)  0.0891 (   2)
................................................................................
.............................. CYCLE   24 ......................................
................................................................................
   1    -50.7341285 -0.507341E+02  0.149E-01    8.38       0.0  T
   2    -50.7341367 -0.825844E-05  0.112E-01    8.37       1.0  T
   3    -50.7341423 -0.561262E-05  0.171E-02    8.35       1.1  T
   4    -50.7341437 -0.130414E-05  0.487E-03    8.36       4.0  T
   5    -50.7341437 -0.308884E-07  0.170E-03    8.36      11.6  T
   6    -50.7341437 -0.324335E-08  0.883E-04    8.36      22.2  T
speedup  0.96
cpu  time for SCC    0.00 s
wall time for SCC    0.01 s
speedup  1.02
cpu  time for grad    0.01 s
wall time for grad    0.01 s
 E :    -50.44016101  G :  0.014238    pred/act E change: -0.950D-04 -0.545D-05
Maxdispl :   0.0789   ||displ|| :   0.1361   Lambda : -0.286D-03
Largest |displ|/coords:  0.0789 (   4)  0.0434 (   1)  0.0391 (   3)
................................................................................
.............................. CYCLE   25 ......................................
................................................................................
   1    -50.7337067 -0.507337E+02  0.821E-02    8.36       0.0  T
   2    -50.7337099 -0.316146E-05  0.601E-02    8.37       1.0  T
   3    -50.7337114 -0.151878E-05  0.117E-02    8.38       1.7  T
   4    -50.7337118 -0.426453E-06  0.260E-03    8.37       7.5  T
   5    -50.7337118 -0.882979E-08  0.105E-03    8.37      18.7  T
speedup  0.93
cpu  time for SCC    0.00 s
wall time for SCC    0.00 s
speedup  1.02
cpu  time for grad    0.01 s
wall time for grad    0.01 s
 E :    -50.44034790  G :  0.007656    pred/act E change: -0.131D-03 -0.187D-03
Maxdispl :   0.1294   ||displ|| :   0.2383   Lambda : -0.204D-03
Largest |displ|/coords:  0.1294 (   4)  0.1038 (   1)  0.0664 (   3)

generating ANC from model Hessian ...
 Shifting diagonal of input Hessian by   5.158546809411123E-003
 Lowest  eigenvalues of input Hessian
    0.005000    0.005138   -0.000000   -0.000000   -0.000000    0.000000
    0.000000    0.000000    0.005373    0.005452    0.005649    0.005982
    0.006847    0.006948    0.007504    0.007811    0.008646    0.009336
 Highest eigenvalues
    1.394598    1.397870    1.436120    2.645055    3.298162    3.732713
 
cpu  time for ANC gen    0.01 s
wall time for ANC gen    0.01 s
................................................................................
.............................. CYCLE   26 ......................................
................................................................................
   1    -50.7318398 -0.507318E+02  0.134E-01    8.32       0.0  T
   2    -50.7318433 -0.356752E-05  0.101E-01    8.33       1.0  T
   3    -50.7318470 -0.363792E-05  0.145E-02    8.33       1.4  T
   4    -50.7318473 -0.324464E-06  0.313E-03    8.33       6.3  T
   5    -50.7318473 -0.159341E-07  0.134E-03    8.33      14.6  T
   6    -50.7318473 -0.245556E-08  0.646E-04    8.33      30.3  T
   7    -50.7318473 -0.766534E-09  0.173E-04    8.33     113.5  T
speedup  1.00
cpu  time for SCC    0.01 s
wall time for SCC    0.01 s
speedup  0.99
cpu  time for grad    0.01 s
wall time for grad    0.01 s
 E :    -50.44044221  G :  0.009879    pred/act E change:  0.000D+00 -0.943D-04
Maxdispl :   0.0687   ||displ|| :   0.1509   Lambda : -0.306D-03
Largest |displ|/coords:  0.0687 (  11)  0.0680 (   3)  0.0499 (  14)
................................................................................
.............................. CYCLE   27 ......................................
................................................................................
   1    -50.7329865 -0.507330E+02  0.130E-01    8.36       0.0  T
   2    -50.7329887 -0.213815E-05  0.979E-02    8.36       1.0  T
   3    -50.7329912 -0.249241E-05  0.793E-03    8.36       2.5  T
   4    -50.7329913 -0.157203E-06  0.283E-03    8.36       6.9  T
   5    -50.7329913 -0.919166E-08  0.118E-03    8.36      16.7  T
speedup  1.14
cpu  time for SCC    0.00 s
wall time for SCC    0.00 s
speedup  1.02
cpu  time for grad    0.01 s
wall time for grad    0.01 s
 E :    -50.44067031  G :  0.004653    pred/act E change:  0.000D+00 -0.228D-03
Maxdispl :   0.1132   ||displ|| :   0.2496   Lambda : -0.290D-03
Largest |displ|/coords:  0.1132 (  11)  0.0970 (   3)  0.0896 (   5)
................................................................................
.............................. CYCLE   28 ......................................
................................................................................
   1    -50.7327805 -0.507328E+02  0.202E-01    8.41       0.0  T
   2    -50.7327844 -0.388465E-05  0.153E-01    8.40       1.0  T
   3    -50.7327891 -0.475394E-05  0.108E-02    8.40       1.8  T
   4    -50.7327894 -0.241935E-06  0.390E-03    8.41       5.0  T
   5    -50.7327894 -0.141958E-07  0.174E-03    8.41      11.3  T
   6    -50.7327894 -0.479070E-08  0.656E-04    8.40      29.9  T
speedup  1.13
cpu  time for SCC    0.01 s
wall time for SCC    0.01 s
speedup  1.02
cpu  time for grad    0.01 s
wall time for grad    0.01 s
 E :    -50.44082870  G :  0.011043    pred/act E change: -0.156D-03 -0.158D-03
Maxdispl :   0.0602   ||displ|| :   0.1392   Lambda : -0.181D-03
Largest |displ|/coords:  0.0602 (   5)  0.0549 (  11)  0.0512 (   3)
................................................................................
.............................. CYCLE   29 ......................................
................................................................................
   1    -50.7338842 -0.507339E+02  0.817E-02    8.43       0.0  T
   2    -50.7338853 -0.105393E-05  0.611E-02    8.43       1.0  T
   3    -50.7338860 -0.721156E-06  0.609E-03    8.43       3.2  T
   4    -50.7338862 -0.152012E-06  0.167E-03    8.43      11.8  T
   5    -50.7338862 -0.370525E-08  0.756E-04    8.43      25.9  T
speedup  1.11
cpu  time for SCC    0.00 s
wall time for SCC    0.00 s
speedup  1.00
cpu  time for grad    0.01 s
wall time for grad    0.01 s
 E :    -50.44096489  G :  0.006939    pred/act E change: -0.154D-03 -0.136D-03
Maxdispl :   0.1984   ||displ|| :   0.3930   Lambda : -0.316D-03
Largest |displ|/coords:  0.1984 (   5)  0.1924 (   3)  0.1348 (  11)
................................................................................
.............................. CYCLE   30 ......................................
................................................................................
   1    -50.7329036 -0.507329E+02  0.219E-01    8.44       0.0  T
   2    -50.7329072 -0.363283E-05  0.164E-01    8.45       1.0  T
   3    -50.7329113 -0.410178E-05  0.116E-02    8.45       1.7  T
   4    -50.7329116 -0.264620E-06  0.401E-03    8.45       4.9  T
   5    -50.7329116 -0.159867E-07  0.182E-03    8.45      10.8  T
   6    -50.7329116 -0.390549E-08  0.766E-04    8.45      25.6  T
speedup  0.96
cpu  time for SCC    0.01 s
wall time for SCC    0.01 s
speedup  0.94
cpu  time for grad    0.01 s
wall time for grad    0.01 s
 E :    -50.44120918  G :  0.007709    pred/act E change: -0.924D-04 -0.244D-03
Maxdispl :   0.2663   ||displ|| :   0.4959   Lambda : -0.379D-03
Largest |displ|/coords:  0.2663 (   3)  0.2532 (   5)  0.1648 (   8)
................................................................................
.............................. CYCLE   31 ......................................
................................................................................
   1    -50.7317070 -0.507317E+02  0.231E-01    8.42       0.0  T
   2    -50.7317132 -0.627137E-05  0.174E-01    8.42       1.0  T
   3    -50.7317210 -0.777970E-05  0.143E-02    8.43       1.4  T
   4    -50.7317214 -0.388033E-06  0.478E-03    8.43       4.1  T
   5    -50.7317214 -0.258238E-07  0.229E-03    8.43       8.5  T
   6    -50.7317215 -0.860974E-08  0.894E-04    8.43      21.9  T
speedup  0.98
cpu  time for SCC    0.00 s
wall time for SCC    0.01 s
speedup  0.95
cpu  time for grad    0.01 s
wall time for grad    0.01 s
 E :    -50.44147260  G :  0.011421    pred/act E change: -0.182D-03 -0.263D-03
Maxdispl :   0.2504   ||displ|| :   0.4612   Lambda : -0.405D-03
Largest |displ|/coords:  0.2504 (   3)  0.2355 (   5)  0.1577 (  10)
................................................................................
.............................. CYCLE   32 ......................................
................................................................................
   1    -50.7308298 -0.507308E+02  0.209E-01    8.36       0.0  T
   2    -50.7308357 -0.582601E-05  0.158E-01    8.36       1.0  T
   3    -50.7308433 -0.759307E-05  0.144E-02    8.36       1.4  T
   4    -50.7308435 -0.254493E-06  0.434E-03    8.36       4.5  T
   5    -50.7308435 -0.250788E-07  0.199E-03    8.36       9.8  T
   6    -50.7308435 -0.554692E-08  0.934E-04    8.36      21.0  T
speedup  0.96
cpu  time for SCC    0.01 s
wall time for SCC    0.01 s
speedup  1.02
cpu  time for grad    0.01 s
wall time for grad    0.01 s
 E :    -50.44173585  G :  0.011625    pred/act E change: -0.236D-03 -0.263D-03
Maxdispl :   0.1592   ||displ|| :   0.3191   Lambda : -0.433D-03
Largest |displ|/coords:  0.1592 (   5)  0.1486 (   3)  0.0920 (  10)
................................................................................
.............................. CYCLE   33 ......................................
................................................................................
   1    -50.7358869 -0.507359E+02  0.127E-01    8.33       0.0  T
   2    -50.7358933 -0.646453E-05  0.951E-02    8.33       1.0  T
   3    -50.7358990 -0.568795E-05  0.165E-02    8.33       1.2  T
   4    -50.7358998 -0.719382E-06  0.390E-03    8.33       5.0  T
   5    -50.7358998 -0.284089E-07  0.186E-03    8.33      10.5  T
   6    -50.7358998 -0.479166E-08  0.937E-04    8.33      20.9  T
speedup  0.94
cpu  time for SCC    0.00 s
wall time for SCC    0.01 s
speedup  1.01
cpu  time for grad    0.01 s
wall time for grad    0.01 s
 E :    -50.44178353  G :  0.016998    pred/act E change: -0.246D-03 -0.477D-04
Maxdispl :   0.1787   ||displ|| :   0.4003   Lambda : -0.664D-03
Largest |displ|/coords:  0.1787 (   5)  0.1786 (   3)  0.1193 (  11)
................................................................................
.............................. CYCLE   34 ......................................
................................................................................
   1    -50.7278576 -0.507279E+02  0.259E-01    8.30       0.0  T
   2    -50.7278782 -0.205295E-04  0.195E-01    8.30       1.0  T
   3    -50.7278942 -0.160870E-04  0.256E-02    8.31       1.0  T
   4    -50.7278972 -0.291434E-05  0.813E-03    8.31       2.4  T
   5    -50.7278972 -0.881832E-07  0.368E-03    8.31       5.3  T
   6    -50.7278973 -0.160987E-07  0.182E-03    8.31      10.8  T
   7    -50.7278973 -0.755283E-08  0.412E-04    8.31      47.7  T
speedup  1.00
cpu  time for SCC    0.01 s
wall time for SCC    0.01 s
speedup  1.02
cpu  time for grad    0.01 s
wall time for grad    0.01 s
 E :    -50.44159523  G :  0.028506    pred/act E change: -0.238D-03  0.188D-03
Maxdispl :   0.1238   ||displ|| :   0.2589   Lambda : -0.129D-02
Largest |displ|/coords:  0.1238 (   5)  0.1053 (   7)  0.0905 (   3)
................................................................................
.............................. CYCLE   35 ......................................
................................................................................
   1    -50.7287623 -0.507288E+02  0.176E-01    8.37       0.0  T
   2    -50.7287780 -0.156968E-04  0.131E-01    8.38       1.0  T
   3    -50.7287893 -0.112479E-04  0.225E-02    8.40       1.0  T
   4    -50.7287915 -0.218676E-05  0.673E-03    8.39       2.9  T
   5    -50.7287915 -0.621923E-07  0.288E-03    8.39       6.8  T
   6    -50.7287915 -0.815037E-08  0.131E-03    8.39      15.0  T
speedup  0.96
cpu  time for SCC    0.00 s
wall time for SCC    0.01 s
speedup  1.02
cpu  time for grad    0.01 s
wall time for grad    0.01 s
 E :    -50.44192381  G :  0.016982    pred/act E change: -0.385D-03 -0.329D-03
Maxdispl :   0.1232   ||displ|| :   0.1724   Lambda : -0.664D-03
Largest |displ|/coords:  0.1232 (  11)  0.0587 (  12)  0.0432 (  17)
................................................................................
.............................. CYCLE   36 ......................................
................................................................................
   1    -50.7361292 -0.507361E+02  0.157E-01    8.40       0.0  T
   2    -50.7361368 -0.757788E-05  0.117E-01    8.39       1.0  T
   3    -50.7361406 -0.382920E-05  0.155E-02    8.39       1.3  T
   4    -50.7361418 -0.118454E-05  0.345E-03    8.39       5.7  T
   5    -50.7361418 -0.191285E-07  0.170E-03    8.39      11.5  T
   6    -50.7361418 -0.160524E-08  0.863E-04    8.39      22.7  T
speedup  1.15
cpu  time for SCC    0.01 s
wall time for SCC    0.01 s
speedup  1.01
cpu  time for grad    0.01 s
wall time for grad    0.01 s
 E :    -50.44201771  G :  0.012616    pred/act E change: -0.687D-03 -0.939D-04
Maxdispl :   0.0560   ||displ|| :   0.1126   Lambda : -0.276D-03
Largest |displ|/coords:  0.0560 (  11)  0.0436 (   2)  0.0428 (   5)
................................................................................
.............................. CYCLE   37 ......................................
................................................................................
   1    -50.7340300 -0.507340E+02  0.933E-02    8.40       0.0  T
   2    -50.7340321 -0.206872E-05  0.699E-02    8.40       1.0  T
   3    -50.7340336 -0.149325E-05  0.841E-03    8.40       2.3  T
   4    -50.7340339 -0.307430E-06  0.245E-03    8.40       8.0  T
   5    -50.7340339 -0.906429E-08  0.111E-03    8.40      17.7  T
speedup  0.91
cpu  time for SCC    0.00 s
wall time for SCC    0.00 s
speedup  0.99
cpu  time for grad    0.01 s
wall time for grad    0.01 s
 E :    -50.44217534  G :  0.004697    pred/act E change: -0.342D-03 -0.158D-03
Maxdispl :   0.1215   ||displ|| :   0.2673   Lambda : -0.144D-03
Largest |displ|/coords:  0.1215 (   3)  0.0978 (   8)  0.0962 (   5)
................................................................................
.............................. CYCLE   38 ......................................
................................................................................
   1    -50.7292251 -0.507292E+02  0.135E-01    8.34       0.0  T
   2    -50.7292283 -0.320845E-05  0.101E-01    8.34       1.0  T
   3    -50.7292310 -0.269301E-05  0.114E-02    8.35       1.7  T
   4    -50.7292314 -0.427272E-06  0.348E-03    8.35       5.6  T
   5    -50.7292314 -0.158319E-07  0.145E-03    8.35      13.5  T
   6    -50.7292314 -0.314085E-08  0.723E-04    8.35      27.1  T
speedup  0.96
cpu  time for SCC    0.01 s
wall time for SCC    0.01 s
speedup  1.01
cpu  time for grad    0.01 s
wall time for grad    0.01 s
 E :    -50.44221289  G :  0.010248    pred/act E change: -0.140D-03 -0.375D-04
Maxdispl :   0.0429   ||displ|| :   0.0782   Lambda : -0.109D-03
Largest |displ|/coords:  0.0429 (   3)  0.0269 (   8)  0.0262 (   1)
................................................................................
.............................. CYCLE   39 ......................................
................................................................................
   1    -50.7318064 -0.507318E+02  0.390E-02    8.39       0.0  T
   2    -50.7318068 -0.444404E-06  0.289E-02    8.39       1.0  T
   3    -50.7318071 -0.246531E-06  0.472E-03    8.39       4.2  T
   4    -50.7318071 -0.699842E-07  0.114E-03    8.39      17.2  T
   5    -50.7318071 -0.209157E-08  0.415E-04    8.39      47.2  T
speedup  1.11
cpu  time for SCC    0.00 s
wall time for SCC    0.00 s
speedup  0.99
cpu  time for grad    0.01 s
wall time for grad    0.01 s
 E :    -50.44228838  G :  0.005957    pred/act E change: -0.773D-04 -0.755D-04
Maxdispl :   0.0843   ||displ|| :   0.1900   Lambda : -0.144D-03
Largest |displ|/coords:  0.0843 (   2)  0.0834 (   1)  0.0697 (   6)
................................................................................
.............................. CYCLE   40 ......................................
................................................................................
   1    -50.7338301 -0.507338E+02  0.101E-01    8.41       0.0  T
   2    -50.7338324 -0.224675E-05  0.759E-02    8.41       1.0  T
   3    -50.7338348 -0.243709E-05  0.102E-02    8.41       1.9  T
   4    -50.7338350 -0.210311E-06  0.307E-03    8.41       6.4  T
   5    -50.7338350 -0.121666E-07  0.107E-03    8.41      18.4  T
   6    -50.7338350 -0.136365E-08  0.532E-04    8.41      36.9  T
speedup  0.94
cpu  time for SCC    0.00 s
wall time for SCC    0.01 s
speedup  1.00
cpu  time for grad    0.01 s
wall time for grad    0.01 s
 E :    -50.44237968  G :  0.003940    pred/act E change: -0.550D-04 -0.913D-04
Maxdispl :   0.1653   ||displ|| :   0.3270   Lambda : -0.172D-03
Largest |displ|/coords:  0.1653 (   1)  0.1297 (   2)  0.1273 (   6)
................................................................................
.............................. CYCLE   41 ......................................
................................................................................
   1    -50.7331549 -0.507332E+02  0.171E-01    8.41       0.0  T
   2    -50.7331604 -0.550819E-05  0.128E-01    8.42       1.0  T
   3    -50.7331655 -0.513457E-05  0.160E-02    8.43       1.2  T
   4    -50.7331661 -0.617172E-06  0.510E-03    8.43       3.8  T
   5    -50.7331662 -0.286724E-07  0.167E-03    8.43      11.7  T
   6    -50.7331662 -0.287046E-08  0.824E-04    8.43      23.8  T
   7    -50.7331662 -0.147039E-08  0.231E-04    8.43      84.8  T
speedup  1.00
cpu  time for SCC    0.01 s
wall time for SCC    0.01 s
speedup  0.97
cpu  time for grad    0.01 s
wall time for grad    0.01 s
 E :    -50.44248376  G :  0.005499    pred/act E change: -0.748D-04 -0.104D-03
Maxdispl :   0.1374   ||displ|| :   0.3037   Lambda : -0.108D-03
Largest |displ|/coords:  0.1374 (   1)  0.1374 (   2)  0.1024 (   6)
................................................................................
.............................. CYCLE   42 ......................................
................................................................................
   1    -50.7304514 -0.507305E+02  0.148E-01    8.36       0.0  T
   2    -50.7304554 -0.404961E-05  0.112E-01    8.36       1.0  T
   3    -50.7304602 -0.475341E-05  0.113E-02    8.37       1.7  T
   4    -50.7304605 -0.304790E-06  0.465E-03    8.36       4.2  T
   5    -50.7304605 -0.274696E-07  0.149E-03    8.36      13.2  T
   6    -50.7304605 -0.299968E-08  0.788E-04    8.36      24.9  T
speedup  1.13
cpu  time for SCC    0.01 s
wall time for SCC    0.01 s
speedup  1.00
cpu  time for grad    0.01 s
wall time for grad    0.01 s
 E :    -50.44253851  G :  0.006875    pred/act E change: -0.949D-04 -0.548D-04
Maxdispl :   0.0785   ||displ|| :   0.1263   Lambda : -0.952D-04
Largest |displ|/coords:  0.0785 (   1)  0.0490 (   7)  0.0476 (   5)
................................................................................
.............................. CYCLE   43 ......................................
................................................................................
   1    -50.7317051 -0.507317E+02  0.509E-02    8.36       0.0  T
   2    -50.7317061 -0.101675E-05  0.375E-02    8.36       1.0  T
   3    -50.7317069 -0.784389E-06  0.649E-03    8.36       3.0  T
   4    -50.7317070 -0.107009E-06  0.202E-03    8.36       9.7  T
   5    -50.7317070 -0.563336E-08  0.733E-04    8.36      26.8  T
speedup  0.91
cpu  time for SCC    0.00 s
wall time for SCC    0.00 s
speedup  0.99
cpu  time for grad    0.01 s
wall time for grad    0.01 s
 E :    -50.44259236  G :  0.004986    pred/act E change: -0.588D-04 -0.539D-04
Maxdispl :   0.1220   ||displ|| :   0.1842   Lambda : -0.915D-04
Largest |displ|/coords:  0.1220 (   1)  0.0790 (   2)  0.0500 (   7)
................................................................................
.............................. CYCLE   44 ......................................
................................................................................
   1    -50.7325375 -0.507325E+02  0.846E-02    8.36       0.0  T
   2    -50.7325397 -0.217533E-05  0.632E-02    8.36       1.0  T
   3    -50.7325416 -0.189043E-05  0.972E-03    8.35       2.0  T
   4    -50.7325418 -0.270199E-06  0.339E-03    8.35       5.8  T
   5    -50.7325418 -0.150147E-07  0.110E-03    8.36      17.8  T
   6    -50.7325418 -0.198656E-08  0.635E-04    8.35      30.9  T
speedup  0.96
cpu  time for SCC    0.00 s
wall time for SCC    0.01 s
speedup  1.00
cpu  time for grad    0.01 s
wall time for grad    0.01 s
 E :    -50.44264916  G :  0.004641    pred/act E change: -0.484D-04 -0.568D-04
Maxdispl :   0.1935   ||displ|| :   0.2821   Lambda : -0.786D-04
Largest |displ|/coords:  0.1935 (   1)  0.1086 (   2)  0.0922 (   7)
................................................................................
.............................. CYCLE   45 ......................................
................................................................................
   1    -50.7311096 -0.507311E+02  0.135E-01    8.34       0.0  T
   2    -50.7311134 -0.383497E-05  0.101E-01    8.34       1.0  T
   3    -50.7311174 -0.401054E-05  0.121E-02    8.35       1.6  T
   4    -50.7311177 -0.332818E-06  0.496E-03    8.34       4.0  T
   5    -50.7311178 -0.293369E-07  0.145E-03    8.34      13.5  T
   6    -50.7311178 -0.314706E-08  0.878E-04    8.34      22.3  T
speedup  0.96
cpu  time for SCC    0.00 s
wall time for SCC    0.01 s
speedup  1.00
cpu  time for grad    0.01 s
wall time for grad    0.01 s
 E :    -50.44269466  G :  0.005135    pred/act E change: -0.473D-04 -0.455D-04
Maxdispl :   0.0984   ||displ|| :   0.1449   Lambda : -0.664D-04
Largest |displ|/coords:  0.0984 (   1)  0.0430 (   4)  0.0420 (   5)
................................................................................
.............................. CYCLE   46 ......................................
................................................................................
   1    -50.7324220 -0.507324E+02  0.627E-02    8.35       0.0  T
   2    -50.7324228 -0.850371E-06  0.467E-02    8.34       1.0  T
   3    -50.7324235 -0.703193E-06  0.648E-03    8.34       3.0  T
   4    -50.7324236 -0.933149E-07  0.183E-03    8.34      10.7  T
   5    -50.7324236 -0.506405E-08  0.616E-04    8.34      31.8  T
speedup  0.91
cpu  time for SCC    0.00 s
wall time for SCC    0.00 s
speedup  0.98
cpu  time for grad    0.01 s
wall time for grad    0.01 s
 E :    -50.44273058  G :  0.003404    pred/act E change: -0.424D-04 -0.359D-04
Maxdispl :   0.1537   ||displ|| :   0.2351   Lambda : -0.632D-04
Largest |displ|/coords:  0.1537 (   1)  0.0897 (   2)  0.0592 (   5)
................................................................................
.............................. CYCLE   47 ......................................
................................................................................
   1    -50.7307448 -0.507307E+02  0.112E-01    8.32       0.0  T
   2    -50.7307472 -0.247630E-05  0.846E-02    8.32       1.0  T
   3    -50.7307501 -0.283674E-05  0.897E-03    8.32       2.2  T
   4    -50.7307503 -0.218566E-06  0.367E-03    8.32       5.3  T
   5    -50.7307503 -0.171287E-07  0.119E-03    8.32      16.4  T
   6    -50.7307503 -0.193200E-08  0.670E-04    8.32      29.3  T
   7    -50.7307503 -0.968789E-09  0.139E-04    8.32     140.9  T
speedup  0.98
cpu  time for SCC    0.01 s
wall time for SCC    0.01 s
speedup  0.97
cpu  time for grad    0.01 s
wall time for grad    0.01 s
 E :    -50.44275788  G :  0.006197    pred/act E change: -0.339D-04 -0.273D-04
Maxdispl :   0.0553   ||displ|| :   0.1059   Lambda : -0.735D-04
Largest |displ|/coords:  0.0553 (   1)  0.0406 (  15)  0.0393 (   8)
................................................................................
.............................. CYCLE   48 ......................................
................................................................................
   1    -50.7310268 -0.507310E+02  0.568E-02    8.31       0.0  T
   2    -50.7310278 -0.104388E-05  0.426E-02    8.31       1.0  T
   3    -50.7310286 -0.802610E-06  0.577E-03    8.31       3.4  T
   4    -50.7310288 -0.141707E-06  0.228E-03    8.31       8.6  T
   5    -50.7310288 -0.823328E-08  0.759E-04    8.31      25.8  T
speedup  0.89
cpu  time for SCC    0.00 s
wall time for SCC    0.00 s
speedup  0.96
cpu  time for grad    0.01 s
wall time for grad    0.01 s
 E :    -50.44279152  G :  0.005032    pred/act E change: -0.334D-04 -0.336D-04
Maxdispl :   0.0380   ||displ|| :   0.0947   Lambda : -0.523D-04
Largest |displ|/coords:  0.0380 (   5)  0.0339 (   9)  0.0314 (   6)
................................................................................
.............................. CYCLE   49 ......................................
................................................................................
   1    -50.7333395 -0.507333E+02  0.452E-02    8.37       0.0  T
   2    -50.7333404 -0.938522E-06  0.340E-02    8.37       1.0  T
   3    -50.7333411 -0.630339E-06  0.546E-03    8.37       3.6  T
   4    -50.7333412 -0.138491E-06  0.236E-03    8.37       8.3  T
   5    -50.7333412 -0.943805E-08  0.627E-04    8.37      31.3  T
speedup  0.89
cpu  time for SCC    0.00 s
wall time for SCC    0.00 s
speedup  0.98
cpu  time for grad    0.01 s
wall time for grad    0.01 s
 E :    -50.44280971  G :  0.002672    pred/act E change: -0.372D-04 -0.182D-04
Maxdispl :   0.0899   ||displ|| :   0.1325   Lambda : -0.323D-04
Largest |displ|/coords:  0.0899 (   1)  0.0541 (   2)  0.0399 (   7)
................................................................................
.............................. CYCLE   50 ......................................
................................................................................
   1    -50.7321428 -0.507321E+02  0.649E-02    8.34       0.0  T
   2    -50.7321436 -0.749567E-06  0.490E-02    8.34       1.0  T
   3    -50.7321445 -0.891978E-06  0.523E-03    8.34       3.8  T
   4    -50.7321445 -0.563565E-07  0.170E-03    8.34      11.5  T
   5    -50.7321445 -0.448279E-08  0.669E-04    8.34      29.3  T
   6    -50.7321445 -0.598185E-09  0.350E-04    8.34      56.0  T
speedup  0.94
cpu  time for SCC    0.00 s
wall time for SCC    0.01 s
speedup  0.96
cpu  time for grad    0.01 s
wall time for grad    0.01 s
 E :    -50.44282894  G :  0.002288    pred/act E change: -0.264D-04 -0.192D-04
Maxdispl :   0.0378   ||displ|| :   0.0571   Lambda : -0.153D-04
Largest |displ|/coords:  0.0378 (   1)  0.0209 (   2)  0.0152 (  15)
................................................................................
.............................. CYCLE   51 ......................................
................................................................................
   1    -50.7323080 -0.507323E+02  0.308E-02    8.33       0.0  T
   2    -50.7323082 -0.202461E-06  0.231E-02    8.33       1.0  T
   3    -50.7323083 -0.177181E-06  0.304E-03    8.34       6.4  T
   4    -50.7323084 -0.224484E-07  0.118E-03    8.34      16.6  T
   5    -50.7323084 -0.155737E-08  0.298E-04    8.34      65.8  T
   6    -50.7323084 -0.118234E-09  0.186E-04    8.34     105.4  T
speedup  0.94
cpu  time for SCC    0.00 s
wall time for SCC    0.01 s
speedup  0.95
cpu  time for grad    0.01 s
wall time for grad    0.01 s
 E :    -50.44283821  G :  0.002262    pred/act E change: -0.164D-04 -0.927D-05
Maxdispl :   0.1119   ||displ|| :   0.1535   Lambda : -0.212D-04
Largest |displ|/coords:  0.1119 (   1)  0.0597 (   2)  0.0302 (  15)
................................................................................
.............................. CYCLE   52 ......................................
................................................................................
   1    -50.7316069 -0.507316E+02  0.742E-02    8.33       0.0  T
   2    -50.7316078 -0.954152E-06  0.560E-02    8.33       1.0  T
   3    -50.7316089 -0.104933E-05  0.568E-03    8.34       3.5  T
   4    -50.7316089 -0.843339E-07  0.270E-03    8.33       7.3  T
   5    -50.7316090 -0.774599E-08  0.724E-04    8.33      27.1  T
   6    -50.7316090 -0.693319E-09  0.460E-04    8.33      42.7  T
speedup  0.94
cpu  time for SCC    0.00 s
wall time for SCC    0.01 s
speedup  1.04
cpu  time for grad    0.01 s
wall time for grad    0.01 s
 E :    -50.44284637  G :  0.003843    pred/act E change: -0.770D-05 -0.816D-05
Maxdispl :   0.0132   ||displ|| :   0.0358   Lambda : -0.197D-04
Largest |displ|/coords:  0.0132 (   4)  0.0113 (   3)  0.0111 (   6)

generating ANC from model Hessian ...
 Shifting diagonal of input Hessian by   5.184660041593705E-003
 Lowest  eigenvalues of input Hessian
    0.005000   -0.000000   -0.000000    0.000000    0.000000    0.000000
    0.000000    0.005193    0.005417    0.005617    0.005784    0.006076
    0.006246    0.007643    0.007716    0.008281    0.008873    0.009552
 Highest eigenvalues
    1.388229    1.392417    1.443197    2.671454    3.317368    3.714427
 
cpu  time for ANC gen    0.01 s
wall time for ANC gen    0.01 s
................................................................................
.............................. CYCLE   53 ......................................
................................................................................
   1    -50.7326063 -0.507326E+02  0.275E-02    8.34       0.0  T
   2    -50.7326066 -0.300756E-06  0.198E-02    8.34       1.0  T
   3    -50.7326068 -0.206193E-06  0.369E-03    8.34       5.3  T
   4    -50.7326068 -0.254244E-07  0.116E-03    8.34      17.0  T
   5    -50.7326068 -0.165657E-08  0.282E-04    8.34      69.6  T
   6    -50.7326068 -0.138499E-09  0.165E-04    8.34     119.0  T
speedup  0.96
cpu  time for SCC    0.00 s
wall time for SCC    0.01 s
speedup  1.04
cpu  time for grad    0.01 s
wall time for grad    0.01 s
 E :    -50.44285815  G :  0.002329    pred/act E change:  0.000D+00 -0.118D-04
Maxdispl :   0.0172   ||displ|| :   0.0374   Lambda : -0.182D-04
Largest |displ|/coords:  0.0172 (   2)  0.0139 (  16)  0.0134 (   7)
................................................................................
.............................. CYCLE   54 ......................................
................................................................................
   1    -50.7326591 -0.507327E+02  0.280E-02    8.34       0.0  T
   2    -50.7326593 -0.173212E-06  0.212E-02    8.34       1.0  T
   3    -50.7326595 -0.190766E-06  0.249E-03    8.34       7.9  T
   4    -50.7326595 -0.164718E-07  0.993E-04    8.34      19.7  T
   5    -50.7326595 -0.119994E-08  0.272E-04    8.34      72.0  T
speedup  1.16
cpu  time for SCC    0.01 s
wall time for SCC    0.00 s
speedup  1.02
cpu  time for grad    0.01 s
wall time for grad    0.01 s
 E :    -50.44287272  G :  0.001390    pred/act E change:  0.000D+00 -0.146D-04
Maxdispl :   0.0582   ||displ|| :   0.1152   Lambda : -0.361D-04
Largest |displ|/coords:  0.0582 (   2)  0.0477 (   1)  0.0403 (  16)
................................................................................
.............................. CYCLE   55 ......................................
................................................................................
   1    -50.7324349 -0.507324E+02  0.716E-02    8.34       0.0  T
   2    -50.7324360 -0.107239E-05  0.542E-02    8.34       1.0  T
   3    -50.7324372 -0.128140E-05  0.602E-03    8.34       3.3  T
   4    -50.7324373 -0.899684E-07  0.259E-03    8.34       7.6  T
   5    -50.7324373 -0.823700E-08  0.719E-04    8.34      27.3  T
   6    -50.7324373 -0.733969E-09  0.411E-04    8.34      47.8  T
speedup  0.96
cpu  time for SCC    0.00 s
wall time for SCC    0.01 s
speedup  0.97
cpu  time for grad    0.01 s
wall time for grad    0.01 s
 E :    -50.44289546  G :  0.001771    pred/act E change: -0.913D-05 -0.227D-04
Maxdispl :   0.0558   ||displ|| :   0.0869   Lambda : -0.155D-04
Largest |displ|/coords:  0.0558 (   2)  0.0361 (   1)  0.0258 (   7)
................................................................................
.............................. CYCLE   56 ......................................
................................................................................
   1    -50.7322574 -0.507323E+02  0.469E-02    8.34       0.0  T
   2    -50.7322578 -0.381714E-06  0.355E-02    8.34       1.0  T
   3    -50.7322583 -0.522993E-06  0.346E-03    8.34       5.7  T
   4    -50.7322583 -0.204538E-07  0.149E-03    8.34      13.1  T
   5    -50.7322583 -0.302834E-08  0.451E-04    8.34      43.5  T
   6    -50.7322583 -0.241165E-09  0.266E-04    8.34      73.8  T
speedup  0.96
cpu  time for SCC    0.00 s
wall time for SCC    0.01 s
speedup  0.97
cpu  time for grad    0.01 s
wall time for grad    0.01 s
 E :    -50.44290753  G :  0.002535    pred/act E change: -0.183D-04 -0.121D-04
Maxdispl :   0.1251   ||displ|| :   0.1798   Lambda : -0.326D-04
Largest |displ|/coords:  0.1251 (   2)  0.0859 (   1)  0.0386 (   9)
................................................................................
.............................. CYCLE   57 ......................................
................................................................................
   1    -50.7319501 -0.507320E+02  0.853E-02    8.33       0.0  T
   2    -50.7319513 -0.120887E-05  0.646E-02    8.33       1.0  T
   3    -50.7319531 -0.177551E-05  0.605E-03    8.33       3.2  T
   4    -50.7319531 -0.447534E-07  0.202E-03    8.33       9.7  T
   5    -50.7319532 -0.710216E-08  0.859E-04    8.33      22.8  T
   6    -50.7319532 -0.902766E-09  0.454E-04    8.33      43.2  T
speedup  0.96
cpu  time for SCC    0.00 s
wall time for SCC    0.01 s
speedup  0.97
cpu  time for grad    0.01 s
wall time for grad    0.01 s
 E :    -50.44293060  G :  0.003606    pred/act E change: -0.781D-05 -0.231D-04
Maxdispl :   0.1270   ||displ|| :   0.1752   Lambda : -0.376D-04
Largest |displ|/coords:  0.1270 (   2)  0.0875 (   1)  0.0368 (   4)
................................................................................
.............................. CYCLE   58 ......................................
................................................................................
   1    -50.7321745 -0.507322E+02  0.703E-02    8.33       0.0  T
   2    -50.7321753 -0.861256E-06  0.530E-02    8.33       1.0  T
   3    -50.7321765 -0.117848E-05  0.537E-03    8.33       3.7  T
   4    -50.7321766 -0.450223E-07  0.201E-03    8.33       9.7  T
   5    -50.7321766 -0.518020E-08  0.749E-04    8.33      26.2  T
   6    -50.7321766 -0.661259E-09  0.379E-04    8.33      51.7  T
speedup  0.93
cpu  time for SCC    0.00 s
wall time for SCC    0.01 s
speedup  1.02
cpu  time for grad    0.01 s
wall time for grad    0.01 s
 E :    -50.44295755  G :  0.002593    pred/act E change: -0.168D-04 -0.270D-04
Maxdispl :   0.2116   ||displ|| :   0.2868   Lambda : -0.430D-04
Largest |displ|/coords:  0.2116 (   2)  0.1499 (   1)  0.0515 (   5)
................................................................................
.............................. CYCLE   59 ......................................
................................................................................
   1    -50.7311231 -0.507311E+02  0.121E-01    8.32       0.0  T
   2    -50.7311259 -0.280429E-05  0.917E-02    8.32       1.0  T
   3    -50.7311298 -0.381473E-05  0.903E-03    8.32       2.2  T
   4    -50.7311299 -0.154748E-06  0.392E-03    8.32       5.0  T
   5    -50.7311299 -0.192079E-07  0.128E-03    8.32      15.3  T
   6    -50.7311299 -0.223455E-08  0.683E-04    8.32      28.7  T
   7    -50.7311299 -0.754873E-09  0.135E-04    8.32     145.7  T
speedup  0.98
cpu  time for SCC    0.01 s
wall time for SCC    0.01 s
speedup  1.05
cpu  time for grad    0.01 s
wall time for grad    0.01 s
 E :    -50.44297448  G :  0.006122    pred/act E change: -0.194D-04 -0.169D-04
Maxdispl :   0.0995   ||displ|| :   0.1522   Lambda : -0.809D-04
Largest |displ|/coords:  0.0995 (   2)  0.0765 (   1)  0.0400 (   3)
................................................................................
.............................. CYCLE   60 ......................................
................................................................................
   1    -50.7328391 -0.507328E+02  0.625E-02    8.33       0.0  T
   2    -50.7328405 -0.136750E-05  0.470E-02    8.33       1.0  T
   3    -50.7328415 -0.949075E-06  0.716E-03    8.33       2.7  T
   4    -50.7328416 -0.185639E-06  0.262E-03    8.33       7.5  T
   5    -50.7328417 -0.129089E-07  0.774E-04    8.33      25.3  T
speedup  0.91
cpu  time for SCC    0.00 s
wall time for SCC    0.00 s
speedup  0.99
cpu  time for grad    0.01 s
wall time for grad    0.01 s
 E :    -50.44300630  G :  0.002662    pred/act E change: -0.233D-04 -0.318D-04
Maxdispl :   0.1160   ||displ|| :   0.1525   Lambda : -0.309D-04
Largest |displ|/coords:  0.1160 (   2)  0.0749 (   1)  0.0346 (   5)
................................................................................
.............................. CYCLE   61 ......................................
................................................................................
   1    -50.7322803 -0.507323E+02  0.591E-02    8.33       0.0  T
   2    -50.7322810 -0.757375E-06  0.448E-02    8.33       1.0  T
   3    -50.7322820 -0.985929E-06  0.470E-03    8.33       4.2  T
   4    -50.7322821 -0.518810E-07  0.167E-03    8.33      11.8  T
   5    -50.7322821 -0.350092E-08  0.677E-04    8.33      29.0  T
   6    -50.7322821 -0.730765E-09  0.342E-04    8.33      57.3  T
speedup  0.93
cpu  time for SCC    0.00 s
wall time for SCC    0.01 s
speedup  0.95
cpu  time for grad    0.01 s
wall time for grad    0.01 s
 E :    -50.44302946  G :  0.002914    pred/act E change: -0.414D-04 -0.232D-04
Maxdispl :   0.1574   ||displ|| :   0.2045   Lambda : -0.367D-04
Largest |displ|/coords:  0.1574 (   2)  0.0963 (   1)  0.0452 (   3)
................................................................................
.............................. CYCLE   62 ......................................
................................................................................
   1    -50.7318636 -0.507319E+02  0.756E-02    8.34       0.0  T
   2    -50.7318649 -0.130073E-05  0.572E-02    8.34       1.0  T
   3    -50.7318666 -0.163274E-05  0.651E-03    8.34       3.0  T
   4    -50.7318667 -0.988597E-07  0.198E-03    8.34       9.9  T
   5    -50.7318667 -0.512909E-08  0.920E-04    8.34      21.3  T
   6    -50.7318667 -0.140216E-08  0.402E-04    8.34      48.7  T
speedup  0.96
cpu  time for SCC    0.00 s
wall time for SCC    0.01 s
speedup  0.97
cpu  time for grad    0.01 s
wall time for grad    0.01 s
 E :    -50.44305187  G :  0.005228    pred/act E change: -0.158D-04 -0.224D-04
Maxdispl :   0.0361   ||displ|| :   0.0898   Lambda : -0.415D-04
Largest |displ|/coords:  0.0361 (   3)  0.0355 (   9)  0.0337 (   2)
................................................................................
.............................. CYCLE   63 ......................................
................................................................................
   1    -50.7328643 -0.507329E+02  0.475E-02    8.36       0.0  T
   2    -50.7328648 -0.544441E-06  0.352E-02    8.36       1.0  T
   3    -50.7328652 -0.357220E-06  0.496E-03    8.35       4.0  T
   4    -50.7328652 -0.638637E-07  0.168E-03    8.35      11.6  T
   5    -50.7328652 -0.393630E-08  0.512E-04    8.35      38.3  T
speedup  0.91
cpu  time for SCC    0.00 s
wall time for SCC    0.00 s
speedup  0.98
cpu  time for grad    0.01 s
wall time for grad    0.01 s
 E :    -50.44307439  G :  0.003162    pred/act E change: -0.191D-04 -0.225D-04
Maxdispl :   0.1886   ||displ|| :   0.2513   Lambda : -0.455D-04
Largest |displ|/coords:  0.1886 (   2)  0.1097 (   1)  0.0756 (   3)
................................................................................
.............................. CYCLE   64 ......................................
................................................................................
   1    -50.7323391 -0.507323E+02  0.906E-02    8.36       0.0  T
   2    -50.7323407 -0.155074E-05  0.685E-02    8.36       1.0  T
   3    -50.7323428 -0.209856E-05  0.684E-03    8.35       2.9  T
   4    -50.7323429 -0.845614E-07  0.269E-03    8.35       7.3  T
   5    -50.7323429 -0.951541E-08  0.969E-04    8.35      20.2  T
   6    -50.7323429 -0.131691E-08  0.532E-04    8.35      36.9  T
speedup  1.13
cpu  time for SCC    0.01 s
wall time for SCC    0.01 s
speedup  1.03
cpu  time for grad    0.01 s
wall time for grad    0.01 s
 E :    -50.44310965  G :  0.004491    pred/act E change: -0.209D-04 -0.353D-04
Maxdispl :   0.2510   ||displ|| :   0.3490   Lambda : -0.734D-04
Largest |displ|/coords:  0.2510 (   2)  0.1343 (   1)  0.1203 (   3)
................................................................................
.............................. CYCLE   65 ......................................
................................................................................
   1    -50.7316110 -0.507316E+02  0.119E-01    8.34       0.0  T
   2    -50.7316135 -0.248775E-05  0.900E-02    8.34       1.0  T
   3    -50.7316169 -0.332414E-05  0.838E-03    8.34       2.3  T
   4    -50.7316170 -0.137048E-06  0.373E-03    8.34       5.3  T
   5    -50.7316170 -0.169881E-07  0.120E-03    8.34      16.3  T
   6    -50.7316170 -0.221245E-08  0.690E-04    8.34      28.4  T
speedup  0.96
cpu  time for SCC    0.00 s
wall time for SCC    0.01 s
speedup  1.01
cpu  time for grad    0.01 s
wall time for grad    0.01 s
 E :    -50.44316170  G :  0.004989    pred/act E change: -0.242D-04 -0.521D-04
Maxdispl :   0.1548   ||displ|| :   0.2375   Lambda : -0.638D-04
Largest |displ|/coords:  0.1548 (   2)  0.0963 (   3)  0.0771 (   9)
................................................................................
.............................. CYCLE   66 ......................................
................................................................................
   1    -50.7318866 -0.507319E+02  0.779E-02    8.33       0.0  T
   2    -50.7318876 -0.100436E-05  0.585E-02    8.33       1.0  T
   3    -50.7318887 -0.111904E-05  0.538E-03    8.33       3.6  T
   4    -50.7318888 -0.854262E-07  0.238E-03    8.33       8.2  T
   5    -50.7318888 -0.623340E-08  0.812E-04    8.33      24.2  T
speedup  1.16
cpu  time for SCC    0.00 s
wall time for SCC    0.00 s
speedup  0.99
cpu  time for grad    0.01 s
[...]
speedup  1.11
cpu  time for SCC    0.00 s
wall time for SCC    0.00 s
speedup  1.01
cpu  time for grad    0.01 s
wall time for grad    0.01 s
 E :    -50.44804282  G :  0.000808    pred/act E change: -0.183D-05 -0.210D-05
Maxdispl :   0.0251   ||displ|| :   0.0393   Lambda : -0.211D-05
Largest |displ|/coords:  0.0251 (   6)  0.0161 (   3)  0.0136 (   2)
................................................................................
.............................. CYCLE  144 ......................................
................................................................................
   1    -50.7327195 -0.507327E+02  0.182E-02    8.50       0.0  T
   2    -50.7327196 -0.371283E-07  0.137E-02    8.50       1.4  T
   3    -50.7327196 -0.391644E-07  0.111E-03    8.50      17.7  T
   4    -50.7327196 -0.296377E-08  0.421E-04    8.50      46.5  T
   5    -50.7327196 -0.185530E-09  0.140E-04    8.50     139.8  T
speedup  0.91
cpu  time for SCC    0.00 s
wall time for SCC    0.00 s
speedup  1.02
cpu  time for grad    0.01 s
wall time for grad    0.01 s
 E :    -50.44804424  G :  0.000637    pred/act E change: -0.181D-05 -0.143D-05
Maxdispl :   0.0274   ||displ|| :   0.0468   Lambda : -0.184D-05
Largest |displ|/coords:  0.0274 (   6)  0.0191 (   2)  0.0166 (   3)
................................................................................
.............................. CYCLE  145 ......................................
................................................................................
   1    -50.7327138 -0.507327E+02  0.229E-02    8.50       0.0  T
   2    -50.7327138 -0.616875E-07  0.172E-02    8.50       1.1  T
   3    -50.7327139 -0.528029E-07  0.151E-03    8.50      13.0  T
   4    -50.7327139 -0.703353E-08  0.528E-04    8.50      37.1  T
   5    -50.7327139 -0.244306E-09  0.177E-04    8.50     110.9  T
speedup  1.14
cpu  time for SCC    0.00 s
wall time for SCC    0.00 s
speedup  1.01
cpu  time for grad    0.01 s
wall time for grad    0.01 s
 E :    -50.44804544  G :  0.000380    pred/act E change: -0.106D-05 -0.120D-05
Maxdispl :   0.0106   ||displ|| :   0.0235   Lambda : -0.821D-06
Largest |displ|/coords:  0.0106 (   6)  0.0104 (   2)  0.0101 (   7)
................................................................................
.............................. CYCLE  146 ......................................
................................................................................
   1    -50.7327514 -0.507328E+02  0.107E-02    8.50       0.0  T
   2    -50.7327514 -0.158301E-07  0.795E-03    8.50       2.5  T
   3    -50.7327514 -0.118782E-07  0.896E-04    8.50      21.9  T
   4    -50.7327514 -0.203592E-08  0.307E-04    8.50      64.0  T
speedup  1.11
cpu  time for SCC    0.00 s
wall time for SCC    0.00 s
speedup  1.00
cpu  time for grad    0.01 s
wall time for grad    0.01 s
 E :    -50.44804591  G :  0.000366    pred/act E change: -0.920D-06 -0.470D-06
Maxdispl :   0.0200   ||displ|| :   0.0357   Lambda : -0.523D-06
Largest |displ|/coords:  0.0200 (   6)  0.0138 (   1)  0.0114 (   2)

generating ANC from model Hessian ...
 Shifting diagonal of input Hessian by   4.941828235735565E-003
 Lowest  eigenvalues of input Hessian
   -0.000000   -0.000000   -0.000000   -0.000000    0.000000    0.000000
    0.005000    0.005055    0.005288    0.005497    0.006167    0.006327
    0.006896    0.007136    0.008453    0.008806    0.009672    0.010373
 Highest eigenvalues
    1.394752    1.399306    1.417247    2.706280    3.277899    3.733109
 
cpu  time for ANC gen    0.01 s
wall time for ANC gen    0.02 s
................................................................................
.............................. CYCLE  147 ......................................
................................................................................
   1    -50.7326354 -0.507326E+02  0.175E-02    8.50       0.0  T
   2    -50.7326355 -0.346081E-07  0.132E-02    8.50       1.5  T
   3    -50.7326355 -0.274532E-07  0.108E-03    8.50      18.2  T
   4    -50.7326355 -0.426044E-08  0.432E-04    8.50      45.4  T
   5    -50.7326355 -0.142137E-09  0.126E-04    8.50     156.1  T
speedup  1.14
cpu  time for SCC    0.00 s
wall time for SCC    0.00 s
speedup  1.02
cpu  time for grad    0.01 s
wall time for grad    0.01 s
 E :    -50.44804613  G :  0.000427    pred/act E change:  0.000D+00 -0.219D-06
Maxdispl :   0.0021   ||displ|| :   0.0047   Lambda : -0.357D-06
Largest |displ|/coords:  0.0021 (   4)  0.0020 (   5)  0.0019 (   1)
................................................................................
.............................. CYCLE  148 ......................................
................................................................................
   1    -50.7326915 -0.507327E+02  0.325E-03    8.50       0.0  T
   2    -50.7326915 -0.282436E-08  0.245E-03    8.50       8.0  T
   3    -50.7326915 -0.250304E-08  0.318E-04    8.50      61.6  T
   4    -50.7326915 -0.380993E-09  0.106E-04    8.50     185.2  T
speedup  1.11
cpu  time for SCC    0.00 s
wall time for SCC    0.00 s
speedup  1.00
cpu  time for grad    0.01 s
wall time for grad    0.01 s
 E :    -50.44804638  G :  0.000191    pred/act E change:  0.000D+00 -0.255D-06
Maxdispl :   0.0035   ||displ|| :   0.0073   Lambda : -0.299D-06
Largest |displ|/coords:  0.0035 (   1)  0.0031 (   7)  0.0026 (   3)
................................................................................
.............................. CYCLE  149 ......................................
................................................................................
   1    -50.7327466 -0.507327E+02  0.411E-03    8.50       0.0  T
   2    -50.7327466 -0.409277E-08  0.308E-03    8.50       6.4  T
   3    -50.7327466 -0.299963E-08  0.436E-04    8.50      44.9  T
   4    -50.7327466 -0.573991E-09  0.115E-04    8.50     171.0  T
speedup  0.86
cpu  time for SCC    0.00 s
wall time for SCC    0.00 s
speedup  1.01
cpu  time for grad    0.01 s
wall time for grad    0.01 s
 E :    -50.44804657  G :  0.000184    pred/act E change: -0.178D-06 -0.189D-06
Maxdispl :   0.0038   ||displ|| :   0.0071   Lambda : -0.148D-06
Largest |displ|/coords:  0.0038 (   1)  0.0032 (   3)  0.0031 (   7)
................................................................................
.............................. CYCLE  150 ......................................
................................................................................
   1    -50.7327527 -0.507328E+02  0.363E-03    8.50       0.0  T
   2    -50.7327527 -0.163004E-08  0.273E-03    8.50       7.2  T
   3    -50.7327527 -0.185772E-08  0.272E-04    8.50      72.1  T
   4    -50.7327527 -0.123514E-09  0.799E-05    8.50     245.4  T
speedup  1.11
cpu  time for SCC    0.00 s
wall time for SCC    0.00 s
speedup  1.00
cpu  time for grad    0.01 s
wall time for grad    0.01 s
 E :    -50.44804668  G :  0.000207    pred/act E change: -0.149D-06 -0.109D-06
Maxdispl :   0.0081   ||displ|| :   0.0139   Lambda : -0.234D-06
Largest |displ|/coords:  0.0081 (   1)  0.0062 (   7)  0.0059 (   3)
................................................................................
.............................. CYCLE  151 ......................................
................................................................................
   1    -50.7327405 -0.507327E+02  0.657E-03    8.50       0.0  T
   2    -50.7327405 -0.460269E-08  0.495E-03    8.50       4.0  T
   3    -50.7327406 -0.578527E-08  0.450E-04    8.50      43.6  T
   4    -50.7327406 -0.209056E-09  0.106E-04    8.50     184.6  T
speedup  1.11
cpu  time for SCC    0.00 s
wall time for SCC    0.00 s
speedup  1.00
cpu  time for grad    0.01 s
wall time for grad    0.01 s
 E :    -50.44804682  G :  0.000194    pred/act E change: -0.741D-07 -0.137D-06
Maxdispl :   0.0053   ||displ|| :   0.0087   Lambda : -0.131D-06
Largest |displ|/coords:  0.0053 (   1)  0.0045 (   3)  0.0035 (   7)
................................................................................
.............................. CYCLE  152 ......................................
................................................................................
   1    -50.7327257 -0.507327E+02  0.369E-03    8.50       0.0  T
   2    -50.7327257 -0.158430E-08  0.277E-03    8.50       7.1  T
   3    -50.7327257 -0.176232E-08  0.240E-04    8.50      81.8  T
   4    -50.7327257 -0.115122E-09  0.773E-05    8.50     253.6  T
speedup  1.05
cpu  time for SCC    0.00 s
wall time for SCC    0.00 s
speedup  0.98
cpu  time for grad    0.01 s
wall time for grad    0.01 s
 E :    -50.44804690  G :  0.000144    pred/act E change: -0.117D-06 -0.801D-07
Maxdispl :   0.0044   ||displ|| :   0.0067   Lambda : -0.908D-07
Largest |displ|/coords:  0.0044 (   1)  0.0034 (   3)  0.0021 (   7)

   *** GEOMETRY OPTIMIZATION CONVERGED AFTER 152 ITERATIONS ***

------------------------------------------------------------------------
 total energy gain (kcal):     -0.0005
------------------------------------------------------------------------
================
 final structure:
================
$coord
       -1.53254493530585       -1.66714714699673       -2.72867365747731      S 
       -0.91350436303516        0.85307729217350       -1.86874076159179      O 
       -0.97190516994766       -2.13321471782340       -5.32252252765143      O 
       -0.21393030576411       -3.56037978105590       -0.97543474310665      O 
       -4.36084029578840       -2.18029484891943       -2.22943902806206      O 
       -4.53874069485208       -2.34530210601111       -0.35360335667110      H 
        1.73325991231485       -2.90082566474248       -0.62215685037778      H 
        3.06276637008990        1.37460518322619        3.58477683053097      O 
        1.25904271285707        1.39365815857160        3.94692810382914      H 
        3.87859436041063        0.67826618759383        5.04553073835188      H 
       -2.03556801208292        1.51192485464678        4.71924835797200      O 
       -2.48627531309845        2.69000092592831        3.31929443906581      H 
       -2.92971491253749        2.09064419854979        6.18486029295534      H 
       -2.95527979449069        4.42866148740040        0.84699532713211      O 
       -2.37127057764966        3.12550701133356       -0.34625073000194      H 
       -1.79433760782924        5.80809624624713        0.65706992456898      H 
        4.02508633815811       -1.82570036981893       -0.26699862414601      O 
        4.23717948847105       -0.94918580995245       -1.94026247936963      H 
        3.73513495470475       -0.50041668986832        1.00502093113945      H 
       -3.89814326693369       -2.79494042875580        2.58801676701823      O 
       -3.27995402612596       -1.26093534556198        3.41653627039451      H 
       -2.42096603283158       -3.78351060298563        2.18153850236792      H 
        3.88079745253976        0.29173304379547       -4.76667392054003      N 
        5.18843569148379        0.13630055815051       -6.15492753325155      H 
        3.41932624179296        2.13909719717544       -4.58278231451882      H 
        2.28335176660641       -0.61971886996711       -5.33734993966594      H 
$end
 
 Bond Distances (Angstroems)
 ---------------------------
S1-O2=1.4467         S1-O3=1.4258         S1-O4=1.5334         S1-O5=1.5439         O2-S1=1.4467         O3-S1=1.4258         
O4-S1=1.5334         O4-H7=1.1039         O5-S1=1.5439         O5-H6=1.0009         H6-O5=1.0009         H7-O4=1.1039         
O8-H9=0.9736         O8-H10=0.9590        H9-O8=0.9736         H10-O8=0.9590        O11-H12=0.9972       O11-H13=0.9587       
H12-O11=0.9972       H13-O11=0.9587       O14-H15=0.9848       O14-H16=0.9594       H15-O14=0.9848       H16-O14=0.9594       
O17-H18=1.0059       O17-H19=0.9841       H18-O17=1.0059       H19-O17=0.9841       O20-H21=0.9789       O20-H22=0.9649       
H21-O20=0.9789       H22-O20=0.9649       N23-H24=1.0126       N23-H25=1.0123       N23-H26=1.0190       H24-N23=1.0126       
H25-N23=1.0123       H26-N23=1.0190       
 N  H  Rav=1.0146 sigma=0.0031  Rmin=1.0123  Rmax=1.0190     3
 O  H  Rav=0.9893 sigma=0.0380  Rmin=0.9587  Rmax=1.1039    12
 S  O  Rav=1.4875 sigma=0.0519  Rmin=1.4258  Rmax=1.5439     4
 
 selected bond angles (degree)
 --------------------
O3-S1-O2=114.53                O4-S1-O2=108.00                O4-S1-O3=112.01                O5-S1-O2=109.14                
O5-S1-O3=109.63                O5-S1-O4=102.87                H7-O4-S1=108.70                H6-O5-S1=106.04                
H10-O8-H9=106.66               
 
 selected dihedral angles (degree)
 ---------------------------------
H7-O4-S1-O2=316.66            H7-O4-S1-O3= 83.68            H7-O4-S1-O5=201.33            H6-O5-S1-O2=289.35            
H6-O5-S1-O3=163.16            H6-O5-S1-O4= 43.85            
 
 CMA Distance (Angstroems)
 ---------------------------
R(CMA):  2.5369

========================================================================
 FINAL SINGLEPOINT CALCULATION ON OPTIMIZED GEOMETRY
========================================================================

 Ncao       : 65
 Nao        : 64
 Nshell     : 38
 Nel        : 80
 T(el)      :   300.0
 intcut     :    25.0
 scfconv/Eh :  0.100E-05
   qconv/e  :  0.100E-03
 intneglect :  0.100E-07
 broydamp   :      0.250
 iter      E             dE          RMSdq      gap      omega  full diag
   1    -50.7327257 -0.507327E+02  0.253E-05    8.50       0.0  T
   2    -50.7327257 -0.547118E-12  0.157E-05    8.50    1248.7  T
   3    -50.7327257 -0.291323E-12  0.408E-06    8.50    4806.1  T
speedup  1.11
cpu  time for SCC    0.00 s
wall time for SCC    0.00 s

   *** convergence criteria satisfied after 3 iterations ***

          eigenvalues
 #    :          28         29         30         31         32         33         34         35
 occ. :        2.000      2.000      2.000      2.000      2.000      2.000      2.000      2.000
 eps  :       -13.731    -13.460    -12.767    -12.644    -12.482    -12.411    -12.359    -12.294
 #    :          36         37         38         39         40         41         42         43
 occ. :        2.000      2.000      2.000      2.000      2.000      0.000      0.000      0.000
 eps  :       -12.247    -12.183    -12.153    -11.900    -11.111     -2.606     -0.565     -0.182
 #    :          44         45         46         47         48         49         50         51
 occ. :        0.000      0.000      0.000      0.000      0.000      0.000      0.000      0.000
 eps  :         0.039      0.894      1.399      2.107      2.499      3.239      4.046      5.322


   #   Z            q   n(s)   n(p)   n(d)      C6AA      α(0)
   1  16 S      1.697  1.583  1.777  0.943    88.837    15.864
   2   8 O     -0.734  1.758  4.976  0.000    29.663     7.302
   3   8 O     -0.677  1.757  4.920  0.000    28.094     7.106
   4   8 O     -0.675  1.772  4.903  0.000    27.066     7.021
   5   8 O     -0.599  1.753  4.847  0.000    25.140     6.769
   6   1 H      0.389  0.611  0.000  0.000     0.500     1.109
   7   1 H      0.392  0.608  0.000  0.000     0.489     1.094
   8   8 O     -0.601  1.745  4.856  0.000    25.216     6.777
   9   1 H      0.328  0.672  0.000  0.000     0.643     1.259
  10   1 H      0.288  0.712  0.000  0.000     0.757     1.367
  11   8 O     -0.631  1.753  4.879  0.000    25.952     6.875
  12   1 H      0.343  0.657  0.000  0.000     0.606     1.223
  13   1 H      0.291  0.709  0.000  0.000     0.750     1.360
  14   8 O     -0.606  1.747  4.859  0.000    25.324     6.792
  15   1 H      0.339  0.661  0.000  0.000     0.616     1.232
  16   1 H      0.292  0.708  0.000  0.000     0.746     1.357
  17   8 O     -0.597  1.758  4.839  0.000    25.045     6.758
  18   1 H      0.331  0.669  0.000  0.000     0.633     1.249
  19   1 H      0.343  0.657  0.000  0.000     0.604     1.221
  20   8 O     -0.613  1.753  4.860  0.000    25.508     6.817
  21   1 H      0.331  0.669  0.000  0.000     0.635     1.252
  22   1 H      0.310  0.690  0.000  0.000     0.693     1.307
  23   7 N     -0.456  1.368  4.088  0.000    32.000     8.401
  24   1 H      0.164  0.836  0.000  0.000     1.308     1.792
  25   1 H      0.165  0.835  0.000  0.000     1.302     1.787
  26   1 H      0.188  0.812  0.000  0.000     1.169     1.694

 Mol. C6AA /au·bohr⁶  :       5453.656686
 Mol. C8AA /au·bohr⁸  :     117775.597476
 Mol. α(0) /au        :        106.785983

 
 Wiberg/Mayer (AO) data. WBOs > 0.1 written file <wbo>
 largest (>0.05) Wiberg bond orders for each atom
           total WBO             WBO to atom ...
     1  S   4.834    O    3 1.438    O    2 1.330    O    4 1.022    O    5 1.002
     2  O   1.716    S    1 1.330    O    3 0.119    O    4 0.092    O    5 0.087    H   15 0.062
     3  O   1.784    S    1 1.438    O    2 0.119    O    4 0.095    O    5 0.075
     4  O   1.909    S    1 1.022    H    7 0.539    O    3 0.095    O    2 0.092    O   17 0.075    O    5 0.058
     5  O   1.991    S    1 1.002    H    6 0.718    O    2 0.087    O    3 0.075    O    4 0.058
     6  H   0.849    O    5 0.718    O   20 0.113
     7  H   0.846    O    4 0.539    O   17 0.291
     8  O   1.877    H   10 0.915    H    9 0.848    H   19 0.063
     9  H   0.892    O    8 0.848
    10  H   0.917    O    8 0.915
    11  O   1.882    H   13 0.908    H   12 0.787    H   21 0.056
    12  H   0.883    O   11 0.787    O   14 0.093
    13  H   0.916    O   11 0.908
    14  O   1.901    H   16 0.912    H   15 0.819    H   12 0.093
    15  H   0.885    O   14 0.819    O    2 0.062
    16  H   0.915    O   14 0.912
    17  O   2.051    H   19 0.817    H   18 0.773    H    7 0.291    O    4 0.075    N   23 0.050
    18  H   0.890    O   17 0.773    N   23 0.115
    19  H   0.882    O   17 0.817    O    8 0.063
    20  O   1.912    H   22 0.887    H   21 0.832    H    6 0.113
    21  H   0.891    O   20 0.832    O   11 0.056
    22  H   0.904    O   20 0.887
    23  N   3.061    H   25 0.970    H   24 0.969    H   26 0.934    H   18 0.115    O   17 0.050
    24  H   0.973    N   23 0.969
    25  H   0.973    N   23 0.970
    26  H   0.965    N   23 0.934
 MOs/occ written to file <molden.input>
 
molecular dipole:
                 x           y           z       tot (Debye)
 q only:        1.051       0.976       1.554
   full:        0.973       1.319       1.522       5.685
molecular quadrupole (traceless):
                xx          xy          yy          xz          yz          zz
 q only:       -2.106      -1.518      -0.829      -7.446      -3.465       2.935
  q+dip:       -7.991      -0.552      -0.797      -8.065      -3.660       8.788
   full:       -7.631      -0.586      -1.061      -8.370      -3.659       8.692

SCC energy    :     -50.7327257
rep           :       0.2843085
ES            :       0.2340304
AES           :      -0.0539013
AXC           :      -0.0072337
disp          :      -0.0186177
XB            :       0.0000000
fix           :       0.0000000
total E       :     -50.4480469
atomizationE  :       4.9783511     3123.96
(atE without considering molecular charge,
 total energy contains solvation terms)
H-L gap (eV)  :          8.5047
optimized geometry written to: xtbopt.xyz


------------------------------------------------------------------------
 * finished run on 2019/09/16 at 11:31:31.188     
------------------------------------------------------------------------
 total:
 * wall-time:     0 d,  0 h,  0 min,  3.195 sec
 *  cpu-time:     0 d,  0 h,  0 min,  3.174 sec
 * ratio c/w:     0.993 speedup
 SCF:
 * wall-time:     0 d,  0 h,  0 min,  0.143 sec
 *  cpu-time:     0 d,  0 h,  0 min,  0.140 sec
 * ratio c/w:     0.976 speedup
 ANC optimizer:
 * wall-time:     0 d,  0 h,  0 min,  3.028 sec
 *  cpu-time:     0 d,  0 h,  0 min,  3.012 sec
 * ratio c/w:     0.995 speedup

