      -----------------------------------------------------------      
     |                   =====================                   |     
     |                           x T B                           |     
     |                   =====================                   |     
     |                         S. Grimme                         |     
     |          Mulliken Center for Theoretical Chemistry        |     
     |                    University of Bonn                     |     
     |                 Version 6.0.1 (SAW181210)                 |     
      -----------------------------------------------------------      

   This program is distributed in the hope that it will be useful,
   but WITHOUT ANY WARRANTY; without even the implied warranty of
   MERCHANTABILITY or FITNESS FOR A PARTICULAR PURPOSE.
   
   FOR NON-COMMERCIAL, ACADEMIA USE ONLY.
   
   Cite this work as:
   S. Grimme, C. Bannwarth, P. Shushkov, J. Comput. Theory Chem., 2017,
   13, 1989-2009.
   C. Bannwarth, S. Ehlert and S. Grimme., ChemRxiv, 2018, preprint.
   http://doi.org/10.26434/chemrxiv.7246238.v1
   
   for sTDA-xTB:
   S. Grimme and C. Bannwarth, J. Chem. Phys., 2016, 145, 054103.
   
   in the mass-spec context:
   V. Asgeirsson, C. Bauer and S. Grimme, Chem. Sci., 2017, 8, 4879.
   
   if GBSA is used:
   P. Shushkov, F. März and S. Grimme, unpublished.
   
   for ANC optimizer:
   S. Grimme, unpublished.
   Rational Function algorithm used in ANCopt:
   F. Eckert, P. Pulay, H.-J. Werner, J. Comput. Chem., 1997, 18, 1473.
   
   with help from (in alphabetical order)
   C. Bannwarth, F. Bohle, G. Brandenburg, E. Caldeweyher, M. Checinski,
   S. Dohm, S. Ehlert, S. Ehrlich, F. März, H. Neugebauer, J. Pisarek,
   P. Pracht, P. Shushkov, and S. Spicher.
   
 * started run on 2019/09/16 at 12:00:46.974     
========================================================================
 # omp threads = 1
========================================================================
number of atoms            : 26
number of electrons        : 80
charge                     : 0
spin                       : .0
first test random number   : .1483

########################################################################
# WARNING! Please study the warnings concerning your input carefully
#  - XTBPATH is not set, using XTBHOME instead
#  - the use of '-opt' is discouraged, please use '--opt' next time
#  - the use of '-chrg' is discouraged, please use '--chrg' next time
#  - the use of '-uhf' is discouraged, please use '--uhf' next time
########################################################################

           ------------------------------------------------- 
          |                 G F N 2 - x T B                 |
          | Geometry, Frequencies, Noncovalent interactions |
          |            JCTC 2018 parametrisation            |
           ------------------------------------------------- 
      method parameters     
 k(s)        :  1.8500
 k(p)        :  2.2300
 k(d)        :  2.2300
 k(f)        :  2.0000
 kEN (H0ij)  : -2.0000
 D4 a1       :  0.5200
 D4 a2       :  5.0000
 D4 s6       :  1.0000
 D4 s8       :  2.7000
 D4 s9       :  5.0000
 alphaj      :  2.0000


            Z     q(EN)     CN     RAES       Cart. coordinates
     1  S   6.0    0.58    4.27    4.19    -0.31886     3.91196    -2.45487
     2  O   6.0   -0.32    1.16    1.80    -1.80567     3.76686    -0.14192
     3  O   6.0   -0.27    1.09    1.80     0.49967     6.27302    -3.54713
     4  O   6.0   -0.25    2.06    1.83     2.09164     2.01230    -2.09958
     5  O   6.0   -0.23    2.05    1.83    -1.69652     2.39873    -4.70873
     6  H   1.0    0.16    1.19    1.46    -2.42230     0.84435    -4.04277
     7  H   1.0    0.16    1.19    1.46     2.53539     2.02491    -0.31373
     8  O   6.0   -0.29    2.04    1.83    -2.46750    -2.39011     2.37013
     9  H   1.0    0.16    1.02    1.43    -2.45436    -0.99310     3.53752
    10  H   1.0    0.16    1.03    1.43    -0.82523    -3.16092     2.52321
    11  O   6.0   -0.31    2.06    1.83    -1.86466     2.20699     4.69110
    12  H   1.0    0.17    1.03    1.43    -2.19371     2.89983     3.03995
    13  H   1.0    0.15    0.97    1.43    -3.05808     3.01907     5.80055
    14  O   6.0   -0.30    2.04    1.83    -3.43224    -1.75321    -2.49181
    15  H   1.0    0.15    0.97    1.43    -4.78876    -2.88926    -2.92057
    16  H   1.0    0.17    1.05    1.44    -3.14119    -2.00099    -0.71178
    17  O   6.0   -0.31    2.06    1.83     2.90843     1.85477     2.90266
    18  H   1.0    0.15    0.97    1.43     4.14252     2.42162     4.11522
    19  H   1.0    0.16    1.03    1.43     1.31741     1.87986     3.78734
    20  O   6.0   -0.29    2.01    1.83     2.47248    -3.35939     2.19321
    21  H   1.0    0.15    1.04    1.43     2.68594    -3.76725     0.43176
    22  H   1.0    0.15    1.01    1.43     3.12631    -1.67043     2.37898
    23  N   5.0   -0.22    3.00    1.92     2.34547    -3.58150    -3.08638
    24  H   1.0    0.11    0.99    1.43     3.12307    -4.51612    -4.58066
    25  H   1.0    0.12    1.00    1.43     2.78263    -1.72348    -3.34660
    26  H   1.0    0.11    0.99    1.43     0.43813    -3.70854    -3.32507

  Z AO/shell   Hii/eV     exponent
  1     Wed Apr 25 08:07:45 CEST 2018   EN: 2.200 GM2: 0.406  GM3: 0.0800  RAES: 1.40
     1s    -10.707211    1.230000
  7     Wed Apr 25 08:07:45 CEST 2018   EN: 3.040 GM2: 0.461  GM3:-0.0640  RAES: 1.90
     2s    -16.686243    2.339881
     2p    -12.523956    2.014332
  8     Wed Apr 25 08:07:45 CEST 2018   EN: 3.440 GM2: 0.452  GM3:-0.0517  RAES: 1.80
     2s    -20.229985    2.439742
     2p    -15.503117    2.137023
 16     Tue Apr 24 11:44:34 CEST 2018   EN: 2.580 GM2: 0.340  GM3:-0.0502  RAES: 3.10
     3s    -20.029654    1.981333
     3p    -11.377694    2.025643
     3d     -0.420282    1.702555
 no old-style atom pair restraining (fixing) potential

molecular fragmentation (1/2 indicates fragments):
11111112222222222222222222
# atoms in fragment 1/2:     7    19
 fragment masses (1/2) :       98.07      107.11
CMA distance (Bohr)    :   6.050
constraining FC (au)   :  0.0500
           ------------------------------------------------- 
          |        Self-Consistent Charge Iterations        |
           ------------------------------------------------- 

 Ncao       : 65
 Nao        : 64
 Nshell     : 38
 Nel        : 80
 T(el)      :   300.0
 intcut     :    25.0
 scfconv/Eh :  0.100E-05
   qconv/e  :  0.100E-03
 intneglect :  0.100E-07
 broydamp   :      0.250
 iter      E             dE          RMSdq      gap      omega  full diag
   1    -50.6363435 -0.506363E+02  0.698E+00    7.92       0.0  T
   2    -50.6854597 -0.491162E-01  0.490E+00    7.06       1.0  T
   3    -50.7223697 -0.369100E-01  0.117E+00    5.56       1.0  T
   4    -50.7263681 -0.399840E-02  0.622E-01    5.80       1.0  T
   5    -50.7276143 -0.124626E-02  0.275E-01    5.81       1.0  T
   6    -50.7279688 -0.354483E-03  0.158E-01    5.76       1.0  T
   7    -50.7281185 -0.149695E-03  0.564E-02    5.73       1.0  T
   8    -50.7281400 -0.214542E-04  0.227E-02    5.74       1.0  T
   9    -50.7281424 -0.243766E-05  0.125E-02    5.75       1.6  T
  10    -50.7281432 -0.838618E-06  0.282E-03    5.76       7.0  T
  11    -50.7281433 -0.224785E-07  0.117E-03    5.76      16.7  T
  12    -50.7281433 -0.655358E-08  0.371E-04    5.76      52.9  T
  13    -50.7281433 -0.678980E-09  0.175E-04    5.76     112.3  T
speedup  0.99
cpu  time for SCC    0.01 s
wall time for SCC    0.02 s

   *** convergence criteria satisfied after 13 iterations ***

          eigenvalues
 #    :          28         29         30         31         32         33         34         35
 occ. :        2.000      2.000      2.000      2.000      2.000      2.000      2.000      2.000
 eps  :       -13.382    -13.259    -13.180    -12.836    -12.820    -12.737    -12.631    -12.576
 #    :          36         37         38         39         40         41         42         43
 occ. :        2.000      2.000      2.000      2.000      2.000      0.000      0.000      0.000
 eps  :       -12.406    -12.173    -11.527    -11.332    -10.695     -4.939     -2.170     -1.172
 #    :          44         45         46         47         48         49         50         51
 occ. :        0.000      0.000      0.000      0.000      0.000      0.000      0.000      0.000
 eps  :        -0.107      0.566      1.165      1.879      2.696      3.848      4.150      5.268


   #   Z            q   n(s)   n(p)   n(d)      C6AA      α(0)
   1  16 S      1.639  1.628  1.804  0.928    90.157    15.981
   2   8 O     -0.675  1.767  4.909  0.000    28.047     7.101
   3   8 O     -0.613  1.771  4.843  0.000    26.445     6.895
   4   8 O     -0.597  1.761  4.836  0.000    25.086     6.761
   5   8 O     -0.575  1.755  4.820  0.000    24.562     6.690
   6   1 H      0.388  0.612  0.000  0.000     0.505     1.116
   7   1 H      0.381  0.619  0.000  0.000     0.520     1.131
   8   8 O     -0.644  1.750  4.894  0.000    26.276     6.918
   9   1 H      0.306  0.694  0.000  0.000     0.704     1.318
  10   1 H      0.324  0.676  0.000  0.000     0.653     1.270
  11   8 O     -0.606  1.737  4.869  0.000    25.341     6.794
  12   1 H      0.341  0.659  0.000  0.000     0.610     1.227
  13   1 H      0.294  0.706  0.000  0.000     0.738     1.349
  14   8 O     -0.633  1.744  4.889  0.000    25.994     6.881
  15   1 H      0.288  0.712  0.000  0.000     0.759     1.368
  16   1 H      0.346  0.654  0.000  0.000     0.597     1.213
  17   8 O     -0.615  1.743  4.872  0.000    25.538     6.820
  18   1 H      0.299  0.701  0.000  0.000     0.725     1.337
  19   1 H      0.347  0.653  0.000  0.000     0.596     1.213
  20   8 O     -0.624  1.747  4.877  0.000    25.770     6.851
  21   1 H      0.311  0.689  0.000  0.000     0.688     1.303
  22   1 H      0.299  0.701  0.000  0.000     0.724     1.337
  23   7 N     -0.456  1.397  4.060  0.000    32.004     8.402
  24   1 H      0.142  0.858  0.000  0.000     1.459     1.892
  25   1 H      0.170  0.830  0.000  0.000     1.275     1.769
  26   1 H      0.166  0.834  0.000  0.000     1.300     1.786

 Mol. C6AA /au·bohr⁶  :       5438.337269
 Mol. C8AA /au·bohr⁸  :     117435.199014
 Mol. α(0) /au        :        106.723138

 
 Wiberg/Mayer (AO) data. WBOs > 0.1 written file <wbo>
 largest (>0.05) Wiberg bond orders for each atom
           total WBO             WBO to atom ...
     1  S   4.781    O    3 1.491    O    2 1.381    O    5 0.972    O    4 0.906
     2  O   1.762    S    1 1.381    O    3 0.140    O    4 0.096    O    5 0.094
     3  O   1.827    S    1 1.491    O    2 0.140    O    4 0.096    O    5 0.085
     4  O   1.976    S    1 0.906    H    7 0.780    O    3 0.096    O    2 0.096    O    5 0.055
     5  O   2.009    S    1 0.972    H    6 0.766    O    2 0.094    O    3 0.085    O    4 0.055
     6  H   0.850    O    5 0.766    O   14 0.065
     7  H   0.855    O    4 0.780    O   17 0.056
     8  O   1.851    H    9 0.866    H   10 0.840    H   16 0.067
     9  H   0.907    O    8 0.866
    10  H   0.895    O    8 0.840    O   20 0.054
    11  O   1.877    H   13 0.902    H   12 0.842
    12  H   0.884    O   11 0.842
    13  H   0.913    O   11 0.902
    14  O   1.848    H   15 0.910    H   16 0.807    H    6 0.065
    15  H   0.917    O   14 0.910
    16  H   0.880    O   14 0.807    O    8 0.067
    17  O   1.880    H   18 0.902    H   19 0.834    H    7 0.056
    18  H   0.911    O   17 0.902
    19  H   0.880    O   17 0.834
    20  O   1.859    H   22 0.878    H   21 0.857    H   10 0.054
    21  H   0.903    O   20 0.857
    22  H   0.911    O   20 0.878
    23  N   2.976    H   24 0.975    H   26 0.964    H   25 0.958
    24  H   0.980    N   23 0.975
    25  H   0.971    N   23 0.958
    26  H   0.973    N   23 0.964
 MOs/occ written to file <molden.input>
 
molecular dipole:
                 x           y           z       tot (Debye)
 q only:       -0.044      -0.375       1.157
   full:       -0.222      -0.113       1.180       3.064
molecular quadrupole (traceless):
                xx          xy          yy          xz          yz          zz
 q only:        8.123       1.689     -10.900       2.469      20.541       2.777
  q+dip:        9.077       2.798     -14.385       1.716      27.077       5.309
   full:        9.183       2.880     -14.602       2.015      27.564       5.419

SCC energy    :     -50.7281433
rep           :       0.2982998
ES            :       0.2315329
AES           :      -0.0387406
AXC           :      -0.0038959
disp          :      -0.0181126
XB            :       0.0000000
fix           :       0.0000000
total E       :     -50.4294070
atomizationE  :       4.9597112     3112.27
(atE without considering molecular charge,
 total energy contains solvation terms)
H-L gap (eV)  :          5.7562
           ------------------------------------------------- 
          |                 ===============                 |
          |                   A N C O P T                   |
          |                 ===============                 |
          |          Approximate Normal Coordinate          |
          |           Rational Function Optimizer           |
           ------------------------------------------------- 
dumping coords to <xtbopt.coord> and <xtbopt.log>
 optlevel               2
 Maxcycle             520
 Maxmicro              25
 Econv         1.000000000000000E-007
 Gconv         2.000000000000000E-004
 Maxdispl       1.00000000000000     
 Hlow          5.000000000000000E-003
 S6             20.0000000000000     
 Nvar               72

generating ANC from model Hessian ...
 Shifting diagonal of input Hessian by   5.007888087823844E-003
 Lowest  eigenvalues of input Hessian
    0.005000   -0.000000   -0.000000   -0.000000   -0.000000    0.000000
    0.000000    0.005240    0.005401    0.005588    0.005735    0.006063
    0.006173    0.006722    0.006785    0.007441    0.007577    0.008021
 Highest eigenvalues
    1.420052    1.425846    1.427502    1.951748    2.767791    3.591003
 
cpu  time for ANC gen    0.02 s
wall time for ANC gen    0.02 s
................................................................................
.............................. CYCLE    1 ......................................
................................................................................
   1    -50.7281433 -0.507281E+02  0.497E-05    5.76       0.0  T
   2    -50.7281433 -0.369482E-11  0.388E-05    5.76     505.3  T
   3    -50.7281433 -0.427036E-11  0.168E-05    5.76    1167.3  T
speedup  0.71
cpu  time for SCC    0.00 s
wall time for SCC    0.00 s
speedup  0.98
cpu  time for grad    0.01 s
wall time for grad    0.01 s
 E :    -50.42940698  G :  0.086520    pred/act E change:  0.000D+00  0.272D-07
Maxdispl :   0.1254   ||displ|| :   0.3387   Lambda : -0.101D-01
Largest |displ|/coords:  0.1254 (  15)  0.1211 (  12)  0.1177 (  30)
................................................................................
.............................. CYCLE    2 ......................................
................................................................................
   1    -50.7297993 -0.507298E+02  0.476E-01    6.23       0.0  T
   2    -50.7299135 -0.114278E-03  0.358E-01    6.22       1.0  T
   3    -50.7299683 -0.547295E-04  0.656E-02    6.21       1.0  T
   4    -50.7299860 -0.177645E-04  0.263E-02    6.22       1.0  T
   5    -50.7299872 -0.122144E-05  0.569E-03    6.22       3.4  T
   6    -50.7299873 -0.472193E-07  0.320E-03    6.22       6.1  T
speedup  0.96
cpu  time for SCC    0.00 s
wall time for SCC    0.01 s
speedup  1.01
cpu  time for grad    0.01 s
wall time for grad    0.01 s
 E :    -50.43649260  G :  0.055000    pred/act E change:  0.000D+00 -0.709D-02
Maxdispl :   0.1011   ||displ|| :   0.2638   Lambda : -0.462D-02
Largest |displ|/coords:  0.1011 (  24)  0.0869 (  18)  0.0738 (  16)
................................................................................
.............................. CYCLE    3 ......................................
................................................................................
   1    -50.7401405 -0.507401E+02  0.291E-01    6.86       0.0  T
   2    -50.7401770 -0.364948E-04  0.216E-01    6.87       1.0  T
   3    -50.7401998 -0.227995E-04  0.401E-02    6.90       1.0  T
   4    -50.7402040 -0.413626E-05  0.170E-02    6.90       1.2  T
   5    -50.7402043 -0.303579E-06  0.307E-03    6.90       6.4  T
   6    -50.7402043 -0.104134E-07  0.195E-03    6.90      10.1  T
speedup  0.94
cpu  time for SCC    0.00 s
wall time for SCC    0.01 s
speedup  1.00
cpu  time for grad    0.01 s
wall time for grad    0.01 s
 E :    -50.43968905  G :  0.036949    pred/act E change: -0.563D-02 -0.320D-02
Maxdispl :   0.2472   ||displ|| :   0.4792   Lambda : -0.564D-02
Largest |displ|/coords:  0.2472 (  12)  0.1541 (  15)  0.1366 (  24)
................................................................................
.............................. CYCLE    4 ......................................
................................................................................
   1    -50.7433376 -0.507433E+02  0.568E-01    7.81       0.0  T
   2    -50.7435043 -0.166687E-03  0.427E-01    7.82       1.0  T
   3    -50.7435853 -0.809350E-04  0.732E-02    7.87       1.0  T
   4    -50.7436122 -0.269335E-04  0.342E-02    7.87       1.0  T
   5    -50.7436138 -0.161987E-05  0.629E-03    7.87       3.1  T
   6    -50.7436139 -0.605222E-07  0.424E-03    7.87       4.6  T
   7    -50.7436139 -0.280440E-07  0.139E-03    7.87      14.1  T
speedup  1.13
cpu  time for SCC    0.01 s
wall time for SCC    0.01 s
speedup  1.00
cpu  time for grad    0.01 s
wall time for grad    0.01 s
 E :    -50.44126254  G :  0.045653    pred/act E change: -0.247D-02 -0.157D-02
Maxdispl :   0.1554   ||displ|| :   0.2807   Lambda : -0.372D-02
Largest |displ|/coords:  0.1554 (  12)  0.0864 (  14)  0.0723 (  13)
................................................................................
.............................. CYCLE    5 ......................................
................................................................................
   1    -50.7482673 -0.507483E+02  0.408E-01    7.96       0.0  T
   2    -50.7483434 -0.761160E-04  0.305E-01    7.97       1.0  T
   3    -50.7483929 -0.495434E-04  0.506E-02    8.00       1.0  T
   4    -50.7484037 -0.107501E-04  0.879E-03    7.99       2.2  T
   5    -50.7484038 -0.121858E-06  0.534E-03    7.99       3.7  T
   6    -50.7484038 -0.290654E-07  0.188E-03    7.99      10.4  T
speedup  0.96
cpu  time for SCC    0.00 s
wall time for SCC    0.01 s
speedup  1.00
cpu  time for grad    0.01 s
wall time for grad    0.01 s
 E :    -50.44217420  G :  0.028627    pred/act E change: -0.347D-02 -0.912D-03
Maxdispl :   0.0913   ||displ|| :   0.2211   Lambda : -0.168D-02
Largest |displ|/coords:  0.0913 (   4)  0.0770 (  13)  0.0736 (   3)
................................................................................
.............................. CYCLE    6 ......................................
................................................................................
   1    -50.7411205 -0.507411E+02  0.222E-01    7.54       0.0  T
   2    -50.7411347 -0.142354E-04  0.166E-01    7.54       1.0  T
   3    -50.7411428 -0.811877E-05  0.254E-02    7.54       1.0  T
   4    -50.7411448 -0.193125E-05  0.111E-02    7.54       1.8  T
   5    -50.7411449 -0.125340E-06  0.183E-03    7.54      10.7  T
   6    -50.7411449 -0.429452E-08  0.120E-03    7.54      16.4  T
speedup  1.07
cpu  time for SCC    0.01 s
wall time for SCC    0.01 s
speedup  0.97
cpu  time for grad    0.01 s
wall time for grad    0.01 s
 E :    -50.44286866  G :  0.013320    pred/act E change: -0.201D-02 -0.694D-03
Maxdispl :   0.0876   ||displ|| :   0.1919   Lambda : -0.933D-03
Largest |displ|/coords:  0.0876 (  15)  0.0790 (  12)  0.0631 (  11)
................................................................................
.............................. CYCLE    7 ......................................
................................................................................
   1    -50.7387096 -0.507387E+02  0.193E-01    7.49       0.0  T
   2    -50.7387207 -0.110454E-04  0.145E-01    7.49       1.0  T
   3    -50.7387287 -0.806641E-05  0.210E-02    7.51       1.0  T
   4    -50.7387302 -0.144195E-05  0.716E-03    7.51       2.7  T
   5    -50.7387303 -0.960029E-07  0.233E-03    7.51       8.4  T
   6    -50.7387303 -0.582518E-08  0.145E-03    7.51      13.5  T
speedup  0.75
cpu  time for SCC    0.00 s
wall time for SCC    0.01 s
speedup  0.99
cpu  time for grad    0.01 s
wall time for grad    0.01 s
 E :    -50.44346115  G :  0.015211    pred/act E change: -0.880D-03 -0.592D-03
Maxdispl :   0.0944   ||displ|| :   0.2314   Lambda : -0.645D-03
Largest |displ|/coords:  0.0944 (  15)  0.0738 (  29)  0.0641 (   1)
................................................................................
.............................. CYCLE    8 ......................................
................................................................................
   1    -50.7368698 -0.507369E+02  0.204E-01    7.61       0.0  T
   2    -50.7368824 -0.126129E-04  0.153E-01    7.62       1.0  T
   3    -50.7368933 -0.109105E-04  0.220E-02    7.65       1.0  T
   4    -50.7368947 -0.143582E-05  0.107E-02    7.65       1.8  T
   5    -50.7368948 -0.123707E-06  0.254E-03    7.65       7.7  T
   6    -50.7368948 -0.578273E-08  0.161E-03    7.65      12.2  T
speedup  0.94
cpu  time for SCC    0.01 s
wall time for SCC    0.01 s
speedup  0.99
cpu  time for grad    0.01 s
wall time for grad    0.01 s
 E :    -50.44368798  G :  0.015367    pred/act E change: -0.484D-03 -0.227D-03
Maxdispl :   0.0554   ||displ|| :   0.1506   Lambda : -0.479D-03
Largest |displ|/coords:  0.0554 (   3)  0.0519 (   8)  0.0420 (  11)
................................................................................
.............................. CYCLE    9 ......................................
................................................................................
   1    -50.7384137 -0.507384E+02  0.105E-01    7.72       0.0  T
   2    -50.7384177 -0.399530E-05  0.768E-02    7.73       1.0  T
   3    -50.7384201 -0.238933E-05  0.130E-02    7.74       1.5  T
   4    -50.7384206 -0.457140E-06  0.367E-03    7.74       5.3  T
   5    -50.7384206 -0.261066E-07  0.130E-03    7.74      15.1  T
   6    -50.7384206 -0.226684E-08  0.801E-04    7.74      24.5  T
speedup  0.94
cpu  time for SCC    0.00 s
wall time for SCC    0.01 s
speedup  0.99
cpu  time for grad    0.01 s
wall time for grad    0.01 s
 E :    -50.44391165  G :  0.012962    pred/act E change: -0.340D-03 -0.224D-03
Maxdispl :   0.0676   ||displ|| :   0.1753   Lambda : -0.401D-03
Largest |displ|/coords:  0.0676 (  15)  0.0628 (  14)  0.0621 (   3)
................................................................................
.............................. CYCLE   10 ......................................
................................................................................
   1    -50.7352808 -0.507353E+02  0.176E-01    7.68       0.0  T
   2    -50.7352915 -0.106503E-04  0.132E-01    7.68       1.0  T
   3    -50.7352981 -0.666252E-05  0.193E-02    7.69       1.0  T
   4    -50.7352998 -0.164284E-05  0.568E-03    7.69       3.5  T
   5    -50.7352998 -0.565233E-07  0.217E-03    7.69       9.1  T
   6    -50.7352998 -0.435703E-08  0.123E-03    7.69      15.9  T
speedup  0.96
cpu  time for SCC    0.01 s
wall time for SCC    0.01 s
speedup  0.99
cpu  time for grad    0.01 s
wall time for grad    0.01 s
 E :    -50.44394242  G :  0.018026    pred/act E change: -0.245D-03 -0.308D-04
Maxdispl :   0.0328   ||displ|| :   0.0978   Lambda : -0.484D-03
Largest |displ|/coords:  0.0328 (  16)  0.0309 (   8)  0.0298 (   6)
................................................................................
.............................. CYCLE   11 ......................................
................................................................................
   1    -50.7375150 -0.507375E+02  0.854E-02    7.60       0.0  T
   2    -50.7375200 -0.493707E-05  0.641E-02    7.59       1.0  T
   3    -50.7375230 -0.304508E-05  0.122E-02    7.59       1.6  T
   4    -50.7375237 -0.661835E-06  0.503E-03    7.59       3.9  T
   5    -50.7375237 -0.434815E-07  0.124E-03    7.59      15.8  T
   6    -50.7375237 -0.176632E-08  0.691E-04    7.59      28.4  T
speedup  1.09
cpu  time for SCC    0.01 s
wall time for SCC    0.01 s
speedup  0.98
cpu  time for grad    0.01 s
wall time for grad    0.01 s
 E :    -50.44417368  G :  0.006323    pred/act E change: -0.207D-03 -0.231D-03
Maxdispl :   0.0871   ||displ|| :   0.1667   Lambda : -0.303D-03
Largest |displ|/coords:  0.0871 (   3)  0.0637 (  10)  0.0550 (  15)
................................................................................
.............................. CYCLE   12 ......................................
................................................................................
   1    -50.7351147 -0.507351E+02  0.168E-01    7.60       0.0  T
   2    -50.7351231 -0.838758E-05  0.126E-01    7.61       1.0  T
   3    -50.7351294 -0.624629E-05  0.161E-02    7.62       1.2  T
   4    -50.7351305 -0.117271E-05  0.336E-03    7.62       5.8  T
   5    -50.7351306 -0.859742E-08  0.199E-03    7.62       9.9  T
   6    -50.7351306 -0.600884E-08  0.562E-04    7.62      34.9  T
speedup  0.91
cpu  time for SCC    0.00 s
wall time for SCC    0.01 s
speedup  0.98
cpu  time for grad    0.01 s
wall time for grad    0.01 s
 E :    -50.44421609  G :  0.016726    pred/act E change: -0.244D-03 -0.424D-04
Maxdispl :   0.0290   ||displ|| :   0.0644   Lambda : -0.292D-03
Largest |displ|/coords:  0.0290 (   4)  0.0243 (  14)  0.0221 (   2)
................................................................................
.............................. CYCLE   13 ......................................
................................................................................
   1    -50.7374229 -0.507374E+02  0.642E-02    7.68       0.0  T
   2    -50.7374255 -0.253947E-05  0.479E-02    7.68       1.0  T
   3    -50.7374271 -0.166324E-05  0.922E-03    7.68       2.1  T
   4    -50.7374274 -0.328924E-06  0.201E-03    7.68       9.8  T
   5    -50.7374274 -0.580813E-08  0.986E-04    7.68      19.9  T
speedup  0.91
cpu  time for SCC    0.00 s
wall time for SCC    0.00 s
speedup  0.98
cpu  time for grad    0.01 s
wall time for grad    0.01 s
 E :    -50.44439940  G :  0.006374    pred/act E change: -0.156D-03 -0.183D-03
Maxdispl :   0.0847   ||displ|| :   0.1403   Lambda : -0.172D-03
Largest |displ|/coords:  0.0847 (   3)  0.0448 (  14)  0.0374 (  15)
................................................................................
.............................. CYCLE   14 ......................................
................................................................................
   1    -50.7374081 -0.507374E+02  0.120E-01    7.67       0.0  T
   2    -50.7374104 -0.225711E-05  0.909E-02    7.68       1.0  T
   3    -50.7374125 -0.210723E-05  0.874E-03    7.69       2.2  T
   4    -50.7374128 -0.263352E-06  0.319E-03    7.69       6.1  T
   5    -50.7374128 -0.988990E-08  0.108E-03    7.69      18.1  T
   6    -50.7374128 -0.125556E-08  0.576E-04    7.69      34.1  T
speedup  1.15
cpu  time for SCC    0.01 s
wall time for SCC    0.01 s
speedup  0.99
cpu  time for grad    0.01 s
wall time for grad    0.01 s
 E :    -50.44451953  G :  0.006392    pred/act E change: -0.146D-03 -0.120D-03
Maxdispl :   0.1116   ||displ|| :   0.2146   Lambda : -0.201D-03
Largest |displ|/coords:  0.1116 (   3)  0.0900 (  10)  0.0621 (  15)
................................................................................
.............................. CYCLE   15 ......................................
................................................................................
   1    -50.7382410 -0.507382E+02  0.174E-01    7.70       0.0  T
   2    -50.7382440 -0.297085E-05  0.131E-01    7.70       1.0  T
   3    -50.7382475 -0.349181E-05  0.102E-02    7.71       1.9  T
   4    -50.7382477 -0.193539E-06  0.389E-03    7.71       5.0  T
   5    -50.7382477 -0.123051E-07  0.133E-03    7.71      14.7  T
   6    -50.7382477 -0.187264E-08  0.688E-04    7.71      28.5  T
speedup  0.96
cpu  time for SCC    0.01 s
wall time for SCC    0.01 s
speedup  1.00
cpu  time for grad    0.01 s
wall time for grad    0.01 s
 E :    -50.44464901  G :  0.007980    pred/act E change: -0.878D-04 -0.129D-03
Maxdispl :   0.0954   ||displ|| :   0.1727   Lambda : -0.188D-03
Largest |displ|/coords:  0.0954 (   3)  0.0544 (   2)  0.0513 (  12)
................................................................................
.............................. CYCLE   16 ......................................
................................................................................
   1    -50.7399532 -0.507400E+02  0.131E-01    7.71       0.0  T
   2    -50.7399566 -0.339791E-05  0.985E-02    7.71       1.0  T
   3    -50.7399600 -0.341832E-05  0.113E-02    7.71       1.7  T
   4    -50.7399604 -0.332212E-06  0.355E-03    7.72       5.5  T
   5    -50.7399604 -0.153110E-07  0.133E-03    7.72      14.8  T
   6    -50.7399604 -0.159059E-08  0.675E-04    7.72      29.1  T
speedup  1.15
cpu  time for SCC    0.01 s
wall time for SCC    0.01 s
speedup  1.00
cpu  time for grad    0.01 s
wall time for grad    0.01 s
 E :    -50.44472081  G :  0.008191    pred/act E change: -0.105D-03 -0.718D-04
Maxdispl :   0.0405   ||displ|| :   0.0965   Lambda : -0.111D-03
Largest |displ|/coords:  0.0405 (  10)  0.0310 (  20)  0.0306 (   4)
................................................................................
.............................. CYCLE   17 ......................................
................................................................................
   1    -50.7391288 -0.507391E+02  0.809E-02    7.69       0.0  T
   2    -50.7391300 -0.121547E-05  0.609E-02    7.69       1.0  T
   3    -50.7391312 -0.119961E-05  0.690E-03    7.70       2.8  T
   4    -50.7391313 -0.121217E-06  0.178E-03    7.70      11.0  T
   5    -50.7391313 -0.388751E-08  0.823E-04    7.70      23.8  T
speedup  0.93
cpu  time for SCC    0.00 s
wall time for SCC    0.00 s
speedup  0.98
cpu  time for grad    0.01 s
wall time for grad    0.01 s
 E :    -50.44478040  G :  0.004477    pred/act E change: -0.965D-04 -0.596D-04
Maxdispl :   0.0357   ||displ|| :   0.0876   Lambda : -0.700D-04
Largest |displ|/coords:  0.0357 (  11)  0.0354 (   1)  0.0321 (   4)
................................................................................
.............................. CYCLE   18 ......................................
................................................................................
   1    -50.7398185 -0.507398E+02  0.595E-02    7.69       0.0  T
   2    -50.7398195 -0.973209E-06  0.447E-02    7.69       1.0  T
   3    -50.7398201 -0.655569E-06  0.568E-03    7.69       3.5  T
   4    -50.7398203 -0.142547E-06  0.251E-03    7.69       7.8  T
   5    -50.7398203 -0.857253E-08  0.693E-04    7.69      28.3  T
speedup  0.91
cpu  time for SCC    0.00 s
wall time for SCC    0.00 s
speedup  0.98
cpu  time for grad    0.01 s
wall time for grad    0.01 s
 E :    -50.44480777  G :  0.006769    pred/act E change: -0.562D-04 -0.274D-04
Maxdispl :   0.0492   ||displ|| :   0.0998   Lambda : -0.809D-04
Largest |displ|/coords:  0.0492 (   9)  0.0464 (   1)  0.0358 (   4)
................................................................................
.............................. CYCLE   19 ......................................
................................................................................
   1    -50.7395906 -0.507396E+02  0.508E-02    7.70       0.0  T
   2    -50.7395913 -0.694277E-06  0.381E-02    7.70       1.0  T
   3    -50.7395917 -0.400276E-06  0.463E-03    7.70       4.2  T
   4    -50.7395918 -0.110076E-06  0.242E-03    7.70       8.1  T
   5    -50.7395918 -0.802893E-08  0.534E-04    7.70      36.7  T
speedup  1.11
cpu  time for SCC    0.00 s
wall time for SCC    0.00 s
speedup  1.06
cpu  time for grad    0.01 s
wall time for grad    0.01 s
 E :    -50.44486460  G :  0.003853    pred/act E change: -0.353D-04 -0.568D-04
Maxdispl :   0.1004   ||displ|| :   0.2122   Lambda : -0.961D-04
Largest |displ|/coords:  0.1004 (   1)  0.0780 (   4)  0.0755 (  10)
................................................................................
.............................. CYCLE   20 ......................................
................................................................................
   1    -50.7364768 -0.507365E+02  0.128E-01    7.68       0.0  T
   2    -50.7364793 -0.250159E-05  0.964E-02    7.69       1.0  T
   3    -50.7364817 -0.234654E-05  0.912E-03    7.70       2.2  T
   4    -50.7364819 -0.285690E-06  0.360E-03    7.70       5.4  T
   5    -50.7364820 -0.141131E-07  0.129E-03    7.70      15.2  T
   6    -50.7364820 -0.248823E-08  0.754E-04    7.70      26.0  T
   7    -50.7364820 -0.948745E-09  0.171E-04    7.70     114.7  T
speedup  0.98
cpu  time for SCC    0.01 s
wall time for SCC    0.01 s
speedup  0.96
cpu  time for grad    0.01 s
wall time for grad    0.01 s
 E :    -50.44489184  G :  0.007507    pred/act E change: -0.409D-04 -0.272D-04
Maxdispl :   0.0749   ||displ|| :   0.1525   Lambda : -0.114D-03
Largest |displ|/coords:  0.0749 (   1)  0.0534 (   5)  0.0492 (   4)
................................................................................
.............................. CYCLE   21 ......................................
................................................................................
   1    -50.7390298 -0.507390E+02  0.759E-02    7.70       0.0  T
   2    -50.7390321 -0.227297E-05  0.562E-02    7.69       1.0  T
   3    -50.7390335 -0.144899E-05  0.923E-03    7.69       2.1  T
   4    -50.7390338 -0.279167E-06  0.224E-03    7.69       8.8  T
   5    -50.7390338 -0.626018E-08  0.954E-04    7.69      20.6  T
speedup  0.91
cpu  time for SCC    0.00 s
wall time for SCC    0.00 s
speedup  0.98
cpu  time for grad    0.01 s
wall time for grad    0.01 s
 E :    -50.44491148  G :  0.006727    pred/act E change: -0.502D-04 -0.196D-04
Maxdispl :   0.0346   ||displ|| :   0.0646   Lambda : -0.769D-04
Largest |displ|/coords:  0.0346 (   9)  0.0257 (  15)  0.0245 (   1)
................................................................................
.............................. CYCLE   22 ......................................
................................................................................
   1    -50.7395184 -0.507395E+02  0.401E-02    7.70       0.0  T
   2    -50.7395192 -0.856042E-06  0.296E-02    7.70       1.0  T
   3    -50.7395197 -0.447313E-06  0.518E-03    7.69       3.8  T
   4    -50.7395198 -0.118941E-06  0.148E-03    7.70      13.2  T
   5    -50.7395198 -0.280178E-08  0.514E-04    7.70      38.2  T
speedup  1.14
cpu  time for SCC    0.01 s
wall time for SCC    0.00 s
speedup  1.07
cpu  time for grad    0.01 s
wall time for grad    0.01 s
 E :    -50.44494818  G :  0.002737    pred/act E change: -0.585D-04 -0.367D-04
Maxdispl :   0.0307   ||displ|| :   0.0728   Lambda : -0.292D-04
Largest |displ|/coords:  0.0307 (  14)  0.0298 (  10)  0.0270 (   4)
................................................................................
.............................. CYCLE   23 ......................................
................................................................................
   1    -50.7386175 -0.507386E+02  0.520E-02    7.70       0.0  T
   2    -50.7386180 -0.468790E-06  0.388E-02    7.70       1.0  T
   3    -50.7386184 -0.378580E-06  0.428E-03    7.71       4.6  T
   4    -50.7386185 -0.605069E-07  0.155E-03    7.71      12.6  T
   5    -50.7386185 -0.233569E-08  0.512E-04    7.70      38.3  T
   6    -50.7386185 -0.412129E-09  0.237E-04    7.70      82.8  T
speedup  1.11
cpu  time for SCC    0.01 s
wall time for SCC    0.01 s
speedup  1.01
cpu  time for grad    0.01 s
wall time for grad    0.01 s
 E :    -50.44496367  G :  0.002785    pred/act E change: -0.386D-04 -0.155D-04
Maxdispl :   0.0421   ||displ|| :   0.0767   Lambda : -0.187D-04
Largest |displ|/coords:  0.0421 (   1)  0.0372 (   4)  0.0283 (   5)
................................................................................
.............................. CYCLE   24 ......................................
................................................................................
   1    -50.7384692 -0.507385E+02  0.393E-02    7.70       0.0  T
   2    -50.7384694 -0.199417E-06  0.295E-02    7.70       1.0  T
   3    -50.7384696 -0.195611E-06  0.339E-03    7.70       5.8  T
   4    -50.7384696 -0.202689E-07  0.116E-03    7.70      17.0  T
   5    -50.7384696 -0.135024E-08  0.308E-04    7.70      63.7  T
   6    -50.7384696 -0.870557E-10  0.191E-04    7.70     102.9  T
speedup  0.94
cpu  time for SCC    0.00 s
wall time for SCC    0.01 s
speedup  1.01
cpu  time for grad    0.01 s
wall time for grad    0.01 s
 E :    -50.44497831  G :  0.002678    pred/act E change: -0.147D-04 -0.146D-04
Maxdispl :   0.0824   ||displ|| :   0.1472   Lambda : -0.362D-04
Largest |displ|/coords:  0.0824 (   1)  0.0712 (   4)  0.0577 (   5)
................................................................................
.............................. CYCLE   25 ......................................
................................................................................
   1    -50.7390207 -0.507390E+02  0.696E-02    7.71       0.0  T
   2    -50.7390215 -0.719345E-06  0.521E-02    7.71       1.0  T
   3    -50.7390220 -0.591082E-06  0.675E-03    7.72       2.9  T
   4    -50.7390221 -0.877683E-07  0.239E-03    7.72       8.2  T
   5    -50.7390221 -0.511189E-08  0.517E-04    7.72      37.9  T
   6    -50.7390221 -0.245102E-09  0.343E-04    7.72      57.1  T
speedup  0.94
cpu  time for SCC    0.00 s
wall time for SCC    0.01 s
speedup  0.94
cpu  time for grad    0.01 s
wall time for grad    0.01 s
 E :    -50.44500034  G :  0.002194    pred/act E change: -0.941D-05 -0.220D-04
Maxdispl :   0.0652   ||displ|| :   0.1178   Lambda : -0.183D-04
Largest |displ|/coords:  0.0652 (   1)  0.0578 (   4)  0.0381 (   5)

generating ANC from model Hessian ...
 Shifting diagonal of input Hessian by   4.974432251633214E-003
 Lowest  eigenvalues of input Hessian
   -0.000000   -0.000000   -0.000000    0.000000    0.000000    0.000000
    0.005000    0.005139    0.005312    0.005673    0.005810    0.006338
    0.006485    0.006907    0.006975    0.007273    0.007715    0.008522
 Highest eigenvalues
    1.389447    1.411489    1.422798    2.582149    3.301165    3.850193
 
cpu  time for ANC gen    0.02 s
wall time for ANC gen    0.02 s
................................................................................
.............................. CYCLE   26 ......................................
................................................................................
   1    -50.7388097 -0.507388E+02  0.669E-02    7.71       0.0  T
   2    -50.7388103 -0.619504E-06  0.500E-02    7.71       1.0  T
   3    -50.7388110 -0.658655E-06  0.656E-03    7.71       3.0  T
   4    -50.7388110 -0.493232E-07  0.200E-03    7.71       9.8  T
   5    -50.7388111 -0.501795E-08  0.565E-04    7.71      34.7  T
   6    -50.7388111 -0.332584E-09  0.351E-04    7.71      55.9  T
speedup  1.13
cpu  time for SCC    0.01 s
wall time for SCC    0.01 s
speedup  1.01
cpu  time for grad    0.01 s
wall time for grad    0.01 s
 E :    -50.44501045  G :  0.002514    pred/act E change:  0.000D+00 -0.101D-04
Maxdispl :   0.0163   ||displ|| :   0.0339   Lambda : -0.182D-04
Largest |displ|/coords:  0.0163 (  10)  0.0161 (   2)  0.0105 (   7)
................................................................................
.............................. CYCLE   27 ......................................
................................................................................
   1    -50.7388748 -0.507389E+02  0.300E-02    7.72       0.0  T
   2    -50.7388749 -0.121439E-06  0.227E-02    7.72       1.0  T
   3    -50.7388750 -0.144763E-06  0.168E-03    7.72      11.7  T
   4    -50.7388750 -0.701407E-08  0.685E-04    7.72      28.6  T
   5    -50.7388750 -0.416165E-09  0.234E-04    7.72      83.9  T
speedup  0.91
cpu  time for SCC    0.00 s
wall time for SCC    0.00 s
speedup  1.01
cpu  time for grad    0.01 s
wall time for grad    0.01 s
 E :    -50.44502312  G :  0.001243    pred/act E change:  0.000D+00 -0.127D-04
Maxdispl :   0.0316   ||displ|| :   0.0594   Lambda : -0.190D-04
Largest |displ|/coords:  0.0316 (   2)  0.0194 (   7)  0.0165 (   4)
................................................................................
.............................. CYCLE   28 ......................................
................................................................................
   1    -50.7389205 -0.507389E+02  0.495E-02    7.72       0.0  T
   2    -50.7389207 -0.214459E-06  0.374E-02    7.72       1.0  T
   3    -50.7389210 -0.259895E-06  0.254E-03    7.72       7.7  T
   4    -50.7389210 -0.898374E-08  0.821E-04    7.72      23.9  T
   5    -50.7389210 -0.648051E-09  0.346E-04    7.72      56.7  T
speedup  1.14
cpu  time for SCC    0.00 s
wall time for SCC    0.00 s
speedup  1.01
cpu  time for grad    0.01 s
wall time for grad    0.01 s
 E :    -50.44503449  G :  0.001458    pred/act E change: -0.913D-05 -0.114D-04
Maxdispl :   0.0209   ||displ|| :   0.0441   Lambda : -0.841D-05
Largest |displ|/coords:  0.0209 (   2)  0.0149 (   8)  0.0143 (  17)
................................................................................
.............................. CYCLE   29 ......................................
................................................................................
   1    -50.7389163 -0.507389E+02  0.371E-02    7.72       0.0  T
   2    -50.7389165 -0.137557E-06  0.280E-02    7.72       1.0  T
   3    -50.7389166 -0.168542E-06  0.243E-03    7.72       8.1  T
   4    -50.7389166 -0.551219E-08  0.797E-04    7.72      24.6  T
   5    -50.7389166 -0.689781E-09  0.251E-04    7.72      78.2  T
speedup  0.91
cpu  time for SCC    0.00 s
wall time for SCC    0.00 s
speedup  1.01
cpu  time for grad    0.01 s
wall time for grad    0.01 s
 E :    -50.44504033  G :  0.001528    pred/act E change: -0.951D-05 -0.584D-05
Maxdispl :   0.0377   ||displ|| :   0.0638   Lambda : -0.100D-04
Largest |displ|/coords:  0.0377 (   2)  0.0188 (   3)  0.0176 (  17)
................................................................................
.............................. CYCLE   30 ......................................
................................................................................
   1    -50.7389794 -0.507390E+02  0.454E-02    7.72       0.0  T
   2    -50.7389796 -0.198624E-06  0.340E-02    7.72       1.0  T
   3    -50.7389798 -0.222129E-06  0.352E-03    7.72       5.6  T
   4    -50.7389799 -0.114741E-07  0.625E-04    7.72      31.4  T
   5    -50.7389799 -0.573557E-09  0.344E-04    7.72      57.1  T
speedup  0.91
cpu  time for SCC    0.00 s
wall time for SCC    0.00 s
speedup  1.01
cpu  time for grad    0.01 s
wall time for grad    0.01 s
 E :    -50.44504722  G :  0.001195    pred/act E change: -0.421D-05 -0.689D-05
Maxdispl :   0.0316   ||displ|| :   0.0544   Lambda : -0.742D-05
Largest |displ|/coords:  0.0316 (   2)  0.0231 (   3)  0.0163 (  17)
................................................................................
.............................. CYCLE   31 ......................................
................................................................................
   1    -50.7391113 -0.507391E+02  0.355E-02    7.72       0.0  T
   2    -50.7391114 -0.174324E-06  0.264E-02    7.72       1.0  T
   3    -50.7391116 -0.173061E-06  0.351E-03    7.72       5.6  T
   4    -50.7391116 -0.133120E-07  0.729E-04    7.72      26.9  T
   5    -50.7391116 -0.892562E-09  0.269E-04    7.72      72.8  T
speedup  1.14
cpu  time for SCC    0.00 s
wall time for SCC    0.00 s
speedup  1.01
cpu  time for grad    0.01 s
wall time for grad    0.01 s
 E :    -50.44505251  G :  0.000784    pred/act E change: -0.504D-05 -0.529D-05
Maxdispl :   0.0359   ||displ|| :   0.0572   Lambda : -0.542D-05
Largest |displ|/coords:  0.0359 (   2)  0.0242 (   3)  0.0155 (   8)
................................................................................
.............................. CYCLE   32 ......................................
................................................................................
   1    -50.7391521 -0.507392E+02  0.368E-02    7.72       0.0  T
   2    -50.7391523 -0.184057E-06  0.274E-02    7.72       1.0  T
   3    -50.7391525 -0.183012E-06  0.366E-03    7.72       5.4  T
   4    -50.7391525 -0.142609E-07  0.111E-03    7.72      17.7  T
   5    -50.7391525 -0.156720E-08  0.262E-04    7.72      74.8  T
   6    -50.7391525 -0.664855E-10  0.173E-04    7.72     113.6  T
speedup  0.96
cpu  time for SCC    0.00 s
wall time for SCC    0.01 s
speedup  1.02
cpu  time for grad    0.01 s
wall time for grad    0.01 s
 E :    -50.44505634  G :  0.000702    pred/act E change: -0.372D-05 -0.384D-05
Maxdispl :   0.0279   ||displ|| :   0.0444   Lambda : -0.360D-05
Largest |displ|/coords:  0.0279 (   2)  0.0206 (   3)  0.0114 (  16)
................................................................................
.............................. CYCLE   33 ......................................
................................................................................
   1    -50.7391639 -0.507392E+02  0.283E-02    7.72       0.0  T
   2    -50.7391640 -0.127042E-06  0.211E-02    7.72       1.0  T
   3    -50.7391642 -0.123056E-06  0.292E-03    7.72       6.7  T
   4    -50.7391642 -0.111106E-07  0.105E-03    7.72      18.7  T
   5    -50.7391642 -0.116853E-08  0.220E-04    7.72      89.0  T
   6    -50.7391642 -0.453255E-10  0.148E-04    7.72     132.6  T
speedup  0.94
cpu  time for SCC    0.01 s
wall time for SCC    0.01 s
speedup  0.94
cpu  time for grad    0.01 s
wall time for grad    0.01 s
 E :    -50.44505887  G :  0.000608    pred/act E change: -0.272D-05 -0.253D-05
Maxdispl :   0.0228   ||displ|| :   0.0367   Lambda : -0.253D-05
Largest |displ|/coords:  0.0228 (   2)  0.0160 (   3)  0.0097 (  16)
................................................................................
.............................. CYCLE   34 ......................................
................................................................................
   1    -50.7391446 -0.507391E+02  0.234E-02    7.71       0.0  T
   2    -50.7391447 -0.871001E-07  0.175E-02    7.71       1.1  T
   3    -50.7391448 -0.888481E-07  0.230E-03    7.71       8.5  T
   4    -50.7391448 -0.727638E-08  0.855E-04    7.71      22.9  T
   5    -50.7391448 -0.726331E-09  0.185E-04    7.71     106.3  T
speedup  0.91
cpu  time for SCC    0.00 s
wall time for SCC    0.00 s
speedup  1.01
cpu  time for grad    0.01 s
wall time for grad    0.01 s
 E :    -50.44506069  G :  0.000548    pred/act E change: -0.180D-05 -0.182D-05
Maxdispl :   0.0205   ||displ|| :   0.0383   Lambda : -0.255D-05
Largest |displ|/coords:  0.0205 (   2)  0.0157 (   3)  0.0093 (  14)
................................................................................
.............................. CYCLE   35 ......................................
................................................................................
   1    -50.7391055 -0.507391E+02  0.230E-02    7.71       0.0  T
   2    -50.7391056 -0.845076E-07  0.172E-02    7.71       1.1  T
   3    -50.7391056 -0.851100E-07  0.218E-03    7.71       9.0  T
   4    -50.7391057 -0.745276E-08  0.827E-04    7.71      23.7  T
   5    -50.7391057 -0.669942E-09  0.193E-04    7.71     101.4  T
speedup  0.91
cpu  time for SCC    0.00 s
wall time for SCC    0.00 s
speedup  1.01
cpu  time for grad    0.01 s
wall time for grad    0.01 s
 E :    -50.44506245  G :  0.000644    pred/act E change: -0.127D-05 -0.175D-05
Maxdispl :   0.0222   ||displ|| :   0.0417   Lambda : -0.249D-05
Largest |displ|/coords:  0.0222 (   2)  0.0152 (   5)  0.0143 (   3)
................................................................................
.............................. CYCLE   36 ......................................
................................................................................
   1    -50.7390617 -0.507391E+02  0.238E-02    7.71       0.0  T
   2    -50.7390618 -0.863462E-07  0.178E-02    7.72       1.1  T
   3    -50.7390619 -0.903493E-07  0.223E-03    7.72       8.8  T
   4    -50.7390619 -0.681539E-08  0.779E-04    7.72      25.2  T
   5    -50.7390619 -0.642125E-09  0.191E-04    7.72     102.8  T
speedup  1.11
cpu  time for SCC    0.00 s
wall time for SCC    0.00 s
speedup  1.00
cpu  time for grad    0.01 s
wall time for grad    0.01 s
 E :    -50.44506417  G :  0.000667    pred/act E change: -0.128D-05 -0.172D-05
Maxdispl :   0.0187   ||displ|| :   0.0412   Lambda : -0.250D-05
Largest |displ|/coords:  0.0187 (   2)  0.0164 (   5)  0.0139 (  11)
................................................................................
.............................. CYCLE   37 ......................................
................................................................................
   1    -50.7390363 -0.507390E+02  0.224E-02    7.72       0.0  T
   2    -50.7390364 -0.706736E-07  0.167E-02    7.72       1.2  T
   3    -50.7390364 -0.696317E-07  0.216E-03    7.72       9.1  T
   4    -50.7390364 -0.603991E-08  0.705E-04    7.72      27.8  T
   5    -50.7390364 -0.554664E-09  0.166E-04    7.72     117.8  T
speedup  1.11
cpu  time for SCC    0.00 s
wall time for SCC    0.00 s
speedup  1.00
cpu  time for grad    0.01 s
wall time for grad    0.01 s
 E :    -50.44506597  G :  0.000656    pred/act E change: -0.125D-05 -0.180D-05
Maxdispl :   0.0198   ||displ|| :   0.0396   Lambda : -0.230D-05
Largest |displ|/coords:  0.0198 (   2)  0.0156 (   5)  0.0145 (  11)
................................................................................
.............................. CYCLE   38 ......................................
................................................................................
   1    -50.7390306 -0.507390E+02  0.217E-02    7.72       0.0  T
   2    -50.7390307 -0.630198E-07  0.161E-02    7.72       1.2  T
   3    -50.7390307 -0.629834E-07  0.232E-03    7.72       8.5  T
   4    -50.7390307 -0.472737E-08  0.652E-04    7.72      30.1  T
   5    -50.7390307 -0.582354E-09  0.146E-04    7.72     134.7  T
speedup  0.89
cpu  time for SCC    0.00 s
wall time for SCC    0.00 s
speedup  0.99
cpu  time for grad    0.01 s
wall time for grad    0.01 s
 E :    -50.44506761  G :  0.000556    pred/act E change: -0.125D-05 -0.164D-05
Maxdispl :   0.0153   ||displ|| :   0.0320   Lambda : -0.174D-05
Largest |displ|/coords:  0.0153 (   2)  0.0121 (   4)  0.0119 (  11)
................................................................................
.............................. CYCLE   39 ......................................
................................................................................
   1    -50.7390654 -0.507391E+02  0.184E-02    7.72       0.0  T
   2    -50.7390655 -0.510568E-07  0.135E-02    7.72       1.5  T
   3    -50.7390655 -0.492060E-07  0.217E-03    7.72       9.1  T
   4    -50.7390655 -0.400463E-08  0.618E-04    7.72      31.7  T
   5    -50.7390655 -0.538421E-09  0.131E-04    7.72     149.3  T
speedup  0.89
cpu  time for SCC    0.00 s
wall time for SCC    0.00 s
speedup  1.01
cpu  time for grad    0.01 s
wall time for grad    0.01 s
 E :    -50.44506889  G :  0.000536    pred/act E change: -0.115D-05 -0.128D-05
Maxdispl :   0.0215   ||displ|| :   0.0383   Lambda : -0.178D-05
Largest |displ|/coords:  0.0215 (   2)  0.0154 (   4)  0.0132 (  11)
................................................................................
.............................. CYCLE   40 ......................................
................................................................................
   1    -50.7390394 -0.507390E+02  0.228E-02    7.72       0.0  T
   2    -50.7390395 -0.926306E-07  0.166E-02    7.72       1.2  T
   3    -50.7390396 -0.852958E-07  0.290E-03    7.72       6.8  T
   4    -50.7390396 -0.731401E-08  0.870E-04    7.72      22.5  T
   5    -50.7390396 -0.100041E-08  0.174E-04    7.72     112.6  T
speedup  1.14
cpu  time for SCC    0.00 s
wall time for SCC    0.00 s
speedup  1.01
cpu  time for grad    0.01 s
wall time for grad    0.01 s
 E :    -50.44507017  G :  0.000504    pred/act E change: -0.872D-06 -0.128D-05
Maxdispl :   0.0208   ||displ|| :   0.0406   Lambda : -0.198D-05
Largest |displ|/coords:  0.0208 (   4)  0.0151 (  11)  0.0132 (   2)
................................................................................
.............................. CYCLE   41 ......................................
................................................................................
   1    -50.7391414 -0.507391E+02  0.254E-02    7.72       0.0  T
   2    -50.7391415 -0.122131E-06  0.186E-02    7.72       1.1  T
   3    -50.7391416 -0.107637E-06  0.318E-03    7.72       6.2  T
   4    -50.7391416 -0.110758E-07  0.964E-04    7.72      20.3  T
   5    -50.7391416 -0.125026E-08  0.224E-04    7.72      87.7  T
speedup  1.14
cpu  time for SCC    0.00 s
wall time for SCC    0.00 s
speedup  1.01
cpu  time for grad    0.01 s
wall time for grad    0.01 s
 E :    -50.44507145  G :  0.000752    pred/act E change: -0.891D-06 -0.128D-05
Maxdispl :   0.0195   ||displ|| :   0.0406   Lambda : -0.189D-05
Largest |displ|/coords:  0.0195 (   2)  0.0183 (   4)  0.0148 (  11)
................................................................................
.............................. CYCLE   42 ......................................
................................................................................
   1    -50.7390564 -0.507391E+02  0.246E-02    7.72       0.0  T
   2    -50.7390565 -0.141101E-06  0.178E-02    7.72       1.1  T
   3    -50.7390567 -0.119588E-06  0.344E-03    7.72       5.7  T
   4    -50.7390567 -0.119399E-07  0.107E-03    7.72      18.4  T
   5    -50.7390567 -0.152766E-08  0.215E-04    7.72      91.1  T
   6    -50.7390567 -0.531841E-10  0.142E-04    7.72     138.5  T
speedup  0.96
cpu  time for SCC    0.01 s
wall time for SCC    0.01 s
speedup  1.02
cpu  time for grad    0.01 s
wall time for grad    0.01 s
 E :    -50.44507269  G :  0.000575    pred/act E change: -0.990D-06 -0.124D-05
Maxdispl :   0.0126   ||displ|| :   0.0284   Lambda : -0.151D-05
Largest |displ|/coords:  0.0126 (   4)  0.0114 (   3)  0.0111 (  11)
................................................................................
.............................. CYCLE   43 ......................................
................................................................................
   1    -50.7390936 -0.507391E+02  0.160E-02    7.72       0.0  T
   2    -50.7390937 -0.593730E-07  0.116E-02    7.72       1.7  T
   3    -50.7390937 -0.477905E-07  0.229E-03    7.72       8.6  T
   4    -50.7390937 -0.603000E-08  0.670E-04    7.72      29.3  T
   5    -50.7390937 -0.658822E-09  0.149E-04    7.72     131.2  T
speedup  1.16
cpu  time for SCC    0.00 s
wall time for SCC    0.00 s
speedup  1.02
cpu  time for grad    0.01 s
wall time for grad    0.01 s
 E :    -50.44507381  G :  0.000478    pred/act E change: -0.944D-06 -0.112D-05
Maxdispl :   0.0123   ||displ|| :   0.0279   Lambda : -0.135D-05
Largest |displ|/coords:  0.0123 (  11)  0.0115 (   3)  0.0103 (   4)
................................................................................
.............................. CYCLE   44 ......................................
................................................................................
   1    -50.7390874 -0.507391E+02  0.154E-02    7.72       0.0  T
   2    -50.7390875 -0.622085E-07  0.112E-02    7.72       1.8  T
   3    -50.7390875 -0.453621E-07  0.237E-03    7.73       8.3  T
   4    -50.7390875 -0.690553E-08  0.710E-04    7.72      27.6  T
   5    -50.7390875 -0.665132E-09  0.146E-04    7.72     134.7  T
speedup  0.91
cpu  time for SCC    0.00 s
wall time for SCC    0.00 s
speedup  1.02
cpu  time for grad    0.01 s
wall time for grad    0.01 s
 E :    -50.44507476  G :  0.000403    pred/act E change: -0.757D-06 -0.948D-06
Maxdispl :   0.0106   ||displ|| :   0.0247   Lambda : -0.941D-06
Largest |displ|/coords:  0.0106 (   3)  0.0103 (  11)  0.0077 (   4)
................................................................................
.............................. CYCLE   45 ......................................
................................................................................
   1    -50.7390787 -0.507391E+02  0.139E-02    7.73       0.0  T
   2    -50.7390788 -0.498516E-07  0.102E-02    7.73       1.9  T
   3    -50.7390788 -0.365053E-07  0.208E-03    7.73       9.4  T
   4    -50.7390788 -0.584043E-08  0.631E-04    7.73      31.1  T
   5    -50.7390788 -0.501139E-09  0.135E-04    7.73     144.9  T
speedup  1.09
cpu  time for SCC    0.00 s
wall time for SCC    0.00 s
speedup  0.99
cpu  time for grad    0.01 s
wall time for grad    0.01 s
 E :    -50.44507547  G :  0.000400    pred/act E change: -0.673D-06 -0.706D-06
Maxdispl :   0.0109   ||displ|| :   0.0279   Lambda : -0.954D-06
Largest |displ|/coords:  0.0109 (  11)  0.0109 (   3)  0.0085 (   4)
................................................................................
.............................. CYCLE   46 ......................................
................................................................................
   1    -50.7390399 -0.507390E+02  0.164E-02    7.73       0.0  T
   2    -50.7390399 -0.698662E-07  0.120E-02    7.73       1.6  T
   3    -50.7390400 -0.516510E-07  0.244E-03    7.73       8.0  T
   4    -50.7390400 -0.791835E-08  0.742E-04    7.73      26.4  T
   5    -50.7390400 -0.710095E-09  0.161E-04    7.73     122.0  T
speedup  1.14
cpu  time for SCC    0.00 s
wall time for SCC    0.00 s
speedup  1.01
cpu  time for grad    0.01 s
wall time for grad    0.01 s
 E :    -50.44507613  G :  0.000332    pred/act E change: -0.471D-06 -0.667D-06
Maxdispl :   0.0081   ||displ|| :   0.0176   Lambda : -0.537D-06
Largest |displ|/coords:  0.0081 (   2)  0.0067 (   3)  0.0055 (   6)
................................................................................
.............................. CYCLE   47 ......................................
................................................................................
   1    -50.7390222 -0.507390E+02  0.990E-03    7.73       0.0  T
   2    -50.7390222 -0.239053E-07  0.725E-03    7.73       2.7  T
   3    -50.7390222 -0.188297E-07  0.138E-03    7.73      14.3  T
   4    -50.7390222 -0.259808E-08  0.414E-04    7.73      47.4  T
   5    -50.7390222 -0.242885E-09  0.988E-05    7.73     198.4  T
speedup  0.89
cpu  time for SCC    0.00 s
wall time for SCC    0.00 s
speedup  1.00
cpu  time for grad    0.01 s
wall time for grad    0.01 s
 E :    -50.44507651  G :  0.000227    pred/act E change: -0.477D-06 -0.379D-06
Maxdispl :   0.0050   ||displ|| :   0.0115   Lambda : -0.330D-06
Largest |displ|/coords:  0.0050 (   2)  0.0039 (   4)  0.0034 (   7)
................................................................................
.............................. CYCLE   48 ......................................
................................................................................
   1    -50.7390062 -0.507390E+02  0.673E-03    7.72       0.0  T
   2    -50.7390063 -0.955736E-08  0.492E-03    7.72       4.0  T
   3    -50.7390063 -0.764381E-08  0.905E-04    7.72      21.7  T
   4    -50.7390063 -0.951843E-09  0.256E-04    7.72      76.6  T
speedup  0.83
cpu  time for SCC    0.00 s
wall time for SCC    0.00 s
speedup  0.99
cpu  time for grad    0.01 s
wall time for grad    0.01 s
 E :    -50.44507675  G :  0.000164    pred/act E change: -0.269D-06 -0.239D-06
Maxdispl :   0.0048   ||displ|| :   0.0082   Lambda : -0.211D-06
Largest |displ|/coords:  0.0048 (   2)  0.0021 (   7)  0.0020 (   4)
................................................................................
.............................. CYCLE   49 ......................................
................................................................................
   1    -50.7390181 -0.507390E+02  0.438E-03    7.73       0.0  T
   2    -50.7390181 -0.246408E-08  0.329E-03    7.73       6.0  T
   3    -50.7390181 -0.224611E-08  0.345E-04    7.72      56.9  T
   4    -50.7390181 -0.277609E-09  0.975E-05    7.72     201.2  T
speedup  0.83
cpu  time for SCC    0.00 s
wall time for SCC    0.00 s
speedup  1.00
cpu  time for grad    0.01 s
wall time for grad    0.01 s
 E :    -50.44507690  G :  0.000148    pred/act E change: -0.165D-06 -0.152D-06
Maxdispl :   0.0068   ||displ|| :   0.0128   Lambda : -0.211D-06
Largest |displ|/coords:  0.0068 (   4)  0.0051 (   7)  0.0032 (   6)
................................................................................
.............................. CYCLE   50 ......................................
................................................................................
   1    -50.7390037 -0.507390E+02  0.830E-03    7.72       0.0  T
   2    -50.7390037 -0.116396E-07  0.613E-03    7.72       3.2  T
   3    -50.7390037 -0.106391E-07  0.990E-04    7.72      19.8  T
   4    -50.7390037 -0.103232E-08  0.259E-04    7.72      75.7  T
speedup  1.14
cpu  time for SCC    0.00 s
wall time for SCC    0.00 s
speedup  1.08
cpu  time for grad    0.01 s
wall time for grad    0.01 s
 E :    -50.44507705  G :  0.000161    pred/act E change: -0.106D-06 -0.150D-06
Maxdispl :   0.0041   ||displ|| :   0.0086   Lambda : -0.134D-06
Largest |displ|/coords:  0.0041 (   2)  0.0035 (   3)  0.0034 (   4)
................................................................................
.............................. CYCLE   51 ......................................
................................................................................
   1    -50.7390318 -0.507390E+02  0.445E-03    7.73       0.0  T
   2    -50.7390318 -0.267887E-08  0.335E-03    7.73       5.8  T
   3    -50.7390318 -0.280767E-08  0.276E-04    7.73      71.1  T
   4    -50.7390318 -0.262780E-09  0.112E-04    7.73     175.6  T
speedup  1.11
cpu  time for SCC    0.00 s
wall time for SCC    0.00 s
speedup  0.99
cpu  time for grad    0.01 s
wall time for grad    0.01 s
 E :    -50.44507714  G :  0.000134    pred/act E change: -0.105D-06 -0.903D-07
Maxdispl :   0.0065   ||displ|| :   0.0115   Lambda : -0.129D-06
Largest |displ|/coords:  0.0065 (   4)  0.0043 (   7)  0.0032 (  11)

   *** GEOMETRY OPTIMIZATION CONVERGED AFTER 51 ITERATIONS ***

------------------------------------------------------------------------
 total energy gain (kcal):     -0.0419
------------------------------------------------------------------------
================
 final structure:
================
$coord
       -0.42866052230799        3.58794111511001       -2.31566661743261      S 
       -2.15897231888812        3.42114209197817       -0.21066998902718      O 
        0.37384427932465        6.05053503124225       -2.99670070322445      O 
        1.91979672744785        1.89384758927628       -1.68905280266764      O 
       -1.53432260958730        2.18428406078570       -4.58363539322077      O 
       -2.23411332315589        0.55504751231014       -3.84481340828759      H 
        2.35758278528606        1.90199867867754        0.13573835305419      H 
       -2.42205471865429       -2.51381076236394        2.15147775642371      O 
       -2.45335449387520       -1.01448881129544        3.19055696197348      H 
       -0.67013553236292       -3.15214699907115        2.25003869058455      H 
       -1.78964139271237        2.28002735725700        4.53697899691171      O 
       -2.10692446208728        2.80675424607730        2.77577049010484      H 
       -2.79100547594691        3.35884671227169        5.59177133270762      H 
       -3.30776856956807       -1.81626703316802       -2.61269650624446      O 
       -5.11532625179701       -1.74694284545677       -2.72837221073823      H 
       -2.92663707955210       -2.04176509009094       -0.75842287470838      H 
        3.03983973027119        1.89076827320859        3.12272567056442      O 
        3.91957372300669        3.39248691890797        3.62826899265931      H 
        1.37966442788007        1.92087690885377        3.95222027704035      H 
        2.48587906522983       -3.57220514371663        2.05148462380086      O 
        2.60743198974776       -3.76521170593824        0.20348022537266      H 
        3.24785525314628       -1.97047362426229        2.44986563460565      H 
        2.27766266370357       -3.55753831707087       -3.09464016702011      N 
        3.25617603196752       -4.58920117267561       -4.37281818456105      H 
        2.66414527892210       -1.70457070280925       -3.39177140934898      H 
        0.40946481346042       -3.79993428803848       -3.44111779601726      H 
$end
 
 Bond Distances (Angstroems)
 ---------------------------
S1-O2=1.4446         S1-O3=1.4172         S1-O4=1.5678         S1-O5=1.5279         O2-S1=1.4446         O3-S1=1.4172         
O4-S1=1.5678         O4-H7=0.9930         O5-S1=1.5279         O5-H6=1.0165         H6-O5=1.0165         H7-O4=0.9930         
O8-H9=0.9655         O8-H10=0.9881        H9-O8=0.9655         H10-O8=0.9881        O11-H12=0.9872       O11-H13=0.9583       
H12-O11=0.9872       H13-O11=0.9583       O14-H15=0.9592       O14-H16=1.0088       H15-O14=0.9592       H16-O14=1.0088       
O17-H18=0.9591       O17-H19=0.9822       H18-O17=0.9591       H19-O17=0.9822       O20-H21=0.9853       O20-H22=0.9620       
H21-O20=0.9853       H22-O20=0.9620       N23-H24=1.0118       N23-H25=1.0139       N23-H26=1.0136       H24-N23=1.0118       
H25-N23=1.0139       H26-N23=1.0136       
 N  H  Rav=1.0131 sigma=0.0010  Rmin=1.0118  Rmax=1.0139     3
 O  H  Rav=0.9804 sigma=0.0191  Rmin=0.9583  Rmax=1.0165    12
 S  O  Rav=1.4894 sigma=0.0609  Rmin=1.4172  Rmax=1.5678     4
 
 selected bond angles (degree)
 --------------------
O3-S1-O2=116.24                O4-S1-O2=107.72                O4-S1-O3=110.00                O5-S1-O2=109.47                
O5-S1-O3=111.22                O5-S1-O4=101.05                H7-O4-S1=112.84                H6-O5-S1=104.46                
H10-O8-H9=105.48               
 
 selected dihedral angles (degree)
 ---------------------------------
H7-O4-S1-O2=325.08            H7-O4-S1-O3= 92.69            H7-O4-S1-O5=210.31            H6-O5-S1-O2=316.52            
H6-O5-S1-O3=186.70            H6-O5-S1-O4= 69.98            
 
 CMA Distance (Angstroems)
 ---------------------------
R(CMA):  3.0133

========================================================================
 FINAL SINGLEPOINT CALCULATION ON OPTIMIZED GEOMETRY
========================================================================

 Ncao       : 65
 Nao        : 64
 Nshell     : 38
 Nel        : 80
 T(el)      :   300.0
 intcut     :    25.0
 scfconv/Eh :  0.100E-05
   qconv/e  :  0.100E-03
 intneglect :  0.100E-07
 broydamp   :      0.250
 iter      E             dE          RMSdq      gap      omega  full diag
   1    -50.7390318 -0.507390E+02  0.336E-05    7.73       0.0  T
   2    -50.7390318 -0.178346E-11  0.221E-05    7.73     885.8  T
   3    -50.7390318 -0.103739E-11  0.726E-06    7.73    2702.0  T
speedup  0.74
cpu  time for SCC    0.00 s
wall time for SCC    0.00 s

   *** convergence criteria satisfied after 3 iterations ***

          eigenvalues
 #    :          28         29         30         31         32         33         34         35
 occ. :        2.000      2.000      2.000      2.000      2.000      2.000      2.000      2.000
 eps  :       -13.540    -13.288    -13.248    -13.025    -12.815    -12.712    -12.633    -12.573
 #    :          36         37         38         39         40         41         42         43
 occ. :        2.000      2.000      2.000      2.000      2.000      0.000      0.000      0.000
 eps  :       -12.370    -12.207    -11.762    -11.500    -10.822     -3.097     -0.930     -0.841
 #    :          44         45         46         47         48         49         50         51
 occ. :        0.000      0.000      0.000      0.000      0.000      0.000      0.000      0.000
 eps  :         0.095      0.561      1.111      1.766      2.830      3.318      4.848      5.510


   #   Z            q   n(s)   n(p)   n(d)      C6AA      α(0)
   1  16 S      1.680  1.576  1.789  0.955    89.216    15.897
   2   8 O     -0.721  1.757  4.964  0.000    29.281     7.255
   3   8 O     -0.645  1.752  4.893  0.000    27.260     7.000
   4   8 O     -0.622  1.752  4.870  0.000    25.687     6.842
   5   8 O     -0.596  1.754  4.842  0.000    25.070     6.759
   6   1 H      0.394  0.606  0.000  0.000     0.489     1.095
   7   1 H      0.387  0.613  0.000  0.000     0.507     1.118
   8   8 O     -0.633  1.759  4.874  0.000    25.991     6.881
   9   1 H      0.309  0.691  0.000  0.000     0.695     1.309
  10   1 H      0.333  0.667  0.000  0.000     0.629     1.246
  11   8 O     -0.626  1.744  4.882  0.000    25.808     6.856
  12   1 H      0.343  0.657  0.000  0.000     0.606     1.223
  13   1 H      0.293  0.707  0.000  0.000     0.743     1.354
  14   8 O     -0.626  1.758  4.868  0.000    25.803     6.856
  15   1 H      0.295  0.705  0.000  0.000     0.735     1.347
  16   1 H      0.357  0.643  0.000  0.000     0.573     1.189
  17   8 O     -0.607  1.746  4.861  0.000    25.363     6.797
  18   1 H      0.299  0.701  0.000  0.000     0.723     1.336
  19   1 H      0.347  0.653  0.000  0.000     0.596     1.213
  20   8 O     -0.618  1.752  4.865  0.000    25.611     6.830
  21   1 H      0.316  0.684  0.000  0.000     0.676     1.292
  22   1 H      0.297  0.703  0.000  0.000     0.730     1.342
  23   7 N     -0.452  1.371  4.081  0.000    31.888     8.387
  24   1 H      0.150  0.850  0.000  0.000     1.400     1.854
  25   1 H      0.170  0.830  0.000  0.000     1.271     1.766
  26   1 H      0.175  0.825  0.000  0.000     1.241     1.745

 Mol. C6AA /au·bohr⁶  :       5451.025409
 Mol. C8AA /au·bohr⁸  :     117700.511851
 Mol. α(0) /au        :        106.789279

 
 Wiberg/Mayer (AO) data. WBOs > 0.1 written file <wbo>
 largest (>0.05) Wiberg bond orders for each atom
           total WBO             WBO to atom ...
     1  S   4.874    O    3 1.502    O    2 1.345    O    5 1.039    O    4 0.950
     2  O   1.735    S    1 1.345    O    3 0.123    O    4 0.088    O    5 0.086    H   12 0.067
     3  O   1.811    S    1 1.502    O    2 0.123    O    4 0.090    O    5 0.081
     4  O   1.963    S    1 0.950    H    7 0.728    O    3 0.090    O    2 0.088    O    5 0.053
     5  O   2.002    S    1 1.039    H    6 0.679    O    2 0.086    O    3 0.081    O    4 0.053
     6  H   0.845    O    5 0.679    O   14 0.148
     7  H   0.850    O    4 0.728    O   17 0.102
     8  O   1.897    H    9 0.874    H   10 0.812    H   16 0.111
     9  H   0.905    O    8 0.874
    10  H   0.889    O    8 0.812    O   20 0.075
    11  O   1.868    H   13 0.904    H   12 0.809    H   19 0.057
    12  H   0.883    O   11 0.809    O    2 0.067
    13  H   0.914    O   11 0.904
    14  O   1.921    H   15 0.909    H   16 0.756    H    6 0.148
    15  H   0.913    O   14 0.909
    16  H   0.873    O   14 0.756    O    8 0.111
    17  O   1.912    H   18 0.905    H   19 0.819    H    7 0.102
    18  H   0.910    O   17 0.905
    19  H   0.880    O   17 0.819    O   11 0.057
    20  O   1.881    H   22 0.898    H   21 0.827    H   10 0.075
    21  H   0.900    O   20 0.827    N   23 0.072
    22  H   0.912    O   20 0.898
    23  N   3.015    H   24 0.974    H   26 0.961    H   25 0.959    H   21 0.072
    24  H   0.977    N   23 0.974
    25  H   0.971    N   23 0.959
    26  H   0.969    N   23 0.961
 MOs/occ written to file <molden.input>
 
molecular dipole:
                 x           y           z       tot (Debye)
 q only:        0.037      -0.300       0.845
   full:       -0.138       0.248       0.678       1.868
molecular quadrupole (traceless):
                xx          xy          yy          xz          yz          zz
 q only:        8.727       1.420     -11.407       1.221      19.674       2.680
  q+dip:       10.063       1.819     -15.322       0.023      25.478       5.259
   full:       10.159       1.815     -15.453       0.217      25.891       5.295

SCC energy    :     -50.7390318
rep           :       0.2935391
ES            :       0.2324949
AES           :      -0.0485687
AXC           :      -0.0065068
disp          :      -0.0189427
XB            :       0.0000000
fix           :       0.0000000
total E       :     -50.4450771
atomizationE  :       4.9753813     3122.10
(atE without considering molecular charge,
 total energy contains solvation terms)
H-L gap (eV)  :          7.7252
optimized geometry written to: xtbopt.xyz


------------------------------------------------------------------------
 * finished run on 2019/09/16 at 12:00:48.287     
------------------------------------------------------------------------
 total:
 * wall-time:     0 d,  0 h,  0 min,  1.311 sec
 *  cpu-time:     0 d,  0 h,  0 min,  1.290 sec
 * ratio c/w:     0.984 speedup
 SCF:
 * wall-time:     0 d,  0 h,  0 min,  0.145 sec
 *  cpu-time:     0 d,  0 h,  0 min,  0.143 sec
 * ratio c/w:     0.983 speedup
 ANC optimizer:
 * wall-time:     0 d,  0 h,  0 min,  1.141 sec
 *  cpu-time:     0 d,  0 h,  0 min,  1.126 sec
 * ratio c/w:     0.987 speedup

