      -----------------------------------------------------------      
     |                   =====================                   |     
     |                           x T B                           |     
     |                   =====================                   |     
     |                         S. Grimme                         |     
     |          Mulliken Center for Theoretical Chemistry        |     
     |                    University of Bonn                     |     
     |                 Version 6.0.1 (SAW181210)                 |     
      -----------------------------------------------------------      

   This program is distributed in the hope that it will be useful,
   but WITHOUT ANY WARRANTY; without even the implied warranty of
   MERCHANTABILITY or FITNESS FOR A PARTICULAR PURPOSE.
   
   FOR NON-COMMERCIAL, ACADEMIA USE ONLY.
   
   Cite this work as:
   S. Grimme, C. Bannwarth, P. Shushkov, J. Comput. Theory Chem., 2017,
   13, 1989-2009.
   C. Bannwarth, S. Ehlert and S. Grimme., ChemRxiv, 2018, preprint.
   http://doi.org/10.26434/chemrxiv.7246238.v1
   
   for sTDA-xTB:
   S. Grimme and C. Bannwarth, J. Chem. Phys., 2016, 145, 054103.
   
   in the mass-spec context:
   V. Asgeirsson, C. Bauer and S. Grimme, Chem. Sci., 2017, 8, 4879.
   
   if GBSA is used:
   P. Shushkov, F. März and S. Grimme, unpublished.
   
   for ANC optimizer:
   S. Grimme, unpublished.
   Rational Function algorithm used in ANCopt:
   F. Eckert, P. Pulay, H.-J. Werner, J. Comput. Chem., 1997, 18, 1473.
   
   with help from (in alphabetical order)
   C. Bannwarth, F. Bohle, G. Brandenburg, E. Caldeweyher, M. Checinski,
   S. Dohm, S. Ehlert, S. Ehrlich, F. März, H. Neugebauer, J. Pisarek,
   P. Pracht, P. Shushkov, and S. Spicher.
   
 * started run on 2019/09/16 at 11:19:02.901     
========================================================================
 # omp threads = 1
========================================================================
number of atoms            : 26
number of electrons        : 80
charge                     : 0
spin                       : .0
first test random number   : .6598

########################################################################
# WARNING! Please study the warnings concerning your input carefully
#  - XTBPATH is not set, using XTBHOME instead
#  - the use of '-opt' is discouraged, please use '--opt' next time
#  - the use of '-chrg' is discouraged, please use '--chrg' next time
#  - the use of '-uhf' is discouraged, please use '--uhf' next time
########################################################################

           ------------------------------------------------- 
          |                 G F N 2 - x T B                 |
          | Geometry, Frequencies, Noncovalent interactions |
          |            JCTC 2018 parametrisation            |
           ------------------------------------------------- 
      method parameters     
 k(s)        :  1.8500
 k(p)        :  2.2300
 k(d)        :  2.2300
 k(f)        :  2.0000
 kEN (H0ij)  : -2.0000
 D4 a1       :  0.5200
 D4 a2       :  5.0000
 D4 s6       :  1.0000
 D4 s8       :  2.7000
 D4 s9       :  5.0000
 alphaj      :  2.0000


            Z     q(EN)     CN     RAES       Cart. coordinates
     1  S   6.0    0.58    4.29    4.21     2.55980     1.54972     3.62747
     2  O   6.0   -0.31    1.14    1.80     4.30615     1.54733     1.49869
     3  O   6.0   -0.27    1.09    1.80     2.94550     3.06554     5.86156
     4  O   6.0   -0.25    2.07    1.83    -0.26429     2.04882     2.47822
     5  O   6.0   -0.23    2.07    1.83     2.09202    -1.28631     4.63039
     6  H   1.0    0.17    1.27    1.49     1.96598    -2.42693     3.19184
     7  H   1.0    0.16    1.20    1.46    -0.06846     3.13818     1.00808
     8  O   6.0   -0.39    1.68    1.81     1.62719    -3.72589     0.65032
     9  H   1.0    0.17    0.95    1.42     2.00578    -5.47958     1.16507
    10  O   6.0   -0.40    1.68    1.81    -0.18585     0.38505    -4.42018
    11  H   1.0    0.17    0.94    1.42    -0.69853     0.67659    -6.19103
    12  O   6.0   -0.29    2.06    1.83     0.20802     4.31598    -1.92223
    13  H   1.0    0.18    1.14    1.45    -0.01220     2.84794    -2.97625
    14  H   1.0    0.15    0.97    1.43     0.22188     5.73228    -3.06614
    15  O   6.0   -0.22    2.94    2.62     3.64420    -1.27354    -2.61372
    16  H   1.0    0.16    1.18    1.46     2.25456    -0.58801    -3.65716
    17  H   1.0    0.15    1.00    1.43     4.59922     0.07656    -1.74470
    18  H   1.0    0.16    1.17    1.46     3.04429    -2.58257    -1.42290
    19  O   6.0   -0.23    2.94    2.63    -2.20137    -2.46563    -1.48799
    20  H   1.0    0.16    1.19    1.46    -1.61440    -1.30581    -2.82968
    21  H   1.0    0.16    1.19    1.46    -0.77878    -3.19934    -0.52471
    22  H   1.0    0.12    1.07    1.44    -3.46119    -1.65903    -0.36828
    23  N   5.0   -0.23    3.05    1.93    -5.38507    -0.17042     1.84530
    24  H   1.0    0.10    0.99    1.43    -6.09727    -1.18977     3.31661
    25  H   1.0    0.10    0.99    1.43    -6.76055     1.09132     1.36871
    26  H   1.0    0.12    1.01    1.43    -3.94663     0.87753     2.58271

  Z AO/shell   Hii/eV     exponent
  1     Wed Apr 25 08:07:45 CEST 2018   EN: 2.200 GM2: 0.406  GM3: 0.0800  RAES: 1.40
     1s    -10.707211    1.230000
  7     Wed Apr 25 08:07:45 CEST 2018   EN: 3.040 GM2: 0.461  GM3:-0.0640  RAES: 1.90
     2s    -16.686243    2.339881
     2p    -12.523956    2.014332
  8     Wed Apr 25 08:07:45 CEST 2018   EN: 3.440 GM2: 0.452  GM3:-0.0517  RAES: 1.80
     2s    -20.229985    2.439742
     2p    -15.503117    2.137023
 16     Tue Apr 24 11:44:34 CEST 2018   EN: 2.580 GM2: 0.340  GM3:-0.0502  RAES: 3.10
     3s    -20.029654    1.981333
     3p    -11.377694    2.025643
     3d     -0.420282    1.702555
 no old-style atom pair restraining (fixing) potential

molecular fragmentation (1/2 indicates fragments):
11111112222222222222222222
# atoms in fragment 1/2:     7    19
 fragment masses (1/2) :       98.07      107.11
CMA distance (Bohr)    :   5.931
constraining FC (au)   :  0.0500
           ------------------------------------------------- 
          |        Self-Consistent Charge Iterations        |
           ------------------------------------------------- 

 Ncao       : 65
 Nao        : 64
 Nshell     : 38
 Nel        : 80
 T(el)      :   300.0
 intcut     :    25.0
 scfconv/Eh :  0.100E-05
   qconv/e  :  0.100E-03
 intneglect :  0.100E-07
 broydamp   :      0.250
 iter      E             dE          RMSdq      gap      omega  full diag
   1    -50.5531899 -0.505532E+02  0.706E+00    8.01       0.0  T
   2    -50.5999381 -0.467482E-01  0.497E+00    7.50       1.0  T
   3    -50.6367852 -0.368471E-01  0.117E+00    5.72       1.0  T
   4    -50.6406239 -0.383875E-02  0.627E-01    5.89       1.0  T
   5    -50.6419002 -0.127631E-02  0.269E-01    5.95       1.0  T
   6    -50.6422412 -0.340999E-03  0.156E-01    5.98       1.0  T
   7    -50.6423866 -0.145393E-03  0.531E-02    5.97       1.0  T
   8    -50.6424047 -0.181020E-04  0.235E-02    5.97       1.0  T
   9    -50.6424075 -0.273655E-05  0.118E-02    5.98       1.7  T
  10    -50.6424082 -0.677023E-06  0.264E-03    5.98       7.4  T
  11    -50.6424082 -0.230422E-07  0.123E-03    5.98      16.0  T
  12    -50.6424082 -0.546207E-08  0.450E-04    5.98      43.6  T
  13    -50.6424082 -0.868916E-09  0.194E-04    5.98     101.1  T
speedup  0.98
cpu  time for SCC    0.02 s
wall time for SCC    0.02 s

   *** convergence criteria satisfied after 13 iterations ***

          eigenvalues
 #    :          28         29         30         31         32         33         34         35
 occ. :        2.000      2.000      2.000      2.000      2.000      2.000      2.000      2.000
 eps  :       -13.061    -12.923    -12.669    -12.345    -12.276    -12.128    -11.939    -11.660
 #    :          36         37         38         39         40         41         42         43
 occ. :        2.000      2.000      2.000      2.000      2.000      0.000      0.000      0.000
 eps  :       -11.649    -10.904    -10.621    -10.563    -10.397     -4.415     -1.573     -0.743
 #    :          44         45         46         47         48         49         50         51
 occ. :        0.000      0.000      0.000      0.000      0.000      0.000      0.000      0.000
 eps  :        -0.453      0.840      1.040      2.135      2.811      3.274      4.503      4.778


   #   Z            q   n(s)   n(p)   n(d)      C6AA      α(0)
   1  16 S      1.630  1.633  1.809  0.928    90.385    16.001
   2   8 O     -0.675  1.765  4.910  0.000    28.034     7.099
   3   8 O     -0.627  1.772  4.855  0.000    26.796     6.940
   4   8 O     -0.610  1.759  4.851  0.000    25.401     6.804
   5   8 O     -0.603  1.762  4.840  0.000    25.220     6.780
   6   1 H      0.381  0.619  0.000  0.000     0.518     1.129
   7   1 H      0.387  0.613  0.000  0.000     0.506     1.117
   8   8 O     -0.848  1.832  5.016  0.000    33.035     7.708
   9   1 H      0.215  0.785  0.000  0.000     1.045     1.606
  10   8 O     -0.851  1.826  5.024  0.000    33.100     7.716
  11   1 H      0.207  0.793  0.000  0.000     1.081     1.634
  12   8 O     -0.664  1.755  4.909  0.000    26.779     6.984
  13   1 H      0.339  0.661  0.000  0.000     0.612     1.228
  14   1 H      0.276  0.724  0.000  0.000     0.799     1.404
  15   8 O     -0.465  1.661  4.804  0.000    22.089     6.348
  16   1 H      0.402  0.598  0.000  0.000     0.476     1.081
  17   1 H      0.381  0.619  0.000  0.000     0.521     1.134
  18   1 H      0.400  0.600  0.000  0.000     0.480     1.086
  19   8 O     -0.487  1.667  4.820  0.000    22.557     6.414
  20   1 H      0.396  0.604  0.000  0.000     0.487     1.094
  21   1 H      0.395  0.605  0.000  0.000     0.489     1.096
  22   1 H      0.365  0.635  0.000  0.000     0.555     1.170
  23   7 N     -0.447  1.380  4.067  0.000    31.734     8.366
  24   1 H      0.156  0.844  0.000  0.000     1.359     1.826
  25   1 H      0.155  0.845  0.000  0.000     1.366     1.831
  26   1 H      0.192  0.808  0.000  0.000     1.147     1.677

 Mol. C6AA /au·bohr⁶  :       5516.961569
 Mol. C8AA /au·bohr⁸  :     119313.750938
 Mol. α(0) /au        :        107.271133

 
 Wiberg/Mayer (AO) data. WBOs > 0.1 written file <wbo>
 largest (>0.05) Wiberg bond orders for each atom
           total WBO             WBO to atom ...
     1  S   4.781    O    3 1.482    O    2 1.384    O    5 0.987    O    4 0.899
     2  O   1.758    S    1 1.384    O    3 0.137    O    5 0.100    O    4 0.095
     3  O   1.815    S    1 1.482    O    2 0.137    O    4 0.094    O    5 0.087
     4  O   1.964    S    1 0.899    H    7 0.770    O    2 0.095    O    3 0.094    O    5 0.057
     5  O   1.982    S    1 0.987    H    6 0.694    O    2 0.100    O    3 0.087    O    4 0.057
     6  H   0.855    O    5 0.694    O    8 0.146
     7  H   0.850    O    4 0.770    O   12 0.061
     8  O   1.629    H    9 0.945    H   21 0.180    H   18 0.175    H    6 0.146    O   19 0.059    O   15 0.057
     9  H   0.954    O    8 0.945
    10  O   1.612    H   11 0.943    H   20 0.182    H   16 0.181    H   13 0.124    O   19 0.059    O   15 0.058    O   12 0.051
    11  H   0.957    O   10 0.943
    12  O   1.807    H   14 0.911    H   13 0.760    H    7 0.061    O   10 0.051
    13  H   0.885    O   12 0.760    O   10 0.124
    14  H   0.924    O   12 0.911
    15  O   2.273    H   17 0.817    H   18 0.659    H   16 0.653    O   10 0.058    O    8 0.057
    16  H   0.838    O   15 0.653    O   10 0.181
    17  H   0.855    O   15 0.817
    18  H   0.840    O   15 0.659    O    8 0.175
    19  O   2.255    H   22 0.770    H   21 0.659    H   20 0.657    O   10 0.059    O    8 0.059
    20  H   0.843    O   19 0.657    O   10 0.182
    21  H   0.844    O   19 0.659    O    8 0.180
    22  H   0.867    O   19 0.770    N   23 0.090
    23  N   3.030    H   24 0.972    H   25 0.972    H   26 0.945    H   22 0.090
    24  H   0.976    N   23 0.972
    25  H   0.976    N   23 0.972
    26  H   0.963    N   23 0.945
 MOs/occ written to file <molden.input>
 
molecular dipole:
                 x           y           z       tot (Debye)
 q only:       -1.282      -0.758      -1.701
   full:       -1.514      -0.437      -1.742       5.970
molecular quadrupole (traceless):
                xx          xy          yy          xz          yz          zz
 q only:       10.595      -3.554       2.023     -12.289      -6.545     -12.618
  q+dip:        9.125      -6.494       2.553     -14.169     -10.786     -11.679
   full:        8.680      -6.526       3.041     -13.710     -11.396     -11.720

SCC energy    :     -50.6424082
rep           :       0.2714818
ES            :       0.2759008
AES           :      -0.0535324
AXC           :      -0.0035082
disp          :      -0.0189329
XB            :       0.0000000
fix           :       0.0000000
total E       :     -50.3705317
atomizationE  :       4.9008359     3075.32
(atE without considering molecular charge,
 total energy contains solvation terms)
H-L gap (eV)  :          5.9814
           ------------------------------------------------- 
          |                 ===============                 |
          |                   A N C O P T                   |
          |                 ===============                 |
          |          Approximate Normal Coordinate          |
          |           Rational Function Optimizer           |
           ------------------------------------------------- 
dumping coords to <xtbopt.coord> and <xtbopt.log>
 optlevel               2
 Maxcycle             520
 Maxmicro              25
 Econv         1.000000000000000E-007
 Gconv         2.000000000000000E-004
 Maxdispl       1.00000000000000     
 Hlow          5.000000000000000E-003
 S6             20.0000000000000     
 Nvar               72

generating ANC from model Hessian ...
 Shifting diagonal of input Hessian by   4.902695847859514E-003
 Lowest  eigenvalues of input Hessian
   -0.000000   -0.000000    0.000000    0.000000    0.000000    0.000000
    0.005000    0.005298    0.005923    0.006026    0.006327    0.006444
    0.007564    0.007706    0.008166    0.008941    0.010249    0.011013
 Highest eigenvalues
    1.579091    1.593744    1.601992    1.952687    2.768676    3.589995
 
cpu  time for ANC gen    0.02 s
wall time for ANC gen    0.03 s
................................................................................
.............................. CYCLE    1 ......................................
................................................................................
   1    -50.6424082 -0.506424E+02  0.421E-05    5.98       0.0  T
   2    -50.6424082 -0.292744E-11  0.324E-05    5.98     604.9  T
   3    -50.6424082 -0.230926E-11  0.130E-05    5.98    1509.6  T
speedup  1.21
cpu  time for SCC    0.00 s
wall time for SCC    0.00 s
speedup  1.00
cpu  time for grad    0.01 s
wall time for grad    0.01 s
 E :    -50.37053172  G :  0.188225    pred/act E change:  0.000D+00  0.274D-07
Maxdispl :   0.1287   ||displ|| :   0.2664   Lambda : -0.349D-01
Largest |displ|/coords:  0.1287 (  54)  0.1097 (  18)  0.0643 (  44)
................................................................................
.............................. CYCLE    2 ......................................
................................................................................
   1    -50.6556202 -0.506556E+02  0.311E-01    6.69       0.0  T
   2    -50.6558140 -0.193809E-03  0.228E-01    6.74       1.0  T
   3    -50.6559121 -0.981143E-04  0.632E-02    6.82       1.0  T
   4    -50.6559238 -0.116559E-04  0.246E-02    6.82       1.0  T
   5    -50.6559251 -0.136506E-05  0.658E-03    6.82       3.0  T
   6    -50.6559252 -0.939769E-07  0.318E-03    6.82       6.2  T
   7    -50.6559252 -0.177120E-07  0.137E-03    6.82      14.3  T
speedup  0.90
cpu  time for SCC    0.01 s
wall time for SCC    0.01 s
speedup  0.94
cpu  time for grad    0.01 s
wall time for grad    0.01 s
 E :    -50.39686057  G :  0.100179    pred/act E change:  0.000D+00 -0.263D-01
Maxdispl :   0.1129   ||displ|| :   0.2931   Lambda : -0.147D-01
Largest |displ|/coords:  0.1129 (  18)  0.0982 (  22)  0.0971 (  54)
................................................................................
.............................. CYCLE    3 ......................................
................................................................................
   1    -50.6611831 -0.506612E+02  0.281E-01    7.38       0.0  T
   2    -50.6614342 -0.251071E-03  0.202E-01    7.44       1.0  T
   3    -50.6615401 -0.105919E-03  0.658E-02    7.56       1.0  T
   4    -50.6615520 -0.118622E-04  0.194E-02    7.55       1.0  T
   5    -50.6615528 -0.772887E-06  0.477E-03    7.55       4.1  T
   6    -50.6615528 -0.431704E-07  0.251E-03    7.55       7.8  T
speedup  0.85
cpu  time for SCC    0.01 s
wall time for SCC    0.01 s
speedup  0.98
cpu  time for grad    0.01 s
wall time for grad    0.01 s
 E :    -50.40840140  G :  0.060306    pred/act E change: -0.187D-01 -0.115D-01
Maxdispl :   0.1330   ||displ|| :   0.3202   Lambda : -0.691D-02
Largest |displ|/coords:  0.1330 (  18)  0.1027 (  22)  0.0959 (   7)
................................................................................
.............................. CYCLE    4 ......................................
................................................................................
   1    -50.6631028 -0.506631E+02  0.241E-01    7.93       0.0  T
   2    -50.6633206 -0.217830E-03  0.170E-01    7.99       1.0  T
   3    -50.6634087 -0.881053E-04  0.606E-02    8.08       1.0  T
   4    -50.6634173 -0.854586E-05  0.150E-02    8.08       1.3  T
   5    -50.6634177 -0.392383E-06  0.403E-03    8.07       4.9  T
   6    -50.6634177 -0.248015E-07  0.219E-03    8.07       8.9  T
speedup  1.02
cpu  time for SCC    0.01 s
wall time for SCC    0.01 s
speedup  0.99
cpu  time for grad    0.01 s
wall time for grad    0.01 s
 E :    -50.41394212  G :  0.038626    pred/act E change: -0.796D-02 -0.554D-02
Maxdispl :   0.1985   ||displ|| :   0.4478   Lambda : -0.593D-02
Largest |displ|/coords:  0.1985 (   7)  0.1418 (  18)  0.1338 (  22)
................................................................................
.............................. CYCLE    5 ......................................
................................................................................
   1    -50.6624496 -0.506624E+02  0.351E-01    8.54       0.0  T
   2    -50.6628925 -0.442939E-03  0.250E-01    8.62       1.0  T
   3    -50.6630625 -0.169917E-03  0.910E-02    8.74       1.0  T
   4    -50.6630825 -0.199974E-04  0.227E-02    8.74       1.0  T
   5    -50.6630834 -0.954821E-06  0.593E-03    8.73       3.3  T
   6    -50.6630835 -0.536940E-07  0.327E-03    8.73       6.0  T
speedup  1.02
cpu  time for SCC    0.01 s
wall time for SCC    0.01 s
speedup  0.99
cpu  time for grad    0.01 s
wall time for grad    0.01 s
 E :    -50.41761846  G :  0.024998    pred/act E change: -0.381D-02 -0.368D-02
Maxdispl :   0.1661   ||displ|| :   0.3634   Lambda : -0.177D-02
Largest |displ|/coords:  0.1661 (   7)  0.1638 (   4)  0.1509 (  10)
................................................................................
.............................. CYCLE    6 ......................................
................................................................................
   1    -50.6651527 -0.506652E+02  0.198E-01    8.85       0.0  T
   2    -50.6652032 -0.504912E-04  0.147E-01    8.86       1.0  T
   3    -50.6652229 -0.197290E-04  0.349E-02    8.87       1.0  T
   4    -50.6652299 -0.697348E-05  0.105E-02    8.87       1.9  T
   5    -50.6652301 -0.195955E-06  0.321E-03    8.87       6.1  T
   6    -50.6652301 -0.155786E-07  0.169E-03    8.87      11.6  T
speedup  1.02
cpu  time for SCC    0.01 s
wall time for SCC    0.01 s
speedup  1.05
cpu  time for grad    0.01 s
wall time for grad    0.01 s
 E :    -50.41868237  G :  0.020297    pred/act E change: -0.356D-02 -0.106D-02
Maxdispl :   0.3052   ||displ|| :   0.4741   Lambda : -0.200D-02
Largest |displ|/coords:  0.3052 (   7)  0.1950 (   4)  0.1179 (  13)
................................................................................
.............................. CYCLE    7 ......................................
................................................................................
   1    -50.6603902 -0.506604E+02  0.405E-01    8.82       0.0  T
   2    -50.6605211 -0.130962E-03  0.303E-01    8.83       1.0  T
   3    -50.6605815 -0.604267E-04  0.648E-02    8.83       1.0  T
   4    -50.6606005 -0.190034E-04  0.173E-02    8.83       1.1  T
   5    -50.6606014 -0.806047E-06  0.482E-03    8.83       4.1  T
   6    -50.6606014 -0.257316E-07  0.276E-03    8.83       7.1  T
speedup  1.00
cpu  time for SCC    0.01 s
wall time for SCC    0.01 s
speedup  0.98
cpu  time for grad    0.01 s
wall time for grad    0.01 s
 E :    -50.41899588  G :  0.050490    pred/act E change: -0.100D-02 -0.314D-03
Maxdispl :   0.2048   ||displ|| :   0.4143   Lambda : -0.691D-02
Largest |displ|/coords:  0.2048 (   2)  0.1711 (   5)  0.1507 (   7)
................................................................................
.............................. CYCLE    8 ......................................
................................................................................
   1    -50.6733247 -0.506733E+02  0.545E-01    8.85       0.0  T
   2    -50.6735160 -0.191258E-03  0.410E-01    8.85       1.0  T
   3    -50.6736417 -0.125706E-03  0.808E-02    8.83       1.0  T
   4    -50.6736660 -0.243336E-04  0.214E-02    8.84       1.0  T
   5    -50.6736671 -0.113645E-05  0.843E-03    8.84       2.3  T
   6    -50.6736672 -0.250834E-07  0.413E-03    8.84       4.7  T
   7    -50.6736672 -0.394769E-07  0.777E-04    8.84      25.2  T
speedup  1.01
cpu  time for SCC    0.01 s
wall time for SCC    0.01 s
speedup  1.05
cpu  time for grad    0.02 s
wall time for grad    0.02 s
 E :    -50.41841563  G :  0.056855    pred/act E change: -0.122D-02  0.580D-03
Maxdispl :   0.1111   ||displ|| :   0.2147   Lambda : -0.349D-02
Largest |displ|/coords:  0.1111 (  11)  0.0776 (   8)  0.0692 (   5)
................................................................................
.............................. CYCLE    9 ......................................
................................................................................
   1    -50.6692484 -0.506692E+02  0.249E-01    8.74       0.0  T
   2    -50.6692983 -0.498370E-04  0.187E-01    8.74       1.0  T
   3    -50.6693258 -0.275573E-04  0.382E-02    8.73       1.0  T
   4    -50.6693330 -0.716744E-05  0.101E-02    8.74       1.9  T
   5    -50.6693331 -0.106366E-06  0.297E-03    8.74       6.6  T
   6    -50.6693331 -0.931013E-08  0.158E-03    8.74      12.4  T
speedup  1.02
cpu  time for SCC    0.01 s
wall time for SCC    0.01 s
speedup  0.98
cpu  time for grad    0.01 s
wall time for grad    0.01 s
 E :    -50.42024036  G :  0.014332    pred/act E change: -0.405D-02 -0.182D-02
Maxdispl :   0.1779   ||displ|| :   0.2708   Lambda : -0.116D-02
Largest |displ|/coords:  0.1779 (   4)  0.0905 (  20)  0.0755 (   6)
................................................................................
.............................. CYCLE   10 ......................................
................................................................................
   1    -50.6635140 -0.506635E+02  0.232E-01    8.72       0.0  T
   2    -50.6635516 -0.376412E-04  0.174E-01    8.72       1.0  T
   3    -50.6635744 -0.227570E-04  0.340E-02    8.73       1.0  T
   4    -50.6635798 -0.540436E-05  0.819E-03    8.73       2.4  T
   5    -50.6635799 -0.116009E-06  0.356E-03    8.73       5.5  T
   6    -50.6635799 -0.163687E-07  0.184E-03    8.73      10.7  T
   7    -50.6635799 -0.612928E-08  0.414E-04    8.73      47.4  T
speedup  0.81
cpu  time for SCC    0.01 s
wall time for SCC    0.01 s
speedup  0.96
cpu  time for grad    0.01 s
wall time for grad    0.02 s
 E :    -50.42042964  G :  0.033527    pred/act E change: -0.183D-02 -0.189D-03
Maxdispl :   0.0607   ||displ|| :   0.1248   Lambda : -0.971D-03
Largest |displ|/coords:  0.0607 (   1)  0.0468 (   2)  0.0437 (  10)
................................................................................
.............................. CYCLE   11 ......................................
................................................................................
   1    -50.6674752 -0.506675E+02  0.820E-02    8.74       0.0  T
   2    -50.6674809 -0.573258E-05  0.608E-02    8.74       1.0  T
   3    -50.6674852 -0.425088E-05  0.139E-02    8.74       1.4  T
   4    -50.6674858 -0.587363E-06  0.442E-03    8.74       4.4  T
   5    -50.6674858 -0.367137E-07  0.166E-03    8.74      11.8  T
speedup  1.02
cpu  time for SCC    0.01 s
wall time for SCC    0.00 s
speedup  0.99
cpu  time for grad    0.01 s
wall time for grad    0.01 s
 E :    -50.42106955  G :  0.015840    pred/act E change: -0.621D-03 -0.640D-03
Maxdispl :   0.1019   ||displ|| :   0.2448   Lambda : -0.878D-03
Largest |displ|/coords:  0.1019 (   1)  0.0986 (   4)  0.0953 (  10)
................................................................................
.............................. CYCLE   12 ......................................
................................................................................
   1    -50.6694985 -0.506695E+02  0.174E-01    8.71       0.0  T
   2    -50.6695150 -0.164827E-04  0.130E-01    8.71       1.0  T
   3    -50.6695277 -0.126288E-04  0.263E-02    8.71       1.0  T
   4    -50.6695296 -0.199282E-05  0.920E-03    8.72       2.1  T
   5    -50.6695298 -0.124747E-06  0.241E-03    8.72       8.1  T
   6    -50.6695298 -0.905393E-08  0.143E-03    8.72      13.7  T
speedup  1.02
cpu  time for SCC    0.01 s
wall time for SCC    0.01 s
speedup  0.99
cpu  time for grad    0.01 s
wall time for grad    0.01 s
 E :    -50.42169330  G :  0.015965    pred/act E change: -0.493D-03 -0.624D-03
Maxdispl :   0.1901   ||displ|| :   0.4189   Lambda : -0.122D-02
Largest |displ|/coords:  0.1901 (   4)  0.1738 (   1)  0.1532 (   7)
................................................................................
.............................. CYCLE   13 ......................................
................................................................................
   1    -50.6701258 -0.506701E+02  0.276E-01    8.66       0.0  T
   2    -50.6701891 -0.632851E-04  0.206E-01    8.66       1.0  T
   3    -50.6702303 -0.412512E-04  0.500E-02    8.66       1.0  T
   4    -50.6702382 -0.788289E-05  0.174E-02    8.66       1.1  T
   5    -50.6702387 -0.492298E-06  0.477E-03    8.67       4.1  T
   6    -50.6702387 -0.402066E-07  0.291E-03    8.66       6.7  T
   7    -50.6702387 -0.162478E-07  0.969E-04    8.66      20.2  T
speedup  1.03
cpu  time for SCC    0.01 s
wall time for SCC    0.01 s
speedup  1.00
cpu  time for grad    0.01 s
wall time for grad    0.01 s
 E :    -50.42258159  G :  0.016593    pred/act E change: -0.465D-03 -0.888D-03
Maxdispl :   0.2776   ||displ|| :   0.4982   Lambda : -0.148D-02
Largest |displ|/coords:  0.2776 (   4)  0.1721 (   1)  0.1683 (   7)
................................................................................
.............................. CYCLE   14 ......................................
................................................................................
   1    -50.6709856 -0.506710E+02  0.359E-01    8.61       0.0  T
   2    -50.6710825 -0.968246E-04  0.269E-01    8.62       1.0  T
   3    -50.6711430 -0.605235E-04  0.610E-02    8.63       1.0  T
   4    -50.6711559 -0.128895E-04  0.231E-02    8.63       1.0  T
   5    -50.6711567 -0.843087E-06  0.598E-03    8.63       3.3  T
   6    -50.6711568 -0.587787E-07  0.373E-03    8.63       5.3  T
   7    -50.6711568 -0.295045E-07  0.121E-03    8.63      16.3  T
   8    -50.6711568 -0.324407E-08  0.304E-04    8.63      64.5  T
speedup  1.05
cpu  time for SCC    0.01 s
wall time for SCC    0.01 s
speedup  1.01
cpu  time for grad    0.02 s
wall time for grad    0.02 s
 E :    -50.42333511  G :  0.031059    pred/act E change: -0.718D-03 -0.754D-03
Maxdispl :   0.1340   ||displ|| :   0.2792   Lambda : -0.156D-02
Largest |displ|/coords:  0.1340 (  20)  0.0944 (   3)  0.0750 (  18)
................................................................................
.............................. CYCLE   15 ......................................
................................................................................
   1    -50.6749785 -0.506750E+02  0.203E-01    8.65       0.0  T
   2    -50.6750343 -0.558208E-04  0.152E-01    8.66       1.0  T
   3    -50.6750651 -0.307974E-04  0.431E-02    8.67       1.0  T
   4    -50.6750716 -0.651320E-05  0.190E-02    8.67       1.0  T
   5    -50.6750722 -0.613864E-06  0.448E-03    8.66       4.4  T
   6    -50.6750722 -0.351528E-07  0.272E-03    8.66       7.2  T
speedup  1.03
cpu  time for SCC    0.01 s
wall time for SCC    0.01 s
speedup  1.05
cpu  time for grad    0.01 s
wall time for grad    0.01 s
 E :    -50.42446988  G :  0.023283    pred/act E change: -0.921D-03 -0.113D-02
Maxdispl :   0.2393   ||displ|| :   0.4973   Lambda : -0.263D-02
Largest |displ|/coords:  0.2393 (   3)  0.1771 (  20)  0.1543 (   7)
................................................................................
.............................. CYCLE   16 ......................................
................................................................................
   1    -50.6745738 -0.506746E+02  0.404E-01    8.70       0.0  T
   2    -50.6747707 -0.196811E-03  0.303E-01    8.71       1.0  T
   3    -50.6748814 -0.110773E-03  0.808E-02    8.70       1.0  T
   4    -50.6749042 -0.227686E-04  0.350E-02    8.70       1.0  T
   5    -50.6749063 -0.206062E-05  0.841E-03    8.70       2.3  T
   6    -50.6749063 -0.833937E-07  0.525E-03    8.70       3.7  T
   7    -50.6749064 -0.586576E-07  0.141E-03    8.70      13.9  T
speedup  1.01
cpu  time for SCC    0.01 s
wall time for SCC    0.01 s
speedup  0.98
cpu  time for grad    0.01 s
wall time for grad    0.02 s
 E :    -50.42595927  G :  0.037337    pred/act E change: -0.840D-03 -0.149D-02
Maxdispl :   0.2104   ||displ|| :   0.3892   Lambda : -0.391D-02
Largest |displ|/coords:  0.2104 (   3)  0.1244 (  23)  0.1111 (   9)
................................................................................
.............................. CYCLE   17 ......................................
................................................................................
   1    -50.6871006 -0.506871E+02  0.313E-01    8.75       0.0  T
   2    -50.6872660 -0.165418E-03  0.233E-01    8.74       1.0  T
   3    -50.6873649 -0.988605E-04  0.758E-02    8.72       1.0  T
   4    -50.6873788 -0.139657E-04  0.316E-02    8.71       1.0  T
   5    -50.6873806 -0.177063E-05  0.762E-03    8.72       2.6  T
   6    -50.6873807 -0.747605E-07  0.456E-03    8.72       4.3  T
   7    -50.6873807 -0.466511E-07  0.120E-03    8.72      16.4  T
speedup  1.03
cpu  time for SCC    0.01 s
wall time for SCC    0.01 s
speedup  1.00
cpu  time for grad    0.01 s
wall time for grad    0.01 s
 E :    -50.42742439  G :  0.039431    pred/act E change: -0.164D-02 -0.147D-02
Maxdispl :   0.1618   ||displ|| :   0.3914   Lambda : -0.326D-02
Largest |displ|/coords:  0.1618 (   9)  0.1312 (   3)  0.1152 (  21)
................................................................................
.............................. CYCLE   18 ......................................
................................................................................
   1    -50.6811562 -0.506812E+02  0.306E-01    8.58       0.0  T
   2    -50.6813360 -0.179779E-03  0.224E-01    8.59       1.0  T
   3    -50.6814148 -0.787876E-04  0.735E-02    8.58       1.0  T
   4    -50.6814317 -0.169758E-04  0.179E-02    8.58       1.1  T
   5    -50.6814325 -0.742312E-06  0.740E-03    8.58       2.7  T
   6    -50.6814326 -0.786134E-07  0.399E-03    8.58       4.9  T
   7    -50.6814326 -0.216582E-07  0.109E-03    8.58      18.0  T
speedup  1.06
cpu  time for SCC    0.01 s
wall time for SCC    0.01 s
speedup  1.01
cpu  time for grad    0.01 s
wall time for grad    0.01 s
 E :    -50.42925847  G :  0.027535    pred/act E change: -0.225D-02 -0.183D-02
Maxdispl :   0.1012   ||displ|| :   0.3165   Lambda : -0.352D-02
Largest |displ|/coords:  0.1012 (   3)  0.1009 (  18)  0.0912 (  20)
................................................................................
.............................. CYCLE   19 ......................................
................................................................................
   1    -50.6837080 -0.506837E+02  0.224E-01    8.53       0.0  T
   2    -50.6837373 -0.292675E-04  0.163E-01    8.53       1.0  T
   3    -50.6837546 -0.172903E-04  0.414E-02    8.53       1.0  T
   4    -50.6837572 -0.261119E-05  0.101E-02    8.53       2.0  T
   5    -50.6837574 -0.234169E-06  0.326E-03    8.53       6.0  T
   6    -50.6837574 -0.136881E-07  0.190E-03    8.53      10.3  T
speedup  1.03
cpu  time for SCC    0.01 s
wall time for SCC    0.01 s
speedup  1.00
cpu  time for grad    0.01 s
wall time for grad    0.01 s
 E :    -50.43023843  G :  0.030259    pred/act E change: -0.188D-02 -0.980D-03
Maxdispl :   0.1445   ||displ|| :   0.3716   Lambda : -0.316D-02
Largest |displ|/coords:  0.1445 (   3)  0.1058 (  23)  0.1037 (  24)
................................................................................
.............................. CYCLE   20 ......................................
................................................................................
   1    -50.6896800 -0.506897E+02  0.317E-01    8.60       0.0  T
   2    -50.6897744 -0.943358E-04  0.239E-01    8.58       1.0  T
   3    -50.6898495 -0.751492E-04  0.593E-02    8.53       1.0  T
   4    -50.6898590 -0.945354E-05  0.183E-02    8.53       1.1  T
   5    -50.6898597 -0.730143E-06  0.711E-03    8.54       2.8  T
   6    -50.6898598 -0.521343E-07  0.371E-03    8.54       5.3  T
   7    -50.6898598 -0.262985E-07  0.968E-04    8.54      20.3  T
speedup  1.06
cpu  time for SCC    0.01 s
wall time for SCC    0.01 s
speedup  1.01
cpu  time for grad    0.01 s
wall time for grad    0.01 s
 E :    -50.43056054  G :  0.043017    pred/act E change: -0.194D-02 -0.322D-03
Maxdispl :   0.1298   ||displ|| :   0.3748   Lambda : -0.431D-02
Largest |displ|/coords:  0.1298 (   4)  0.1294 (  21)  0.1265 (  20)
................................................................................
.............................. CYCLE   21 ......................................
................................................................................
   1    -50.6861348 -0.506861E+02  0.277E-01    8.56       0.0  T
   2    -50.6862866 -0.151844E-03  0.201E-01    8.57       1.0  T
   3    -50.6863682 -0.816123E-04  0.669E-02    8.58       1.0  T
   4    -50.6863829 -0.146398E-04  0.183E-02    8.58       1.1  T
   5    -50.6863833 -0.471060E-06  0.667E-03    8.58       2.9  T
   6    -50.6863834 -0.807182E-07  0.285E-03    8.58       6.9  T
   7    -50.6863834 -0.164651E-07  0.132E-03    8.58      14.9  T
speedup  1.04
cpu  time for SCC    0.01 s
wall time for SCC    0.01 s
speedup  0.99
cpu  time for grad    0.01 s
wall time for grad    0.02 s
 E :    -50.43100281  G :  0.031822    pred/act E change: -0.180D-02 -0.442D-03
Maxdispl :   0.0982   ||displ|| :   0.2168   Lambda : -0.275D-02
Largest |displ|/coords:  0.0982 (  21)  0.0743 (  16)  0.0640 (  12)
................................................................................
.............................. CYCLE   22 ......................................
................................................................................
   1    -50.6914060 -0.506914E+02  0.192E-01    8.56       0.0  T
   2    -50.6914713 -0.652936E-04  0.139E-01    8.57       1.0  T
   3    -50.6914993 -0.279639E-04  0.468E-02    8.57       1.0  T
   4    -50.6915032 -0.387359E-05  0.130E-02    8.58       1.5  T
   5    -50.6915035 -0.343341E-06  0.393E-03    8.58       5.0  T
   6    -50.6915035 -0.175078E-07  0.203E-03    8.58       9.7  T
speedup  1.03
cpu  time for SCC    0.01 s
wall time for SCC    0.01 s
speedup  0.99
cpu  time for grad    0.01 s
wall time for grad    0.01 s
 E :    -50.43210089  G :  0.019902    pred/act E change: -0.246D-02 -0.110D-02
Maxdispl :   0.0901   ||displ|| :   0.2024   Lambda : -0.994D-03
Largest |displ|/coords:  0.0901 (   3)  0.0724 (  18)  0.0639 (  11)
................................................................................
.............................. CYCLE   23 ......................................
................................................................................
   1    -50.6877671 -0.506878E+02  0.147E-01    8.55       0.0  T
   2    -50.6877808 -0.136386E-04  0.110E-01    8.54       1.0  T
   3    -50.6877891 -0.836968E-05  0.206E-02    8.54       1.0  T
   4    -50.6877911 -0.190856E-05  0.581E-03    8.54       3.4  T
   5    -50.6877911 -0.539991E-07  0.230E-03    8.54       8.5  T
   6    -50.6877911 -0.539124E-08  0.113E-03    8.54      17.3  T
speedup  1.03
cpu  time for SCC    0.01 s
wall time for SCC    0.01 s
speedup  0.99
cpu  time for grad    0.01 s
wall time for grad    0.01 s
 E :    -50.43248968  G :  0.017791    pred/act E change: -0.144D-02 -0.389D-03
Maxdispl :   0.0718   ||displ|| :   0.1539   Lambda : -0.662D-03
Largest |displ|/coords:  0.0718 (   4)  0.0508 (  18)  0.0461 (   2)
................................................................................
.............................. CYCLE   24 ......................................
................................................................................
   1    -50.6918175 -0.506918E+02  0.130E-01    8.65       0.0  T
   2    -50.6918344 -0.168215E-04  0.921E-02    8.64       1.0  T
   3    -50.6918432 -0.882776E-05  0.267E-02    8.62       1.0  T
   4    -50.6918444 -0.124237E-05  0.671E-03    8.62       2.9  T
   5    -50.6918445 -0.726804E-07  0.201E-03    8.62       9.8  T
   6    -50.6918445 -0.563998E-08  0.106E-03    8.62      18.6  T
speedup  1.03
cpu  time for SCC    0.01 s
wall time for SCC    0.01 s
speedup  0.99
cpu  time for grad    0.01 s
wall time for grad    0.01 s
 E :    -50.43274967  G :  0.016993    pred/act E change: -0.517D-03 -0.260D-03
Maxdispl :   0.0762   ||displ|| :   0.1508   Lambda : -0.560D-03
Largest |displ|/coords:  0.0762 (   3)  0.0751 (   2)  0.0465 (  14)
................................................................................
.............................. CYCLE   25 ......................................
................................................................................
   1    -50.6924585 -0.506925E+02  0.938E-02    8.61       0.0  T
   2    -50.6924715 -0.130460E-04  0.687E-02    8.61       1.0  T
   3    -50.6924771 -0.553483E-05  0.185E-02    8.61       1.1  T
   4    -50.6924785 -0.145209E-05  0.396E-03    8.61       5.0  T
   5    -50.6924786 -0.309499E-07  0.159E-03    8.61      12.4  T
   6    -50.6924786 -0.277162E-08  0.767E-04    8.61      25.6  T
speedup  1.00
cpu  time for SCC    0.01 s
wall time for SCC    0.01 s
speedup  1.04
cpu  time for grad    0.01 s
wall time for grad    0.01 s
 E :    -50.43311358  G :  0.014282    pred/act E change: -0.339D-03 -0.364D-03
Maxdispl :   0.1451   ||displ|| :   0.2731   Lambda : -0.770D-03
Largest |displ|/coords:  0.1451 (   2)  0.1110 (   4)  0.0875 (  13)

generating ANC from model Hessian ...
 Shifting diagonal of input Hessian by   4.659918310210105E-003
 Lowest  eigenvalues of input Hessian
   -0.000000   -0.000000   -0.000000    0.000000    0.000000    0.000000
    0.005000    0.005355    0.005790    0.005936    0.006493    0.007215
    0.007448    0.008534    0.009715    0.011463    0.012685    0.013639
 Highest eigenvalues
    1.377205    1.388486    1.415152    2.350535    3.444488    3.748030
 
cpu  time for ANC gen    0.02 s
wall time for ANC gen    0.03 s
................................................................................
.............................. CYCLE   26 ......................................
................................................................................
   1    -50.6939596 -0.506940E+02  0.146E-01    8.63       0.0  T
   2    -50.6939871 -0.275501E-04  0.108E-01    8.63       1.0  T
   3    -50.6940019 -0.148107E-04  0.298E-02    8.62       1.0  T
   4    -50.6940051 -0.320748E-05  0.658E-03    8.63       3.0  T
   5    -50.6940052 -0.108349E-06  0.316E-03    8.63       6.2  T
   6    -50.6940052 -0.109019E-07  0.145E-03    8.63      13.6  T
   7    -50.6940053 -0.400369E-08  0.424E-04    8.63      46.2  T
   8    -50.6940053 -0.331987E-09  0.100E-04    8.63     195.5  T
speedup  1.04
cpu  time for SCC    0.01 s
wall time for SCC    0.01 s
speedup  1.01
cpu  time for grad    0.02 s
wall time for grad    0.02 s
 E :    -50.43355574  G :  0.014712    pred/act E change:  0.000D+00 -0.442D-03
Maxdispl :   0.1770   ||displ|| :   0.2804   Lambda : -0.125D-02
Largest |displ|/coords:  0.1770 (   2)  0.0812 (   6)  0.0733 (  13)
................................................................................
.............................. CYCLE   27 ......................................
................................................................................
   1    -50.6918661 -0.506919E+02  0.270E-01    8.62       0.0  T
   2    -50.6918758 -0.965957E-05  0.205E-01    8.62       1.0  T
   3    -50.6918870 -0.111953E-04  0.153E-02    8.62       1.3  T
   4    -50.6918878 -0.751359E-06  0.606E-03    8.62       3.2  T
   5    -50.6918878 -0.281382E-07  0.259E-03    8.62       7.6  T
   6    -50.6918878 -0.104439E-07  0.111E-03    8.62      17.7  T
speedup  1.03
cpu  time for SCC    0.01 s
wall time for SCC    0.01 s
speedup  0.99
cpu  time for grad    0.01 s
wall time for grad    0.01 s
 E :    -50.43442800  G :  0.015240    pred/act E change:  0.000D+00 -0.872D-03
Maxdispl :   0.2594   ||displ|| :   0.3813   Lambda : -0.111D-02
Largest |displ|/coords:  0.2594 (   2)  0.1426 (   8)  0.1362 (   9)
................................................................................
.............................. CYCLE   28 ......................................
................................................................................
   1    -50.6871418 -0.506871E+02  0.310E-01    8.60       0.0  T
   2    -50.6871674 -0.256333E-04  0.235E-01    8.60       1.0  T
   3    -50.6871867 -0.192921E-04  0.265E-02    8.60       1.0  T
   4    -50.6871908 -0.410628E-05  0.854E-03    8.60       2.3  T
   5    -50.6871908 -0.575295E-07  0.390E-03    8.60       5.0  T
   6    -50.6871909 -0.175566E-07  0.166E-03    8.60      11.8  T
   7    -50.6871909 -0.529437E-08  0.378E-04    8.60      51.9  T
speedup  1.03
cpu  time for SCC    0.01 s
wall time for SCC    0.01 s
speedup  0.99
cpu  time for grad    0.01 s
wall time for grad    0.02 s
 E :    -50.43459615  G :  0.038510    pred/act E change: -0.675D-03 -0.168D-03
Maxdispl :   0.1071   ||displ|| :   0.1541   Lambda : -0.161D-02
Largest |displ|/coords:  0.1071 (   4)  0.0409 (   1)  0.0379 (  10)
................................................................................
.............................. CYCLE   29 ......................................
................................................................................
   1    -50.6921234 -0.506921E+02  0.134E-01    8.61       0.0  T
   2    -50.6921400 -0.166326E-04  0.994E-02    8.61       1.0  T
   3    -50.6921517 -0.117264E-04  0.232E-02    8.60       1.0  T
   4    -50.6921537 -0.203462E-05  0.629E-03    8.60       3.1  T
   5    -50.6921538 -0.535126E-07  0.261E-03    8.60       7.5  T
   6    -50.6921538 -0.502962E-08  0.118E-03    8.60      16.6  T
speedup  1.02
cpu  time for SCC    0.01 s
wall time for SCC    0.01 s
speedup  1.06
cpu  time for grad    0.01 s
wall time for grad    0.01 s
 E :    -50.43550613  G :  0.020072    pred/act E change: -0.635D-03 -0.910D-03
Maxdispl :   0.1795   ||displ|| :   0.2420   Lambda : -0.110D-02
Largest |displ|/coords:  0.1795 (   2)  0.0757 (  10)  0.0585 (   1)
................................................................................
.............................. CYCLE   30 ......................................
................................................................................
   1    -50.6950864 -0.506951E+02  0.141E-01    8.61       0.0  T
   2    -50.6950968 -0.103900E-04  0.105E-01    8.61       1.0  T
   3    -50.6951042 -0.736050E-05  0.172E-02    8.60       1.1  T
   4    -50.6951056 -0.146240E-05  0.496E-03    8.60       4.0  T
   5    -50.6951057 -0.311141E-07  0.210E-03    8.60       9.3  T
speedup  1.00
cpu  time for SCC    0.00 s
wall time for SCC    0.00 s
speedup  1.04
cpu  time for grad    0.01 s
wall time for grad    0.01 s
 E :    -50.43639892  G :  0.016744    pred/act E change: -0.826D-03 -0.893D-03
Maxdispl :   0.3690   ||displ|| :   0.5673   Lambda : -0.278D-02
Largest |displ|/coords:  0.3690 (   2)  0.1378 (   8)  0.1355 (  13)
................................................................................
.............................. CYCLE   31 ......................................
................................................................................
   1    -50.7011021 -0.507011E+02  0.390E-01    8.62       0.0  T
   2    -50.7012038 -0.101702E-03  0.294E-01    8.61       1.0  T
   3    -50.7012774 -0.736727E-04  0.536E-02    8.59       1.0  T
   4    -50.7012926 -0.151652E-04  0.144E-02    8.59       1.4  T
   5    -50.7012928 -0.217717E-06  0.687E-03    8.59       2.9  T
   6    -50.7012928 -0.371873E-07  0.282E-03    8.59       7.0  T
   7    -50.7012929 -0.135195E-07  0.718E-04    8.59      27.3  T
speedup  1.04
cpu  time for SCC    0.01 s
wall time for SCC    0.01 s
speedup  0.99
cpu  time for grad    0.01 s
wall time for grad    0.02 s
 E :    -50.43878141  G :  0.016301    pred/act E change: -0.584D-03 -0.238D-02
Maxdispl :   0.2598   ||displ|| :   0.5548   Lambda : -0.287D-02
Largest |displ|/coords:  0.2598 (   2)  0.1806 (   9)  0.1420 (   8)
................................................................................
.............................. CYCLE   32 ......................................
................................................................................
   1    -50.7085122 -0.507085E+02  0.407E-01    8.58       0.0  T
   2    -50.7086342 -0.121972E-03  0.308E-01    8.57       1.0  T
   3    -50.7087381 -0.103925E-03  0.589E-02    8.55       1.0  T
   4    -50.7087542 -0.160675E-04  0.166E-02    8.55       1.2  T
   5    -50.7087545 -0.322545E-06  0.761E-03    8.55       2.6  T
   6    -50.7087545 -0.349963E-07  0.303E-03    8.55       6.5  T
   7    -50.7087546 -0.223685E-07  0.646E-04    8.55      30.4  T
   8    -50.7087546 -0.122122E-08  0.241E-04    8.55      81.5  T
speedup  1.05
cpu  time for SCC    0.01 s
wall time for SCC    0.01 s
speedup  0.93
cpu  time for grad    0.01 s
wall time for grad    0.02 s
 E :    -50.43929459  G :  0.040225    pred/act E change: -0.184D-02 -0.513D-03
Maxdispl :   0.1168   ||displ|| :   0.2080   Lambda : -0.274D-02
Largest |displ|/coords:  0.1168 (   2)  0.0712 (  13)  0.0648 (   8)
................................................................................
.............................. CYCLE   33 ......................................
................................................................................
   1    -50.7086236 -0.507086E+02  0.167E-01    8.55       0.0  T
   2    -50.7086452 -0.216553E-04  0.125E-01    8.55       1.0  T
   3    -50.7086643 -0.191170E-04  0.263E-02    8.56       1.0  T
   4    -50.7086667 -0.242160E-05  0.810E-03    8.56       2.4  T
   5    -50.7086668 -0.648085E-07  0.323E-03    8.56       6.1  T
   6    -50.7086668 -0.121584E-07  0.149E-03    8.56      13.2  T
speedup  1.00
cpu  time for SCC    0.01 s
wall time for SCC    0.01 s
speedup  1.04
cpu  time for grad    0.01 s
wall time for grad    0.01 s
 E :    -50.44046358  G :  0.016112    pred/act E change: -0.188D-02 -0.117D-02
Maxdispl :   0.1594   ||displ|| :   0.2189   Lambda : -0.118D-02
Largest |displ|/coords:  0.1594 (   2)  0.0645 (  14)  0.0421 (  19)
................................................................................
.............................. CYCLE   34 ......................................
................................................................................
   1    -50.7004732 -0.507005E+02  0.134E-01    8.52       0.0  T
   2    -50.7004837 -0.104972E-04  0.101E-01    8.52       1.0  T
   3    -50.7004939 -0.102084E-04  0.186E-02    8.53       1.1  T
   4    -50.7004949 -0.948660E-06  0.695E-03    8.53       2.8  T
   5    -50.7004949 -0.581832E-07  0.228E-03    8.53       8.6  T
   6    -50.7004949 -0.714643E-08  0.122E-03    8.53      16.1  T
speedup  1.02
cpu  time for SCC    0.01 s
wall time for SCC    0.01 s
speedup  0.98
cpu  time for grad    0.01 s
wall time for grad    0.01 s
 E :    -50.44054019  G :  0.023789    pred/act E change: -0.143D-02 -0.766D-04
Maxdispl :   0.0576   ||displ|| :   0.1411   Lambda : -0.103D-02
Largest |displ|/coords:  0.0576 (   1)  0.0543 (  14)  0.0474 (   2)
................................................................................
.............................. CYCLE   35 ......................................
................................................................................
   1    -50.7075510 -0.507076E+02  0.903E-02    8.55       0.0  T
   2    -50.7075593 -0.827994E-05  0.674E-02    8.55       1.0  T
   3    -50.7075658 -0.651379E-05  0.172E-02    8.54       1.1  T
   4    -50.7075667 -0.897994E-06  0.456E-03    8.54       4.3  T
   5    -50.7075667 -0.342906E-07  0.182E-03    8.54      10.8  T
speedup  1.02
cpu  time for SCC    0.00 s
wall time for SCC    0.00 s
speedup  0.98
cpu  time for grad    0.01 s
wall time for grad    0.01 s
 E :    -50.44119539  G :  0.011374    pred/act E change: -0.617D-03 -0.655D-03
Maxdispl :   0.0775   ||displ|| :   0.1993   Lambda : -0.451D-03
Largest |displ|/coords:  0.0775 (  14)  0.0724 (   2)  0.0532 (   5)
................................................................................
.............................. CYCLE   36 ......................................
................................................................................
   1    -50.7092618 -0.507093E+02  0.126E-01    8.53       0.0  T
   2    -50.7092737 -0.119018E-04  0.945E-02    8.53       1.0  T
   3    -50.7092819 -0.819897E-05  0.192E-02    8.53       1.0  T
   4    -50.7092836 -0.171175E-05  0.569E-03    8.53       3.4  T
   5    -50.7092837 -0.538093E-07  0.218E-03    8.53       9.0  T
   6    -50.7092837 -0.554930E-08  0.106E-03    8.53      18.6  T
speedup  1.05
cpu  time for SCC    0.01 s
wall time for SCC    0.01 s
speedup  1.06
cpu  time for grad    0.01 s
wall time for grad    0.01 s
 E :    -50.44139852  G :  0.012234    pred/act E change: -0.528D-03 -0.203D-03
Maxdispl :   0.0853   ||displ|| :   0.1851   Lambda : -0.406D-03
Largest |displ|/coords:  0.0853 (   1)  0.0760 (  14)  0.0591 (   9)
................................................................................
.............................. CYCLE   37 ......................................
................................................................................
   1    -50.7125544 -0.507126E+02  0.112E-01    8.54       0.0  T
   2    -50.7125619 -0.744980E-05  0.829E-02    8.54       1.0  T
   3    -50.7125659 -0.402867E-05  0.163E-02    8.54       1.2  T
   4    -50.7125669 -0.105395E-05  0.433E-03    8.54       4.5  T
   5    -50.7125670 -0.348129E-07  0.145E-03    8.54      13.5  T
   6    -50.7125670 -0.227222E-08  0.799E-04    8.54      24.5  T
speedup  0.88
cpu  time for SCC    0.00 s
wall time for SCC    0.01 s
speedup  0.99
cpu  time for grad    0.01 s
wall time for grad    0.01 s
 E :    -50.44158491  G :  0.012856    pred/act E change: -0.234D-03 -0.186D-03
Maxdispl :   0.1169   ||displ|| :   0.2074   Lambda : -0.412D-03
Largest |displ|/coords:  0.1169 (   4)  0.1090 (   1)  0.0673 (   9)
................................................................................
.............................. CYCLE   38 ......................................
................................................................................
   1    -50.7122619 -0.507123E+02  0.115E-01    8.53       0.0  T
   2    -50.7122700 -0.815473E-05  0.857E-02    8.53       1.0  T
   3    -50.7122741 -0.409389E-05  0.167E-02    8.53       1.2  T
   4    -50.7122753 -0.117059E-05  0.542E-03    8.53       3.6  T
   5    -50.7122753 -0.372273E-07  0.165E-03    8.53      11.9  T
   6    -50.7122753 -0.385521E-08  0.922E-04    8.53      21.3  T
speedup  0.88
cpu  time for SCC    0.00 s
wall time for SCC    0.01 s
speedup  0.99
cpu  time for grad    0.01 s
wall time for grad    0.01 s
 E :    -50.44175196  G :  0.014441    pred/act E change: -0.210D-03 -0.167D-03
Maxdispl :   0.1030   ||displ|| :   0.1451   Lambda : -0.368D-03
Largest |displ|/coords:  0.1030 (   1)  0.0416 (   5)  0.0305 (   6)
................................................................................
.............................. CYCLE   39 ......................................
................................................................................
   1    -50.7116338 -0.507116E+02  0.784E-02    8.53       0.0  T
   2    -50.7116393 -0.552217E-05  0.579E-02    8.53       1.0  T
   3    -50.7116416 -0.226626E-05  0.133E-02    8.53       1.5  T
   4    -50.7116424 -0.795747E-06  0.344E-03    8.53       5.7  T
   5    -50.7116424 -0.152603E-07  0.104E-03    8.53      18.9  T
   6    -50.7116424 -0.113384E-08  0.543E-04    8.53      36.1  T
speedup  0.88
cpu  time for SCC    0.00 s
wall time for SCC    0.01 s
speedup  1.00
cpu  time for grad    0.01 s
wall time for grad    0.01 s
 E :    -50.44198694  G :  0.010372    pred/act E change: -0.215D-03 -0.235D-03
Maxdispl :   0.1414   ||displ|| :   0.2237   Lambda : -0.415D-03
Largest |displ|/coords:  0.1414 (   1)  0.0752 (   2)  0.0498 (  14)
................................................................................
.............................. CYCLE   40 ......................................
................................................................................
   1    -50.7113515 -0.507114E+02  0.136E-01    8.50       0.0  T
   2    -50.7113758 -0.243518E-04  0.994E-02    8.50       1.0  T
   3    -50.7113840 -0.814344E-05  0.263E-02    8.50       1.0  T
   4    -50.7113870 -0.299974E-05  0.578E-03    8.50       3.4  T
   5    -50.7113870 -0.572865E-07  0.195E-03    8.50      10.0  T
   6    -50.7113870 -0.489266E-08  0.101E-03    8.50      19.5  T
speedup  0.88
cpu  time for SCC    0.01 s
wall time for SCC    0.01 s
speedup  1.00
cpu  time for grad    0.01 s
wall time for grad    0.01 s
 E :    -50.44223753  G :  0.010335    pred/act E change: -0.188D-03 -0.251D-03
Maxdispl :   0.2239   ||displ|| :   0.3177   Lambda : -0.481D-03
Largest |displ|/coords:  0.2239 (   1)  0.0813 (  13)  0.0715 (   4)
................................................................................
.............................. CYCLE   41 ......................................
................................................................................
   1    -50.7118713 -0.507119E+02  0.207E-01    8.46       0.0  T
   2    -50.7119508 -0.794745E-04  0.150E-01    8.46       1.0  T
   3    -50.7119781 -0.273875E-04  0.458E-02    8.46       1.0  T
   4    -50.7119864 -0.828892E-05  0.983E-03    8.46       2.0  T
   5    -50.7119866 -0.176914E-06  0.335E-03    8.45       5.8  T
   6    -50.7119866 -0.131817E-07  0.166E-03    8.45      11.8  T
   7    -50.7119866 -0.605206E-08  0.485E-04    8.45      40.5  T
speedup  1.08
cpu  time for SCC    0.01 s
wall time for SCC    0.01 s
speedup  1.01
cpu  time for grad    0.01 s
wall time for grad    0.01 s
 E :    -50.44254739  G :  0.016968    pred/act E change: -0.218D-03 -0.310D-03
Maxdispl :   0.1972   ||displ|| :   0.2867   Lambda : -0.638D-03
Largest |displ|/coords:  0.1972 (   1)  0.0806 (  13)  0.0657 (   3)
................................................................................
.............................. CYCLE   42 ......................................
................................................................................
   1    -50.7145576 -0.507146E+02  0.195E-01    8.41       0.0  T
   2    -50.7146727 -0.115028E-03  0.140E-01    8.41       1.0  T
   3    -50.7147133 -0.406239E-04  0.513E-02    8.40       1.0  T
   4    -50.7147206 -0.729614E-05  0.990E-03    8.40       2.0  T
   5    -50.7147208 -0.253729E-06  0.346E-03    8.40       5.7  T
   6    -50.7147209 -0.130110E-07  0.169E-03    8.40      11.6  T
   7    -50.7147209 -0.712453E-08  0.516E-04    8.40      38.0  T
speedup  1.04
cpu  time for SCC    0.01 s
wall time for SCC    0.01 s
speedup  1.00
cpu  time for grad    0.01 s
wall time for grad    0.01 s
 E :    -50.44303045  G :  0.015535    pred/act E change: -0.265D-03 -0.483D-03
Maxdispl :   0.1762   ||displ|| :   0.3375   Lambda : -0.106D-02
Largest |displ|/coords:  0.1762 (   3)  0.1417 (  13)  0.0982 (   1)
................................................................................
.............................. CYCLE   43 ......................................
................................................................................
   1    -50.7200969 -0.507201E+02  0.231E-01    8.38       0.0  T
   2    -50.7203126 -0.215721E-03  0.164E-01    8.37       1.0  T
   3    -50.7203952 -0.825552E-04  0.681E-02    8.36       1.0  T
   4    -50.7204049 -0.971461E-05  0.130E-02    8.36       1.5  T
   5    -50.7204054 -0.522040E-06  0.464E-03    8.36       4.2  T
   6    -50.7204055 -0.271411E-07  0.220E-03    8.36       8.9  T
   7    -50.7204055 -0.123832E-07  0.672E-04    8.36      29.2  T
speedup  1.04
cpu  time for SCC    0.01 s
wall time for SCC    0.01 s
speedup  1.00
cpu  time for grad    0.01 s
wall time for grad    0.01 s
 E :    -50.44365572  G :  0.016196    pred/act E change: -0.345D-03 -0.625D-03
Maxdispl :   0.1347   ||displ|| :   0.2331   Lambda : -0.825D-03
Largest |displ|/coords:  0.1347 (   3)  0.0690 (   4)  0.0641 (   7)
................................................................................
.............................. CYCLE   44 ......................................
................................................................................
   1    -50.7216583 -0.507217E+02  0.104E-01    8.36       0.0  T
   2    -50.7216660 -0.772278E-05  0.758E-02    8.36       1.0  T
   3    -50.7216708 -0.483508E-05  0.164E-02    8.36       1.2  T
   4    -50.7216716 -0.749117E-06  0.592E-03    8.36       3.3  T
   5    -50.7216716 -0.472291E-07  0.147E-03    8.36      13.4  T
   6    -50.7216716 -0.405810E-08  0.846E-04    8.36      23.2  T
speedup  1.03
cpu  time for SCC    0.01 s
wall time for SCC    0.01 s
speedup  0.99
cpu  time for grad    0.01 s
wall time for grad    0.01 s
 E :    -50.44411099  G :  0.017997    pred/act E change: -0.590D-03 -0.455D-03
Maxdispl :   0.2065   ||displ|| :   0.3921   Lambda : -0.927D-03
Largest |displ|/coords:  0.2065 (   2)  0.1980 (   3)  0.1237 (   1)
................................................................................
.............................. CYCLE   45 ......................................
................................................................................
   1    -50.7170546 -0.507171E+02  0.195E-01    8.31       0.0  T
   2    -50.7171213 -0.667731E-04  0.143E-01    8.30       1.0  T
   3    -50.7171492 -0.279065E-04  0.424E-02    8.30       1.0  T
   4    -50.7171562 -0.699805E-05  0.119E-02    8.30       1.6  T
   5    -50.7171565 -0.256056E-06  0.362E-03    8.30       5.4  T
   6    -50.7171565 -0.196433E-07  0.205E-03    8.30       9.6  T
   7    -50.7171565 -0.739166E-08  0.555E-04    8.30      35.3  T
speedup  0.88
cpu  time for SCC    0.01 s
wall time for SCC    0.01 s
speedup  0.92
cpu  time for grad    0.01 s
wall time for grad    0.02 s
 E :    -50.44436619  G :  0.016743    pred/act E change: -0.435D-03 -0.255D-03
Maxdispl :   0.1507   ||displ|| :   0.3557   Lambda : -0.119D-02
Largest |displ|/coords:  0.1507 (   1)  0.1122 (   8)  0.1045 (   4)
................................................................................
.............................. CYCLE   46 ......................................
................................................................................
   1    -50.7205212 -0.507205E+02  0.206E-01    8.35       0.0  T
   2    -50.7205376 -0.164470E-04  0.152E-01    8.35       1.0  T
   3    -50.7205488 -0.112207E-04  0.257E-02    8.34       1.0  T
   4    -50.7205508 -0.191197E-05  0.820E-03    8.34       2.4  T
   5    -50.7205508 -0.835682E-07  0.273E-03    8.34       7.2  T
   6    -50.7205508 -0.957649E-08  0.146E-03    8.34      13.4  T
speedup  1.03
cpu  time for SCC    0.01 s
wall time for SCC    0.01 s
speedup  0.99
cpu  time for grad    0.01 s
wall time for grad    0.01 s
 E :    -50.44487875  G :  0.018097    pred/act E change: -0.535D-03 -0.513D-03
Maxdispl :   0.0987   ||displ|| :   0.2219   Lambda : -0.661D-03
Largest |displ|/coords:  0.0987 (   5)  0.0955 (   8)  0.0776 (   3)
................................................................................
.............................. CYCLE   47 ......................................
................................................................................
   1    -50.7219736 -0.507220E+02  0.118E-01    8.35       0.0  T
   2    -50.7219833 -0.967281E-05  0.868E-02    8.35       1.0  T
   3    -50.7219874 -0.407951E-05  0.178E-02    8.34       1.1  T
   4    -50.7219888 -0.142364E-05  0.523E-03    8.34       3.8  T
   5    -50.7219888 -0.438073E-07  0.148E-03    8.34      13.3  T
   6    -50.7219888 -0.254721E-08  0.826E-04    8.34      23.7  T
speedup  1.03
cpu  time for SCC    0.01 s
wall time for SCC    0.01 s
speedup  1.05
cpu  time for grad    0.01 s
wall time for grad    0.01 s
 E :    -50.44527318  G :  0.012545    pred/act E change: -0.671D-03 -0.394D-03
Maxdispl :   0.1652   ||displ|| :   0.3330   Lambda : -0.591D-03
Largest |displ|/coords:  0.1652 (   2)  0.1366 (  10)  0.1195 (   8)
................................................................................
.............................. CYCLE   48 ......................................
................................................................................
   1    -50.7220580 -0.507221E+02  0.184E-01    8.32       0.0  T
   2    -50.7220677 -0.970407E-05  0.137E-01    8.32       1.0  T
   3    -50.7220733 -0.560588E-05  0.220E-02    8.32       1.0  T
   4    -50.7220748 -0.150628E-05  0.867E-03    8.32       2.3  T
   5    -50.7220749 -0.702474E-07  0.176E-03    8.32      11.2  T
   6    -50.7220749 -0.381024E-08  0.110E-03    8.32      17.8  T
speedup  1.02
cpu  time for SCC    0.01 s
wall time for SCC    0.01 s
speedup  0.97
cpu  time for grad    0.01 s
wall time for grad    0.01 s
 E :    -50.44562877  G :  0.009160    pred/act E change: -0.347D-03 -0.356D-03
Maxdispl :   0.1681   ||displ|| :   0.3840   Lambda : -0.477D-03
Largest |displ|/coords:  0.1681 (   5)  0.1680 (  10)  0.1537 (   3)
................................................................................
.............................. CYCLE   49 ......................................
................................................................................
   1    -50.7175742 -0.507176E+02  0.211E-01    8.25       0.0  T
   2    -50.7175955 -0.213621E-04  0.157E-01    8.24       1.0  T
   3    -50.7176048 -0.929078E-05  0.285E-02    8.23       1.0  T
   4    -50.7176083 -0.351321E-05  0.993E-03    8.24       2.0  T
   5    -50.7176084 -0.995572E-07  0.228E-03    8.24       8.6  T
   6    -50.7176084 -0.898405E-08  0.131E-03    8.24      15.0  T
speedup  1.02
cpu  time for SCC    0.01 s
wall time for SCC    0.01 s
speedup  1.04
cpu  time for grad    0.01 s
wall time for grad    0.01 s
 E :    -50.44584091  G :  0.015342    pred/act E change: -0.328D-03 -0.212D-03
Maxdispl :   0.1046   ||displ|| :   0.1585   Lambda : -0.406D-03
Largest |displ|/coords:  0.1046 (  10)  0.0704 (   8)  0.0376 (   5)
................................................................................
.............................. CYCLE   50 ......................................
................................................................................
   1    -50.7212955 -0.507213E+02  0.789E-02    8.29       0.0  T
   2    -50.7212975 -0.199686E-05  0.592E-02    8.29       1.0  T
   3    -50.7212988 -0.130127E-05  0.835E-03    8.29       2.3  T
   4    -50.7212991 -0.275701E-06  0.350E-03    8.29       5.6  T
   5    -50.7212991 -0.179606E-07  0.782E-04    8.29      25.1  T
   6    -50.7212991 -0.620304E-09  0.484E-04    8.29      40.5  T
speedup  1.02
cpu  time for SCC    0.01 s
wall time for SCC    0.01 s
speedup  0.97
cpu  time for grad    0.01 s
wall time for grad    0.01 s
 E :    -50.44606352  G :  0.011988    pred/act E change: -0.274D-03 -0.223D-03
Maxdispl :   0.1291   ||displ|| :   0.2465   Lambda : -0.487D-03
Largest |displ|/coords:  0.1291 (  10)  0.1153 (   9)  0.0792 (   7)
................................................................................
.............................. CYCLE   51 ......................................
................................................................................
   1    -50.7240655 -0.507241E+02  0.117E-01    8.28       0.0  T
   2    -50.7240706 -0.511524E-05  0.873E-02    8.28       1.0  T
   3    -50.7240738 -0.322377E-05  0.144E-02    8.29       1.4  T
   4    -50.7240745 -0.683603E-06  0.466E-03    8.29       4.2  T
   5    -50.7240745 -0.288298E-07  0.127E-03    8.29      15.5  T
   6    -50.7240746 -0.131062E-08  0.751E-04    8.29      26.1  T
speedup  1.02
cpu  time for SCC    0.01 s
wall time for SCC    0.01 s
speedup  0.97
cpu  time for grad    0.01 s
wall time for grad    0.01 s
 E :    -50.44630713  G :  0.010266    pred/act E change: -0.208D-03 -0.244D-03
Maxdispl :   0.2044   ||displ|| :   0.3369   Lambda : -0.425D-03
Largest |displ|/coords:  0.2044 (  10)  0.1483 (   8)  0.0865 (   2)
................................................................................
.............................. CYCLE   52 ......................................
................................................................................
   1    -50.7206828 -0.507207E+02  0.216E-01    8.25       0.0  T
   2    -50.7206946 -0.118248E-04  0.159E-01    8.26       1.0  T
   3    -50.7207028 -0.822947E-05  0.254E-02    8.26       1.0  T
   4    -50.7207041 -0.131316E-05  0.903E-03    8.26       2.2  T
   5    -50.7207042 -0.107352E-06  0.200E-03    8.26       9.8  T
   6    -50.7207042 -0.681005E-08  0.127E-03    8.26      15.5  T
speedup  1.00
cpu  time for SCC    0.01 s
wall time for SCC    0.01 s
speedup  1.03
cpu  time for grad    0.01 s
wall time for grad    0.01 s
 E :    -50.44650637  G :  0.013194    pred/act E change: -0.258D-03 -0.199D-03
Maxdispl :   0.0698   ||displ|| :   0.1446   Lambda : -0.298D-03
Largest |displ|/coords:  0.0698 (   1)  0.0590 (   8)  0.0555 (  10)

generating ANC from model Hessian ...
 Shifting diagonal of input Hessian by   4.477845847662042E-003
 Lowest  eigenvalues of input Hessian
   -0.000000   -0.000000   -0.000000    0.000000    0.000000    0.000000
    0.005000    0.005496    0.005871    0.006680    0.006899    0.007388
    0.008544    0.010094    0.010900    0.010943    0.011708    0.013488
 Highest eigenvalues
    1.374984    1.385945    1.432873    2.159579    3.508334    3.761358
 
cpu  time for ANC gen    0.03 s
wall time for ANC gen    0.03 s
................................................................................
.............................. CYCLE   53 ......................................
................................................................................
   1    -50.7216184 -0.507216E+02  0.839E-02    8.27       0.0  T
   2    -50.7216224 -0.404571E-05  0.610E-02    8.27       1.0  T
   3    -50.7216245 -0.211411E-05  0.146E-02    8.28       1.3  T
   4    -50.7216250 -0.428264E-06  0.434E-03    8.28       4.5  T
   5    -50.7216250 -0.263856E-07  0.101E-03    8.28      19.5  T
   6    -50.7216250 -0.190911E-08  0.578E-04    8.28      33.9  T
   7    -50.7216250 -0.717819E-09  0.232E-04    8.28      84.5  T
speedup  0.87
cpu  time for SCC    0.01 s
wall time for SCC    0.01 s
speedup  0.94
cpu  time for grad    0.01 s
wall time for grad    0.02 s
 E :    -50.44670876  G :  0.007995    pred/act E change:  0.000D+00 -0.202D-03
Maxdispl :   0.0695   ||displ|| :   0.1292   Lambda : -0.273D-03
Largest |displ|/coords:  0.0695 (   5)  0.0534 (   8)  0.0497 (   7)
................................................................................
.............................. CYCLE   54 ......................................
................................................................................
   1    -50.7227885 -0.507228E+02  0.878E-02    8.30       0.0  T
   2    -50.7227899 -0.144249E-05  0.650E-02    8.30       1.0  T
   3    -50.7227914 -0.143351E-05  0.979E-03    8.30       2.0  T
   4    -50.7227915 -0.110539E-06  0.278E-03    8.30       7.1  T
   5    -50.7227915 -0.134904E-07  0.822E-04    8.30      23.9  T
speedup  1.02
cpu  time for SCC    0.00 s
wall time for SCC    0.00 s
speedup  1.04
cpu  time for grad    0.01 s
wall time for grad    0.01 s
 E :    -50.44691772  G :  0.005110    pred/act E change:  0.000D+00 -0.209D-03
Maxdispl :   0.1852   ||displ|| :   0.3542   Lambda : -0.524D-03
Largest |displ|/coords:  0.1852 (   3)  0.1847 (   8)  0.1063 (   7)
................................................................................
.............................. CYCLE   55 ......................................
................................................................................
   1    -50.7233420 -0.507233E+02  0.216E-01    8.34       0.0  T
   2    -50.7233511 -0.910847E-05  0.158E-01    8.34       1.0  T
   3    -50.7233596 -0.853070E-05  0.237E-02    8.33       1.0  T
   4    -50.7233603 -0.698103E-06  0.725E-03    8.34       2.7  T
   5    -50.7233604 -0.823198E-07  0.213E-03    8.34       9.2  T
   6    -50.7233604 -0.631179E-08  0.128E-03    8.34      15.3  T
speedup  0.98
cpu  time for SCC    0.01 s
wall time for SCC    0.01 s
speedup  1.02
cpu  time for grad    0.01 s
wall time for grad    0.01 s
 E :    -50.44724716  G :  0.007713    pred/act E change: -0.139D-03 -0.329D-03
Maxdispl :   0.1920   ||displ|| :   0.3983   Lambda : -0.456D-03
Largest |displ|/coords:  0.1920 (   3)  0.1625 (   7)  0.1359 (   5)
................................................................................
.............................. CYCLE   56 ......................................
................................................................................
   1    -50.7214682 -0.507215E+02  0.238E-01    8.34       0.0  T
   2    -50.7214791 -0.108243E-04  0.174E-01    8.34       1.0  T
   3    -50.7214898 -0.107369E-04  0.272E-02    8.34       1.0  T
   4    -50.7214905 -0.703040E-06  0.761E-03    8.34       2.6  T
   5    -50.7214906 -0.850403E-07  0.220E-03    8.34       8.9  T
   6    -50.7214906 -0.647260E-08  0.133E-03    8.34      14.7  T
speedup  1.00
cpu  time for SCC    0.01 s
wall time for SCC    0.01 s
speedup  0.97
cpu  time for grad    0.01 s
wall time for grad    0.01 s
 E :    -50.44757641  G :  0.013302    pred/act E change: -0.295D-03 -0.329D-03
Maxdispl :   0.2377   ||displ|| :   0.5242   Lambda : -0.700D-03
Largest |displ|/coords:  0.2377 (   3)  0.1919 (   9)  0.1918 (   8)
................................................................................
.............................. CYCLE   57 ......................................
................................................................................
   1    -50.7186583 -0.507187E+02  0.323E-01    8.30       0.0  T
   2    -50.7186834 -0.251209E-04  0.233E-01    8.30       1.0  T
   3    -50.7187036 -0.201676E-04  0.418E-02    8.30       1.0  T
   4    -50.7187056 -0.200902E-05  0.161E-02    8.30       1.2  T
   5    -50.7187059 -0.275541E-06  0.278E-03    8.30       7.1  T
   6    -50.7187059 -0.923964E-08  0.184E-03    8.30      10.7  T
speedup  1.02
cpu  time for SCC    0.01 s
wall time for SCC    0.01 s
speedup  1.04
cpu  time for grad    0.01 s
wall time for grad    0.01 s
 E :    -50.44815458  G :  0.017005    pred/act E change: -0.264D-03 -0.578D-03
Maxdispl :   0.2209   ||displ|| :   0.5056   Lambda : -0.113D-02
Largest |displ|/coords:  0.2209 (   9)  0.1970 (  18)  0.1677 (   3)
................................................................................
.............................. CYCLE   58 ......................................
................................................................................
   1    -50.7212547 -0.507213E+02  0.307E-01    8.25       0.0  T
   2    -50.7212886 -0.339160E-04  0.220E-01    8.25       1.0  T
   3    -50.7213080 -0.193940E-04  0.458E-02    8.26       1.0  T
   4    -50.7213111 -0.309409E-05  0.184E-02    8.25       1.1  T
   5    -50.7213114 -0.291459E-06  0.248E-03    8.25       7.9  T
   6    -50.7213114 -0.884437E-08  0.156E-03    8.25      12.6  T
speedup  1.02
cpu  time for SCC    0.01 s
wall time for SCC    0.01 s
speedup  0.97
cpu  time for grad    0.01 s
wall time for grad    0.01 s
 E :    -50.44869849  G :  0.021651    pred/act E change: -0.446D-03 -0.544D-03
Maxdispl :   0.1571   ||displ|| :   0.3671   Lambda : -0.852D-03
Largest |displ|/coords:  0.1571 (   1)  0.1444 (   8)  0.1289 (   9)
................................................................................
.............................. CYCLE   59 ......................................
................................................................................
   1    -50.7174641 -0.507175E+02  0.196E-01    8.21       0.0  T
   2    -50.7174757 -0.115931E-04  0.144E-01    8.21       1.0  T
   3    -50.7174821 -0.635930E-05  0.266E-02    8.22       1.0  T
   4    -50.7174835 -0.148075E-05  0.106E-02    8.21       1.9  T
   5    -50.7174836 -0.835596E-07  0.181E-03    8.21      10.8  T
   6    -50.7174836 -0.550678E-08  0.112E-03    8.21      17.5  T
speedup  0.98
cpu  time for SCC    0.01 s
wall time for SCC    0.01 s
speedup  1.02
cpu  time for grad    0.01 s
wall time for grad    0.01 s
 E :    -50.44924087  G :  0.022031    pred/act E change: -0.707D-03 -0.542D-03
Maxdispl :   0.2002   ||displ|| :   0.3307   Lambda : -0.187D-02
Largest |displ|/coords:  0.2002 (   1)  0.0813 (  32)  0.0765 (   4)
................................................................................
.............................. CYCLE   60 ......................................
................................................................................
   1    -50.7280618 -0.507281E+02  0.262E-01    8.62       0.0  T
   2    -50.7280861 -0.242697E-04  0.188E-01    8.61       1.0  T
   3    -50.7281007 -0.146447E-04  0.433E-02    8.59       1.0  T
   4    -50.7281025 -0.183642E-05  0.108E-02    8.59       1.8  T
   5    -50.7281027 -0.173587E-06  0.254E-03    8.59       7.7  T
   6    -50.7281027 -0.621363E-08  0.129E-03    8.59      15.2  T
speedup  0.98
cpu  time for SCC    0.01 s
wall time for SCC    0.01 s
speedup  1.03
cpu  time for grad    0.01 s
wall time for grad    0.01 s
 E :    -50.44957252  G :  0.021580    pred/act E change: -0.483D-03 -0.332D-03
Maxdispl :   0.2102   ||displ|| :   0.4604   Lambda : -0.165D-02
Largest |displ|/coords:  0.2102 (   7)  0.1964 (   9)  0.1609 (   3)
................................................................................
.............................. CYCLE   61 ......................................
................................................................................
   1    -50.7245356 -0.507245E+02  0.298E-01    8.47       0.0  T
   2    -50.7245626 -0.269596E-04  0.215E-01    8.48       1.0  T
   3    -50.7245807 -0.180870E-04  0.436E-02    8.49       1.0  T
   4    -50.7245833 -0.260064E-05  0.169E-02    8.48       1.2  T
   5    -50.7245835 -0.280072E-06  0.274E-03    8.48       7.1  T
   6    -50.7245835 -0.113914E-07  0.184E-03    8.48      10.7  T
speedup  0.98
cpu  time for SCC    0.01 s
wall time for SCC    0.01 s
speedup  1.01
cpu  time for grad    0.01 s
wall time for grad    0.01 s
 E :    -50.45074552  G :  0.015397    pred/act E change: -0.104D-02 -0.117D-02
Maxdispl :   0.2248   ||displ|| :   0.4741   Lambda : -0.115D-02
Largest |displ|/coords:  0.2248 (   9)  0.1637 (  18)  0.1426 (   7)
................................................................................
.............................. CYCLE   62 ......................................
................................................................................
   1    -50.7228791 -0.507229E+02  0.281E-01    8.40       0.0  T
   2    -50.7229002 -0.210919E-04  0.204E-01    8.41       1.0  T
   3    -50.7229136 -0.133549E-04  0.367E-02    8.41       1.0  T
   4    -50.7229158 -0.219549E-05  0.148E-02    8.41       1.3  T
   5    -50.7229160 -0.172671E-06  0.222E-03    8.41       8.9  T
   6    -50.7229160 -0.866007E-08  0.142E-03    8.41      13.8  T
speedup  0.98
cpu  time for SCC    0.01 s
wall time for SCC    0.01 s
speedup  0.95
cpu  time for grad    0.01 s
wall time for grad    0.01 s
 E :    -50.45118508  G :  0.018975    pred/act E change: -0.100D-02 -0.440D-03
Maxdispl :   0.0615   ||displ|| :   0.1562   Lambda : -0.760D-03
Largest |displ|/coords:  0.0615 (   8)  0.0538 (   3)  0.0530 (  10)
................................................................................
.............................. CYCLE   63 ......................................
................................................................................
   1    -50.7294843 -0.507295E+02  0.135E-01    8.60       0.0  T
   2    -50.7294977 -0.134306E-04  0.901E-02    8.59       1.0  T
   3    -50.7295025 -0.474974E-05  0.269E-02    8.58       1.0  T
   4    -50.7295031 -0.649727E-06  0.730E-03    8.59       2.7  T
   5    -50.7295032 -0.612275E-07  0.126E-03    8.59      15.6  T
   6    -50.7295032 -0.205505E-08  0.709E-04    8.59      27.7  T
speedup  0.97
cpu  time for SCC    0.01 s
wall time for SCC    0.01 s
speedup  1.01
cpu  time for grad    0.01 s
wall time for grad    0.01 s
 E :    -50.45151437  G :  0.007993    pred/act E change: -0.705D-03 -0.329D-03
Maxdispl :   0.1470   ||displ|| :   0.2747   Lambda : -0.635D-03
Largest |displ|/coords:  0.1470 (   1)  0.0996 (   8)  0.0848 (   3)
................................................................................
.............................. CYCLE   64 ......................................
................................................................................
   1    -50.7293659 -0.507294E+02  0.162E-01    8.66       0.0  T
   2    -50.7293742 -0.838766E-05  0.121E-01    8.66       1.0  T
   3    -50.7293801 -0.585041E-05  0.172E-02    8.65       1.1  T
   4    -50.7293812 -0.114631E-05  0.613E-03    8.65       3.2  T
   5    -50.7293813 -0.504516E-07  0.167E-03    8.65      11.7  T
   6    -50.7293813 -0.467686E-08  0.941E-04    8.65      20.8  T
speedup  0.98
cpu  time for SCC    0.01 s
wall time for SCC    0.01 s
[...]
   2    -50.7392191 -0.665996E-07  0.107E-02    8.82       1.8  T
   3    -50.7392191 -0.442806E-07  0.213E-03    8.82       9.2  T
   4    -50.7392191 -0.628857E-08  0.723E-04    8.82      27.1  T
   5    -50.7392191 -0.704425E-09  0.143E-04    8.82     137.5  T
speedup  0.96
cpu  time for SCC    0.00 s
wall time for SCC    0.01 s
speedup  0.97
cpu  time for grad    0.01 s
wall time for grad    0.01 s
 E :    -50.45807192  G :  0.000762    pred/act E change: -0.440D-05 -0.256D-05
Maxdispl :   0.0102   ||displ|| :   0.0165   Lambda : -0.173D-05
Largest |displ|/coords:  0.0102 (   2)  0.0071 (  12)  0.0050 (  14)
................................................................................
.............................. CYCLE  106 ......................................
................................................................................
   1    -50.7391421 -0.507391E+02  0.910E-03    8.82       0.0  T
   2    -50.7391421 -0.192432E-07  0.665E-03    8.82       2.9  T
   3    -50.7391421 -0.129157E-07  0.121E-03    8.82      16.1  T
   4    -50.7391421 -0.210211E-08  0.392E-04    8.82      50.0  T
   5    -50.7391421 -0.185977E-09  0.824E-05    8.82     238.1  T
speedup  1.02
cpu  time for SCC    0.00 s
wall time for SCC    0.00 s
speedup  1.00
cpu  time for grad    0.01 s
wall time for grad    0.01 s
 E :    -50.45807300  G :  0.000430    pred/act E change: -0.198D-05 -0.109D-05
Maxdispl :   0.0058   ||displ|| :   0.0090   Lambda : -0.766D-06
Largest |displ|/coords:  0.0058 (   2)  0.0030 (  12)  0.0028 (   4)
................................................................................
.............................. CYCLE  107 ......................................
................................................................................
   1    -50.7391249 -0.507391E+02  0.537E-03    8.82       0.0  T
   2    -50.7391249 -0.975787E-08  0.397E-03    8.82       4.9  T
   3    -50.7391250 -0.540793E-08  0.688E-04    8.82      28.5  T
   4    -50.7391250 -0.127302E-08  0.229E-04    8.82      85.7  T
speedup  0.95
cpu  time for SCC    0.00 s
wall time for SCC    0.00 s
speedup  1.04
cpu  time for grad    0.01 s
wall time for grad    0.01 s
 E :    -50.45807349  G :  0.000259    pred/act E change: -0.865D-06 -0.490D-06
Maxdispl :   0.0038   ||displ|| :   0.0079   Lambda : -0.418D-06
Largest |displ|/coords:  0.0038 (   1)  0.0030 (   6)  0.0029 (  12)
................................................................................
.............................. CYCLE  108 ......................................
................................................................................
   1    -50.7390833 -0.507391E+02  0.457E-03    8.81       0.0  T
   2    -50.7390833 -0.645249E-08  0.342E-03    8.81       5.7  T
   3    -50.7390833 -0.431331E-08  0.502E-04    8.81      39.1  T
   4    -50.7390833 -0.887134E-09  0.174E-04    8.81     112.7  T
speedup  0.98
cpu  time for SCC    0.00 s
wall time for SCC    0.00 s
speedup  0.97
cpu  time for grad    0.01 s
wall time for grad    0.01 s
 E :    -50.45807379  G :  0.000229    pred/act E change: -0.383D-06 -0.294D-06
Maxdispl :   0.0042   ||displ|| :   0.0092   Lambda : -0.346D-06
Largest |displ|/coords:  0.0042 (   1)  0.0034 (   3)  0.0031 (   7)
................................................................................
.............................. CYCLE  109 ......................................
................................................................................
   1    -50.7390710 -0.507391E+02  0.530E-03    8.81       0.0  T
   2    -50.7390710 -0.489521E-08  0.399E-03    8.81       4.9  T
   3    -50.7390710 -0.510480E-08  0.412E-04    8.81      47.6  T
   4    -50.7390710 -0.441354E-09  0.155E-04    8.81     126.3  T
speedup  0.98
cpu  time for SCC    0.00 s
wall time for SCC    0.00 s
speedup  0.98
cpu  time for grad    0.01 s
wall time for grad    0.01 s
 E :    -50.45807404  G :  0.000222    pred/act E change: -0.209D-06 -0.256D-06
Maxdispl :   0.0058   ||displ|| :   0.0122   Lambda : -0.364D-06
Largest |displ|/coords:  0.0058 (   3)  0.0045 (   2)  0.0041 (   6)
................................................................................
.............................. CYCLE  110 ......................................
................................................................................
   1    -50.7390743 -0.507391E+02  0.709E-03    8.81       0.0  T
   2    -50.7390743 -0.804253E-08  0.532E-03    8.81       3.7  T
   3    -50.7390743 -0.882113E-08  0.612E-04    8.81      32.0  T
   4    -50.7390743 -0.629463E-09  0.218E-04    8.81      89.9  T
speedup  1.00
cpu  time for SCC    0.00 s
wall time for SCC    0.00 s
speedup  0.98
cpu  time for grad    0.01 s
wall time for grad    0.01 s
 E :    -50.45807432  G :  0.000245    pred/act E change: -0.173D-06 -0.276D-06
Maxdispl :   0.0069   ||displ|| :   0.0143   Lambda : -0.367D-06
Largest |displ|/coords:  0.0069 (   3)  0.0067 (   2)  0.0046 (   6)
................................................................................
.............................. CYCLE  111 ......................................
................................................................................
   1    -50.7390833 -0.507391E+02  0.849E-03    8.81       0.0  T
   2    -50.7390833 -0.151246E-07  0.633E-03    8.81       3.1  T
   3    -50.7390833 -0.132921E-07  0.893E-04    8.81      22.0  T
   4    -50.7390833 -0.165188E-08  0.325E-04    8.81      60.4  T
speedup  1.00
cpu  time for SCC    0.00 s
wall time for SCC    0.00 s
speedup  1.00
cpu  time for grad    0.01 s
wall time for grad    0.01 s
 E :    -50.45807460  G :  0.000278    pred/act E change: -0.182D-06 -0.279D-06
Maxdispl :   0.0079   ||displ|| :   0.0135   Lambda : -0.311D-06
Largest |displ|/coords:  0.0079 (   2)  0.0063 (   3)  0.0044 (   6)
................................................................................
.............................. CYCLE  112 ......................................
................................................................................
   1    -50.7390943 -0.507391E+02  0.789E-03    8.81       0.0  T
   2    -50.7390943 -0.165122E-07  0.586E-03    8.81       3.3  T
   3    -50.7390943 -0.119111E-07  0.938E-04    8.81      20.9  T
   4    -50.7390943 -0.208449E-08  0.387E-04    8.81      50.7  T
speedup  1.00
cpu  time for SCC    0.00 s
wall time for SCC    0.00 s
speedup  0.99
cpu  time for grad    0.01 s
wall time for grad    0.01 s
 E :    -50.45807484  G :  0.000265    pred/act E change: -0.183D-06 -0.238D-06
Maxdispl :   0.0076   ||displ|| :   0.0110   Lambda : -0.240D-06
Largest |displ|/coords:  0.0076 (   2)  0.0040 (   3)  0.0035 (   6)

generating ANC from model Hessian ...
 Shifting diagonal of input Hessian by   4.614692344918144E-003
 Lowest  eigenvalues of input Hessian
   -0.000000   -0.000000   -0.000000   -0.000000    0.000000    0.000000
    0.005000    0.005446    0.005875    0.006867    0.007127    0.007579
    0.007841    0.009167    0.010120    0.010833    0.011406    0.012364
 Highest eigenvalues
    1.386173    1.400230    1.460525    2.490032    3.323041    3.746352
 
cpu  time for ANC gen    0.03 s
wall time for ANC gen    0.03 s
................................................................................
.............................. CYCLE  113 ......................................
................................................................................
   1    -50.7391058 -0.507391E+02  0.629E-03    8.82       0.0  T
   2    -50.7391058 -0.124599E-07  0.467E-03    8.82       4.2  T
   3    -50.7391058 -0.783749E-08  0.809E-04    8.81      24.2  T
   4    -50.7391058 -0.169460E-08  0.354E-04    8.82      55.4  T
speedup  1.00
cpu  time for SCC    0.00 s
wall time for SCC    0.00 s
speedup  1.00
cpu  time for grad    0.01 s
wall time for grad    0.01 s
 E :    -50.45807502  G :  0.000212    pred/act E change:  0.000D+00 -0.186D-06
Maxdispl :   0.0015   ||displ|| :   0.0027   Lambda : -0.115D-06
Largest |displ|/coords:  0.0015 (   5)  0.0009 (  13)  0.0008 (   3)
................................................................................
.............................. CYCLE  114 ......................................
................................................................................
   1    -50.7391278 -0.507391E+02  0.178E-03    8.82       0.0  T
   2    -50.7391278 -0.615366E-09  0.134E-03    8.82      14.6  T
   3    -50.7391278 -0.415035E-09  0.146E-04    8.82     134.2  T
   4    -50.7391278 -0.910916E-10  0.559E-05    8.82     350.8  T
speedup  1.03
cpu  time for SCC    0.00 s
wall time for SCC    0.00 s
speedup  1.02
cpu  time for grad    0.01 s
wall time for grad    0.01 s
 E :    -50.45807511  G :  0.000135    pred/act E change:  0.000D+00 -0.907D-07
Maxdispl :   0.0037   ||displ|| :   0.0078   Lambda : -0.210D-06
Largest |displ|/coords:  0.0037 (   1)  0.0031 (   2)  0.0026 (   3)

   *** GEOMETRY OPTIMIZATION CONVERGED AFTER 114 ITERATIONS ***

------------------------------------------------------------------------
 total energy gain (kcal):     -0.0001
------------------------------------------------------------------------
================
 final structure:
================
$coord
        1.41689396023876        2.07521541629720        3.31905752476917      S 
        3.36721442654819        2.09017104463382        1.37882823169301      O 
        2.04305662789990        3.27339324954899        5.63966104690087      O 
       -0.98182239890969        3.44183473672194        2.11789204011896      O 
        0.45605114447719       -0.55420769954338        3.69258432785755      O 
        1.07951125816651       -2.98091876540175        1.93644445445064      H 
       -0.33611395657629        4.29573364607860        0.57019952204867      H 
        1.21012978922347       -4.45608221114504        0.78532247718737      O 
        1.75711061038434       -5.84589898253019        1.80736452568933      H 
       -0.13196845258714        0.49905511014353       -4.55068203403934      O 
        0.05906445255060        0.40939569982021       -6.34870620704231      H 
        1.06545261345995        4.94721263930408       -2.02070283415164      O 
        0.48492021256560        3.61716799945667       -3.15306697506838      H 
        2.56703977860450        4.27430042780490       -1.19999115327694      H 
        3.84764489964391       -1.22937667111619       -2.30967276617110      O 
        1.48515183879177       -0.18166688272145       -3.80903859207063      H 
        3.97281500857783        0.01650669851493       -0.93707442443640      H 
        3.26690302509827       -2.75683722069000       -1.47952195828238      H 
       -2.91774042803867       -2.91013937107047       -1.95709521602483      O 
       -2.12945888160118       -1.64129606492435       -3.05509738992596      H 
       -1.51091381136062       -3.84975353748756       -1.22992306887736      H 
       -3.88651683615663       -1.49651664541166        0.40531407811438      H 
       -4.09848869686728       -0.51353098507220        2.17829162210884      N 
       -2.21852328028687       -0.58641289131132        3.04680385589145      H 
       -5.44531344267176       -1.29986839318223        3.29229035687121      H 
       -4.42209940447810        1.36251965328783        1.88051857456098      H 
$end
 
 Bond Distances (Angstroems)
 ---------------------------
S1-O2=1.4558         S1-O3=1.4212         S1-O4=1.5932         S1-O5=1.4945         O2-S1=1.4558         O3-S1=1.4212         
O4-S1=1.5932         O4-H7=0.9958         O5-S1=1.4945         H6-O8=0.9926         H7-O4=0.9958         O8-H6=0.9926         
O8-H9=0.9577         H9-O8=0.9577         O10-H11=0.9580       O10-H16=1.0080       H11-O10=0.9580       O12-H13=0.9741       
O12-H14=0.9730       H13-O12=0.9741       H14-O12=0.9730       O15-H17=0.9832       O15-H18=0.9699       H16-O10=1.0080       
H17-O15=0.9832       H18-O15=0.9699       O19-H20=0.9810       O19-H21=0.9744       H20-O19=0.9810       H21-O19=0.9744       
H22-N23=1.0786       N23-H22=1.0786       N23-H24=1.0965       N23-H25=1.0142       N23-H26=1.0197       H24-N23=1.0965       
H25-N23=1.0142       H26-N23=1.0197       
 N  H  Rav=1.0523 sigma=0.0359  Rmin=1.0142  Rmax=1.0965     4
 O  H  Rav=0.9789 sigma=0.0147  Rmin=0.9577  Rmax=1.0080    11
 S  O  Rav=1.4912 sigma=0.0644  Rmin=1.4212  Rmax=1.5932     4
 
 selected bond angles (degree)
 --------------------
O3-S1-O2=116.21                O4-S1-O2=106.32                O4-S1-O3=109.15                O5-S1-O2=109.85                
O5-S1-O3=112.36                O5-S1-O4=101.79                H7-O4-S1=105.11                H9-O8-H6=106.17                
H16-O10-H11=106.22             
 
 selected dihedral angles (degree)
 ---------------------------------
H7-O4-S1-O2=346.00            H7-O4-S1-O3=112.07            H7-O4-S1-O5=231.00            
 
 CMA Distance (Angstroems)
 ---------------------------
R(CMA):  2.8711

========================================================================
 FINAL SINGLEPOINT CALCULATION ON OPTIMIZED GEOMETRY
========================================================================

 Ncao       : 65
 Nao        : 64
 Nshell     : 38
 Nel        : 80
 T(el)      :   300.0
 intcut     :    25.0
 scfconv/Eh :  0.100E-05
   qconv/e  :  0.100E-03
 intneglect :  0.100E-07
 broydamp   :      0.250
 iter      E             dE          RMSdq      gap      omega  full diag
   1    -50.7391278 -0.507391E+02  0.180E-05    8.82       0.0  T
   2    -50.7391278 -0.312639E-12  0.117E-05    8.82    1680.6  T
   3    -50.7391278 -0.127898E-12  0.214E-06    8.82    9157.0  T
speedup  1.03
cpu  time for SCC    0.00 s
wall time for SCC    0.00 s

   *** convergence criteria satisfied after 3 iterations ***

          eigenvalues
 #    :          28         29         30         31         32         33         34         35
 occ. :        2.000      2.000      2.000      2.000      2.000      2.000      2.000      2.000
 eps  :       -13.488    -12.976    -12.596    -12.489    -12.447    -12.371    -12.167    -12.060
 #    :          36         37         38         39         40         41         42         43
 occ. :        2.000      2.000      2.000      2.000      2.000      0.000      0.000      0.000
 eps  :       -11.924    -11.858    -11.830    -11.494    -11.301     -2.486     -1.092     -0.218
 #    :          44         45         46         47         48         49         50         51
 occ. :        0.000      0.000      0.000      0.000      0.000      0.000      0.000      0.000
 eps  :         0.255      0.662      1.545      1.734      2.923      3.725      4.174      4.625


   #   Z            q   n(s)   n(p)   n(d)      C6AA      α(0)
   1  16 S      1.644  1.590  1.811  0.955    90.047    15.971
   2   8 O     -0.746  1.770  4.976  0.000    29.995     7.343
   3   8 O     -0.675  1.765  4.910  0.000    28.033     7.099
   4   8 O     -0.660  1.763  4.897  0.000    26.637     6.967
   5   8 O     -0.752  1.771  4.981  0.000    30.119     7.359
   6   1 H      0.337  0.663  0.000  0.000     0.619     1.236
   7   1 H      0.374  0.626  0.000  0.000     0.531     1.143
   8   8 O     -0.631  1.746  4.885  0.000    25.938     6.874
   9   1 H      0.286  0.714  0.000  0.000     0.763     1.372
  10   8 O     -0.641  1.760  4.881  0.000    26.203     6.909
  11   1 H      0.285  0.715  0.000  0.000     0.769     1.378
  12   8 O     -0.616  1.759  4.857  0.000    25.575     6.825
  13   1 H      0.324  0.676  0.000  0.000     0.655     1.271
  14   1 H      0.321  0.679  0.000  0.000     0.662     1.278
  15   8 O     -0.627  1.759  4.868  0.000    25.833     6.860
  16   1 H      0.343  0.657  0.000  0.000     0.604     1.222
  17   1 H      0.329  0.671  0.000  0.000     0.639     1.256
  18   1 H      0.314  0.686  0.000  0.000     0.681     1.297
  19   8 O     -0.614  1.757  4.857  0.000    25.520     6.818
  20   1 H      0.331  0.669  0.000  0.000     0.634     1.251
  21   1 H      0.328  0.672  0.000  0.000     0.642     1.259
  22   1 H      0.302  0.698  0.000  0.000     0.707     1.317
  23   7 N     -0.346  1.276  4.070  0.000    28.876     7.981
  24   1 H      0.309  0.691  0.000  0.000     0.685     1.295
  25   1 H      0.228  0.772  0.000  0.000     0.974     1.546
  26   1 H      0.251  0.749  0.000  0.000     0.878     1.468

 Mol. C6AA /au·bohr⁶  :       5450.499330
 Mol. C8AA /au·bohr⁸  :     118093.871542
 Mol. α(0) /au        :        106.593801

 
 Wiberg/Mayer (AO) data. WBOs > 0.1 written file <wbo>
 largest (>0.05) Wiberg bond orders for each atom
           total WBO             WBO to atom ...
     1  S   4.882    O    3 1.466    O    2 1.301    O    5 1.164    O    4 0.906
     2  O   1.722    S    1 1.301    O    3 0.114    O    5 0.095    O    4 0.079    H   17 0.059
     3  O   1.780    S    1 1.466    O    2 0.114    O    5 0.103    O    4 0.082
     4  O   1.924    S    1 0.906    H    7 0.728    O    3 0.082    O    2 0.079    O    5 0.065
     5  O   1.770    S    1 1.164    H   24 0.170    O    3 0.103    O    2 0.095    H    6 0.077    O    4 0.065    N   23 0.062
     6  H   0.886    O    8 0.803    O    5 0.077
     7  H   0.860    O    4 0.728    O   12 0.115
     8  O   1.858    H    9 0.909    H    6 0.803
     9  H   0.918    O    8 0.909
    10  O   1.874    H   11 0.914    H   16 0.766    H   20 0.057
    11  H   0.919    O   10 0.914
    12  O   1.916    H   14 0.859    H   13 0.853    H    7 0.115
    13  H   0.895    O   12 0.853
    14  H   0.897    O   12 0.859
    15  O   1.910    H   18 0.864    H   17 0.828    H   16 0.114
    16  H   0.882    O   10 0.766    O   15 0.114
    17  H   0.891    O   15 0.828    O    2 0.059
    18  H   0.902    O   15 0.864
    19  O   1.951    H   21 0.853    H   20 0.831    H   22 0.147    N   23 0.068
    20  H   0.890    O   19 0.831    O   10 0.057
    21  H   0.892    O   19 0.853
    22  H   0.909    N   23 0.759    O   19 0.147
    23  N   3.508    H   25 0.944    H   26 0.922    H   22 0.759    H   24 0.726    O   19 0.068    O    5 0.062
    24  H   0.905    N   23 0.726    O    5 0.170
    25  H   0.948    N   23 0.944
    26  H   0.937    N   23 0.922
 MOs/occ written to file <molden.input>
 
molecular dipole:
                 x           y           z       tot (Debye)
 q only:       -2.626      -1.764      -1.024
   full:       -2.226      -1.852      -0.813       7.646
molecular quadrupole (traceless):
                xx          xy          yy          xz          yz          zz
 q only:        9.145      -5.003      -2.796     -12.928     -12.143      -6.348
  q+dip:        7.965      -6.580      -3.623     -13.321     -13.234      -4.342
   full:        7.757      -6.801      -3.458     -13.045     -13.652      -4.299

SCC energy    :     -50.7391278
rep           :       0.2806377
ES            :       0.2699358
AES           :      -0.0707477
AXC           :      -0.0081879
disp          :      -0.0196585
XB            :       0.0000000
fix           :       0.0000000
total E       :     -50.4580751
atomizationE  :       4.9883793     3130.26
(atE without considering molecular charge,
 total energy contains solvation terms)
H-L gap (eV)  :          8.8150
optimized geometry written to: xtbopt.xyz


------------------------------------------------------------------------
 * finished run on 2019/09/16 at 11:19:05.730     
------------------------------------------------------------------------
 total:
 * wall-time:     0 d,  0 h,  0 min,  2.826 sec
 *  cpu-time:     0 d,  0 h,  0 min,  2.805 sec
 * ratio c/w:     0.992 speedup
 SCF:
 * wall-time:     0 d,  0 h,  0 min,  0.167 sec
 *  cpu-time:     0 d,  0 h,  0 min,  0.163 sec
 * ratio c/w:     0.978 speedup
 ANC optimizer:
 * wall-time:     0 d,  0 h,  0 min,  2.629 sec
 *  cpu-time:     0 d,  0 h,  0 min,  2.614 sec
 * ratio c/w:     0.994 speedup

