      -----------------------------------------------------------      
     |                   =====================                   |     
     |                           x T B                           |     
     |                   =====================                   |     
     |                         S. Grimme                         |     
     |          Mulliken Center for Theoretical Chemistry        |     
     |                    University of Bonn                     |     
     |                 Version 6.0.1 (SAW181210)                 |     
      -----------------------------------------------------------      

   This program is distributed in the hope that it will be useful,
   but WITHOUT ANY WARRANTY; without even the implied warranty of
   MERCHANTABILITY or FITNESS FOR A PARTICULAR PURPOSE.
   
   FOR NON-COMMERCIAL, ACADEMIA USE ONLY.
   
   Cite this work as:
   S. Grimme, C. Bannwarth, P. Shushkov, J. Comput. Theory Chem., 2017,
   13, 1989-2009.
   C. Bannwarth, S. Ehlert and S. Grimme., ChemRxiv, 2018, preprint.
   http://doi.org/10.26434/chemrxiv.7246238.v1
   
   for sTDA-xTB:
   S. Grimme and C. Bannwarth, J. Chem. Phys., 2016, 145, 054103.
   
   in the mass-spec context:
   V. Asgeirsson, C. Bauer and S. Grimme, Chem. Sci., 2017, 8, 4879.
   
   if GBSA is used:
   P. Shushkov, F. März and S. Grimme, unpublished.
   
   for ANC optimizer:
   S. Grimme, unpublished.
   Rational Function algorithm used in ANCopt:
   F. Eckert, P. Pulay, H.-J. Werner, J. Comput. Chem., 1997, 18, 1473.
   
   with help from (in alphabetical order)
   C. Bannwarth, F. Bohle, G. Brandenburg, E. Caldeweyher, M. Checinski,
   S. Dohm, S. Ehlert, S. Ehrlich, F. März, H. Neugebauer, J. Pisarek,
   P. Pracht, P. Shushkov, and S. Spicher.
   
 * started run on 2019/09/16 at 12:04:26.656     
========================================================================
 # omp threads = 1
========================================================================
number of atoms            : 26
number of electrons        : 80
charge                     : 0
spin                       : .0
first test random number   : .7676

########################################################################
# WARNING! Please study the warnings concerning your input carefully
#  - XTBPATH is not set, using XTBHOME instead
#  - the use of '-opt' is discouraged, please use '--opt' next time
#  - the use of '-chrg' is discouraged, please use '--chrg' next time
#  - the use of '-uhf' is discouraged, please use '--uhf' next time
########################################################################

           ------------------------------------------------- 
          |                 G F N 2 - x T B                 |
          | Geometry, Frequencies, Noncovalent interactions |
          |            JCTC 2018 parametrisation            |
           ------------------------------------------------- 
      method parameters     
 k(s)        :  1.8500
 k(p)        :  2.2300
 k(d)        :  2.2300
 k(f)        :  2.0000
 kEN (H0ij)  : -2.0000
 D4 a1       :  0.5200
 D4 a2       :  5.0000
 D4 s6       :  1.0000
 D4 s8       :  2.7000
 D4 s9       :  5.0000
 alphaj      :  2.0000


            Z     q(EN)     CN     RAES       Cart. coordinates
     1  S   6.0    0.58    4.29    4.22     3.94876     1.30926     1.66348
     2  O   6.0   -0.32    1.14    1.80     1.83357     2.76515     0.66962
     3  O   6.0   -0.28    1.09    1.80     5.56270     2.21500     3.66659
     4  O   6.0   -0.24    2.05    1.83     2.86462    -1.49901     2.35894
     5  O   6.0   -0.23    2.07    1.83     5.82232     0.47304    -0.58557
     6  H   1.0    0.17    1.24    1.48     4.82813    -0.01947    -2.05369
     7  H   1.0    0.15    1.15    1.45     1.11671    -1.28977     2.89504
     8  O   6.0   -0.40    1.59    1.81    -1.88413    -2.27553     1.15517
     9  H   1.0    0.17    0.95    1.42    -3.17055    -3.07587     2.24528
    10  O   6.0   -0.39    1.65    1.81     2.58241    -1.07360    -3.66491
    11  H   1.0    0.18    0.95    1.42     3.33268    -0.87808    -5.36274
    12  O   6.0   -0.29    2.05    1.83    -2.53198     4.80639    -1.10010
    13  H   1.0    0.15    1.02    1.43    -3.62799     4.43174     0.30455
    14  H   1.0    0.17    1.01    1.43    -0.84972     4.83281    -0.40446
    15  O   6.0   -0.23    2.94    2.63    -1.71486     0.21015    -2.69294
    16  H   1.0    0.14    1.05    1.44    -2.06123     2.03320    -2.47759
    17  H   1.0    0.16    1.17    1.46     0.00914    -0.10347    -3.34062
    18  H   1.0    0.16    1.18    1.46    -2.06150    -0.75663    -1.13196
    19  O   6.0   -0.23    2.92    2.60     1.05540    -4.70759    -1.38178
    20  H   1.0    0.12    0.96    1.43     2.38063    -5.56932    -0.38628
    21  H   1.0    0.16    1.17    1.46    -0.27721    -3.98069    -0.29284
    22  H   1.0    0.16    1.18    1.46     1.77286    -3.43799    -2.55006
    23  N   5.0   -0.22    2.99    1.92    -4.62180     1.85360     2.80421
    24  H   1.0    0.12    1.05    1.44    -3.56458     0.32329     2.30270
    25  H   1.0    0.10    0.99    1.43    -6.45801     1.28467     2.67883
    26  H   1.0    0.10    0.99    1.43    -4.28639     2.12873     4.68114

  Z AO/shell   Hii/eV     exponent
  1     Wed Apr 25 08:07:45 CEST 2018   EN: 2.200 GM2: 0.406  GM3: 0.0800  RAES: 1.40
     1s    -10.707211    1.230000
  7     Wed Apr 25 08:07:45 CEST 2018   EN: 3.040 GM2: 0.461  GM3:-0.0640  RAES: 1.90
     2s    -16.686243    2.339881
     2p    -12.523956    2.014332
  8     Wed Apr 25 08:07:45 CEST 2018   EN: 3.440 GM2: 0.452  GM3:-0.0517  RAES: 1.80
     2s    -20.229985    2.439742
     2p    -15.503117    2.137023
 16     Tue Apr 24 11:44:34 CEST 2018   EN: 2.580 GM2: 0.340  GM3:-0.0502  RAES: 3.10
     3s    -20.029654    1.981333
     3p    -11.377694    2.025643
     3d     -0.420282    1.702555
 no old-style atom pair restraining (fixing) potential

molecular fragmentation (1/2 indicates fragments):
11111112222222222222222222
# atoms in fragment 1/2:     7    19
 fragment masses (1/2) :       98.07      107.11
CMA distance (Bohr)    :   5.796
constraining FC (au)   :  0.0500
           ------------------------------------------------- 
          |        Self-Consistent Charge Iterations        |
           ------------------------------------------------- 

 Ncao       : 65
 Nao        : 64
 Nshell     : 38
 Nel        : 80
 T(el)      :   300.0
 intcut     :    25.0
 scfconv/Eh :  0.100E-05
   qconv/e  :  0.100E-03
 intneglect :  0.100E-07
 broydamp   :      0.250
 iter      E             dE          RMSdq      gap      omega  full diag
   1    -50.5278042 -0.505278E+02  0.704E+00    7.89       0.0  T
   2    -50.5785515 -0.507473E-01  0.496E+00    7.11       1.0  T
   3    -50.6173804 -0.388289E-01  0.119E+00    5.61       1.0  T
   4    -50.6217143 -0.433386E-02  0.630E-01    5.84       1.0  T
   5    -50.6229954 -0.128109E-02  0.269E-01    5.90       1.0  T
   6    -50.6233592 -0.363815E-03  0.147E-01    5.88       1.0  T
   7    -50.6234913 -0.132075E-03  0.516E-02    5.88       1.0  T
   8    -50.6235076 -0.163127E-04  0.240E-02    5.88       1.0  T
   9    -50.6235107 -0.315636E-05  0.109E-02    5.89       1.8  T
  10    -50.6235113 -0.547850E-06  0.246E-03    5.89       8.0  T
  11    -50.6235113 -0.173116E-07  0.129E-03    5.89      15.2  T
  12    -50.6235113 -0.764852E-08  0.403E-04    5.89      48.7  T
  13    -50.6235113 -0.555112E-09  0.200E-04    5.89      97.9  T
speedup  1.04
cpu  time for SCC    0.02 s
wall time for SCC    0.02 s

   *** convergence criteria satisfied after 13 iterations ***

          eigenvalues
 #    :          28         29         30         31         32         33         34         35
 occ. :        2.000      2.000      2.000      2.000      2.000      2.000      2.000      2.000
 eps  :       -13.152    -13.022    -12.811    -12.486    -12.387    -12.269    -12.061    -11.867
 #    :          36         37         38         39         40         41         42         43
 occ. :        2.000      2.000      2.000      2.000      2.000      0.000      0.000      0.000
 eps  :       -10.952    -10.767    -10.695    -10.602    -10.422     -4.533     -1.707     -1.322
 #    :          44         45         46         47         48         49         50         51
 occ. :        0.000      0.000      0.000      0.000      0.000      0.000      0.000      0.000
 eps  :        -0.555      0.852      0.928      2.062      2.704      3.475      4.344      5.314


   #   Z            q   n(s)   n(p)   n(d)      C6AA      α(0)
   1  16 S      1.631  1.632  1.809  0.928    90.356    15.999
   2   8 O     -0.669  1.765  4.904  0.000    27.881     7.079
   3   8 O     -0.630  1.774  4.856  0.000    26.858     6.948
   4   8 O     -0.598  1.758  4.840  0.000    25.107     6.764
   5   8 O     -0.597  1.761  4.836  0.000    25.085     6.761
   6   1 H      0.380  0.620  0.000  0.000     0.521     1.133
   7   1 H      0.370  0.630  0.000  0.000     0.542     1.156
   8   8 O     -0.866  1.831  5.035  0.000    33.632     7.776
   9   1 H      0.202  0.798  0.000  0.000     1.106     1.652
  10   8 O     -0.856  1.831  5.024  0.000    33.288     7.737
  11   1 H      0.213  0.787  0.000  0.000     1.056     1.615
  12   8 O     -0.603  1.739  4.864  0.000    25.253     6.782
  13   1 H      0.316  0.684  0.000  0.000     0.674     1.290
  14   1 H      0.320  0.680  0.000  0.000     0.664     1.280
  15   8 O     -0.488  1.669  4.819  0.000    22.575     6.417
  16   1 H      0.384  0.616  0.000  0.000     0.516     1.128
  17   1 H      0.393  0.607  0.000  0.000     0.494     1.102
  18   1 H      0.400  0.600  0.000  0.000     0.480     1.086
  19   8 O     -0.447  1.663  4.784  0.000    21.725     6.295
  20   1 H      0.355  0.645  0.000  0.000     0.577     1.194
  21   1 H      0.404  0.596  0.000  0.000     0.474     1.079
  22   1 H      0.407  0.593  0.000  0.000     0.468     1.071
  23   7 N     -0.480  1.411  4.069  0.000    32.709     8.494
  24   1 H      0.198  0.802  0.000  0.000     1.115     1.654
  25   1 H      0.132  0.868  0.000  0.000     1.529     1.937
  26   1 H      0.130  0.870  0.000  0.000     1.548     1.949

 Mol. C6AA /au·bohr⁶  :       5524.142843
 Mol. C8AA /au·bohr⁸  :     119380.260128
 Mol. α(0) /au        :        107.378464

 
 Wiberg/Mayer (AO) data. WBOs > 0.1 written file <wbo>
 largest (>0.05) Wiberg bond orders for each atom
           total WBO             WBO to atom ...
     1  S   4.780    O    3 1.480    O    2 1.393    O    5 0.981    O    4 0.897
     2  O   1.758    S    1 1.393    O    3 0.141    O    5 0.098    O    4 0.095
     3  O   1.813    S    1 1.480    O    2 0.141    O    4 0.093    O    5 0.086
     4  O   1.968    S    1 0.897    H    7 0.800    O    2 0.095    O    3 0.093    O    5 0.056
     5  O   1.988    S    1 0.981    H    6 0.711    O    2 0.098    O    3 0.086    O    4 0.056
     6  H   0.856    O    5 0.711    O   10 0.129
     7  H   0.863    O    4 0.800
     8  O   1.565    H    9 0.938    H   21 0.190    H   18 0.157    O   19 0.060    H   24 0.052    O   15 0.051
     9  H   0.959    O    8 0.938
    10  O   1.609    H   11 0.944    H   22 0.187    H   17 0.170    H    6 0.129    O   19 0.059    O   15 0.057
    11  H   0.955    O   10 0.944
    12  O   1.911    H   14 0.874    H   13 0.864    H   16 0.096
    13  H   0.900    O   12 0.864
    14  H   0.898    O   12 0.874
    15  O   2.257    H   16 0.750    H   18 0.674    H   17 0.670    O   10 0.057    O    8 0.051
    16  H   0.853    O   15 0.750    O   12 0.096
    17  H   0.846    O   15 0.670    O   10 0.170
    18  H   0.840    O   15 0.674    O    8 0.157
    19  O   2.278    H   20 0.863    H   22 0.642    H   21 0.639    O    8 0.060    O   10 0.059
    20  H   0.874    O   19 0.863
    21  H   0.837    O   19 0.639    O    8 0.190
    22  H   0.835    O   19 0.642    O   10 0.187
    23  N   2.954    H   26 0.980    H   25 0.980    H   24 0.897
    24  H   0.961    N   23 0.897    O    8 0.052
    25  H   0.983    N   23 0.980
    26  H   0.983    N   23 0.980
 MOs/occ written to file <molden.input>
 
molecular dipole:
                 x           y           z       tot (Debye)
 q only:       -1.329      -1.772      -0.739
   full:       -1.370      -2.159      -0.161       6.512
molecular quadrupole (traceless):
                xx          xy          yy          xz          yz          zz
 q only:      -11.508      -7.712      10.227      -8.778      -0.407       1.281
  q+dip:      -10.677      -5.734       6.380     -16.059      -1.383       4.297
   full:      -10.378      -5.640       5.896     -16.727      -1.456       4.482

SCC energy    :     -50.6235113
rep           :       0.2715895
ES            :       0.2781615
AES           :      -0.0461090
AXC           :      -0.0032506
disp          :      -0.0195408
XB            :       0.0000000
fix           :       0.0000000
total E       :     -50.3515650
atomizationE  :       4.8818692     3063.42
(atE without considering molecular charge,
 total energy contains solvation terms)
H-L gap (eV)  :          5.8885
           ------------------------------------------------- 
          |                 ===============                 |
          |                   A N C O P T                   |
          |                 ===============                 |
          |          Approximate Normal Coordinate          |
          |           Rational Function Optimizer           |
           ------------------------------------------------- 
dumping coords to <xtbopt.coord> and <xtbopt.log>
 optlevel               2
 Maxcycle             520
 Maxmicro              25
 Econv         1.000000000000000E-007
 Gconv         2.000000000000000E-004
 Maxdispl       1.00000000000000     
 Hlow          5.000000000000000E-003
 S6             20.0000000000000     
 Nvar               72

generating ANC from model Hessian ...
 Shifting diagonal of input Hessian by   4.886542996375129E-003
 Lowest  eigenvalues of input Hessian
   -0.000000   -0.000000   -0.000000   -0.000000    0.000000    0.000000
    0.005000    0.005462    0.005679    0.006282    0.006649    0.006733
    0.007172    0.007942    0.008186    0.008601    0.008853    0.009308
 Highest eigenvalues
    1.586268    1.594573    1.599798    1.948887    2.768632    3.591055
 
cpu  time for ANC gen    0.02 s
wall time for ANC gen    0.03 s
................................................................................
.............................. CYCLE    1 ......................................
................................................................................
   1    -50.6235113 -0.506235E+02  0.501E-05    5.89       0.0  T
   2    -50.6235113 -0.589040E-11  0.368E-05    5.89     532.5  T
   3    -50.6235113 -0.338929E-11  0.154E-05    5.89    1277.5  T
speedup  1.03
cpu  time for SCC    0.00 s
wall time for SCC    0.00 s
speedup  1.00
cpu  time for grad    0.01 s
wall time for grad    0.01 s
 E :    -50.35156502  G :  0.185043    pred/act E change:  0.000D+00  0.285D-07
Maxdispl :   0.1287   ||displ|| :   0.3411   Lambda : -0.363D-01
Largest |displ|/coords:  0.1287 (  16)  0.1203 (  54)  0.0852 (  23)
................................................................................
.............................. CYCLE    2 ......................................
................................................................................
   1    -50.6409784 -0.506410E+02  0.384E-01    6.53       0.0  T
   2    -50.6412507 -0.272370E-03  0.281E-01    6.56       1.0  T
   3    -50.6413752 -0.124455E-03  0.750E-02    6.62       1.0  T
   4    -50.6413952 -0.200627E-04  0.265E-02    6.62       1.0  T
   5    -50.6413973 -0.207747E-05  0.742E-03    6.62       2.6  T
   6    -50.6413974 -0.104564E-06  0.358E-03    6.62       5.5  T
   7    -50.6413974 -0.228333E-07  0.145E-03    6.62      13.5  T
speedup  1.04
cpu  time for SCC    0.01 s
wall time for SCC    0.01 s
speedup  1.00
cpu  time for grad    0.01 s
wall time for grad    0.01 s
 E :    -50.37999335  G :  0.107292    pred/act E change:  0.000D+00 -0.284D-01
Maxdispl :   0.1255   ||displ|| :   0.3380   Lambda : -0.185D-01
Largest |displ|/coords:  0.1255 (  29)  0.1012 (  54)  0.0931 (  26)
................................................................................
.............................. CYCLE    3 ......................................
................................................................................
   1    -50.6492470 -0.506492E+02  0.355E-01    7.16       0.0  T
   2    -50.6496509 -0.403893E-03  0.252E-01    7.20       1.0  T
   3    -50.6498222 -0.171283E-03  0.834E-02    7.28       1.0  T
   4    -50.6498413 -0.190853E-04  0.172E-02    7.28       1.1  T
   5    -50.6498417 -0.474367E-06  0.576E-03    7.28       3.4  T
   6    -50.6498418 -0.604826E-07  0.275E-03    7.28       7.1  T
speedup  1.02
cpu  time for SCC    0.01 s
wall time for SCC    0.01 s
speedup  1.04
cpu  time for grad    0.01 s
wall time for grad    0.01 s
 E :    -50.39518770  G :  0.070069    pred/act E change: -0.203D-01 -0.152D-01
Maxdispl :   0.1286   ||displ|| :   0.3293   Lambda : -0.105D-01
Largest |displ|/coords:  0.1286 (  29)  0.0979 (  23)  0.0946 (  26)
................................................................................
.............................. CYCLE    4 ......................................
................................................................................
   1    -50.6537565 -0.506538E+02  0.311E-01    7.67       0.0  T
   2    -50.6541638 -0.407285E-03  0.216E-01    7.71       1.0  T
   3    -50.6543300 -0.166226E-03  0.790E-02    7.78       1.0  T
   4    -50.6543431 -0.130525E-04  0.132E-02    7.80       1.5  T
   5    -50.6543433 -0.262714E-06  0.550E-03    7.79       3.6  T
   6    -50.6543434 -0.444832E-07  0.210E-03    7.79       9.3  T
speedup  1.05
cpu  time for SCC    0.01 s
wall time for SCC    0.01 s
speedup  1.00
cpu  time for grad    0.01 s
wall time for grad    0.01 s
 E :    -50.40371490  G :  0.049029    pred/act E change: -0.103D-01 -0.853D-02
Maxdispl :   0.1627   ||displ|| :   0.4334   Lambda : -0.101D-01
Largest |displ|/coords:  0.1627 (  29)  0.1466 (  20)  0.1320 (  15)
................................................................................
.............................. CYCLE    5 ......................................
................................................................................
   1    -50.6591427 -0.506591E+02  0.420E-01    8.27       0.0  T
   2    -50.6600505 -0.907817E-03  0.287E-01    8.32       1.0  T
   3    -50.6604102 -0.359667E-03  0.113E-01    8.42       1.0  T
   4    -50.6604322 -0.219406E-04  0.187E-02    8.44       1.0  T
   5    -50.6604326 -0.446022E-06  0.899E-03    8.44       2.2  T
   6    -50.6604327 -0.105927E-06  0.311E-03    8.44       6.3  T
   7    -50.6604327 -0.195509E-07  0.110E-03    8.44      17.8  T
speedup  1.01
cpu  time for SCC    0.01 s
wall time for SCC    0.01 s
speedup  0.99
cpu  time for grad    0.01 s
wall time for grad    0.02 s
 E :    -50.40988956  G :  0.034332    pred/act E change: -0.584D-02 -0.617D-02
Maxdispl :   0.1489   ||displ|| :   0.4027   Lambda : -0.328D-02
Largest |displ|/coords:  0.1489 (  15)  0.1485 (  17)  0.1447 (   5)
................................................................................
.............................. CYCLE    6 ......................................
................................................................................
   1    -50.6559129 -0.506559E+02  0.305E-01    8.44       0.0  T
   2    -50.6561145 -0.201550E-03  0.219E-01    8.46       1.0  T
   3    -50.6561946 -0.800818E-04  0.681E-02    8.50       1.0  T
   4    -50.6562118 -0.171822E-04  0.120E-02    8.49       1.6  T
   5    -50.6562120 -0.205763E-06  0.596E-03    8.49       3.3  T
   6    -50.6562120 -0.420455E-07  0.214E-03    8.49       9.2  T
speedup  1.02
cpu  time for SCC    0.01 s
wall time for SCC    0.01 s
speedup  1.04
cpu  time for grad    0.01 s
wall time for grad    0.01 s
 E :    -50.41135702  G :  0.043064    pred/act E change: -0.600D-02 -0.147D-02
Maxdispl :   0.1578   ||displ|| :   0.3680   Lambda : -0.371D-02
Largest |displ|/coords:  0.1578 (   5)  0.1331 (  15)  0.1251 (  20)
................................................................................
.............................. CYCLE    7 ......................................
................................................................................
   1    -50.6638964 -0.506639E+02  0.256E-01    8.47       0.0  T
   2    -50.6639927 -0.963107E-04  0.188E-01    8.49       1.0  T
   3    -50.6640397 -0.470384E-04  0.493E-02    8.55       1.0  T
   4    -50.6640507 -0.110082E-04  0.131E-02    8.55       1.5  T
   5    -50.6640510 -0.254683E-06  0.530E-03    8.55       3.7  T
   6    -50.6640510 -0.339094E-07  0.234E-03    8.55       8.4  T
speedup  0.83
cpu  time for SCC    0.01 s
wall time for SCC    0.01 s
speedup  0.92
cpu  time for grad    0.01 s
wall time for grad    0.01 s
 E :    -50.41322723  G :  0.029072    pred/act E change: -0.191D-02 -0.187D-02
Maxdispl :   0.1246   ||displ|| :   0.2669   Lambda : -0.193D-02
Largest |displ|/coords:  0.1246 (   8)  0.1244 (  11)  0.0863 (  15)
................................................................................
.............................. CYCLE    8 ......................................
................................................................................
   1    -50.6704733 -0.506705E+02  0.150E-01    8.56       0.0  T
   2    -50.6705038 -0.304632E-04  0.111E-01    8.56       1.0  T
   3    -50.6705177 -0.138966E-04  0.292E-02    8.56       1.0  T
   4    -50.6705209 -0.325814E-05  0.559E-03    8.56       3.5  T
   5    -50.6705210 -0.906400E-07  0.245E-03    8.56       8.0  T
speedup  1.02
cpu  time for SCC    0.00 s
wall time for SCC    0.00 s
speedup  0.98
cpu  time for grad    0.01 s
wall time for grad    0.01 s
 E :    -50.41390968  G :  0.023183    pred/act E change: -0.211D-02 -0.682D-03
Maxdispl :   0.1153   ||displ|| :   0.2884   Lambda : -0.196D-02
Largest |displ|/coords:  0.1153 (   1)  0.1041 (   8)  0.0994 (   5)
................................................................................
.............................. CYCLE    9 ......................................
................................................................................
   1    -50.6744045 -0.506744E+02  0.179E-01    8.52       0.0  T
   2    -50.6744401 -0.356435E-04  0.133E-01    8.52       1.0  T
   3    -50.6744593 -0.191712E-04  0.306E-02    8.51       1.0  T
   4    -50.6744635 -0.416438E-05  0.811E-03    8.51       2.4  T
   5    -50.6744636 -0.120468E-06  0.314E-03    8.51       6.2  T
   6    -50.6744636 -0.985930E-08  0.154E-03    8.51      12.7  T
speedup  0.98
cpu  time for SCC    0.01 s
wall time for SCC    0.01 s
speedup  1.03
cpu  time for grad    0.01 s
wall time for grad    0.01 s
 E :    -50.41479870  G :  0.022642    pred/act E change: -0.103D-02 -0.889D-03
Maxdispl :   0.1392   ||displ|| :   0.3116   Lambda : -0.142D-02
Largest |displ|/coords:  0.1392 (   5)  0.1247 (  15)  0.1159 (  12)
................................................................................
.............................. CYCLE   10 ......................................
................................................................................
   1    -50.6653569 -0.506654E+02  0.249E-01    8.45       0.0  T
   2    -50.6653965 -0.395576E-04  0.183E-01    8.48       1.0  T
   3    -50.6654202 -0.237288E-04  0.317E-02    8.53       1.0  T
   4    -50.6654251 -0.484885E-05  0.119E-02    8.52       1.7  T
   5    -50.6654252 -0.197576E-06  0.409E-03    8.51       4.8  T
   6    -50.6654253 -0.233506E-07  0.205E-03    8.52       9.6  T
speedup  0.98
cpu  time for SCC    0.01 s
wall time for SCC    0.01 s
speedup  0.97
cpu  time for grad    0.01 s
wall time for grad    0.01 s
 E :    -50.41478567  G :  0.031725    pred/act E change: -0.106D-02  0.130D-04
Maxdispl :   0.1628   ||displ|| :   0.2106   Lambda : -0.182D-02
Largest |displ|/coords:  0.1628 (  12)  0.0439 (  16)  0.0424 (   9)
................................................................................
.............................. CYCLE   11 ......................................
................................................................................
   1    -50.6705262 -0.506705E+02  0.135E-01    8.55       0.0  T
   2    -50.6705423 -0.161568E-04  0.100E-01    8.55       1.0  T
   3    -50.6705529 -0.105641E-04  0.230E-02    8.55       1.0  T
   4    -50.6705549 -0.203694E-05  0.827E-03    8.56       2.4  T
   5    -50.6705550 -0.999323E-07  0.251E-03    8.56       7.8  T
   6    -50.6705550 -0.978927E-08  0.132E-03    8.56      14.8  T
speedup  1.00
cpu  time for SCC    0.01 s
wall time for SCC    0.01 s
speedup  0.97
cpu  time for grad    0.01 s
wall time for grad    0.01 s
 E :    -50.41562650  G :  0.022279    pred/act E change: -0.779D-03 -0.841D-03
Maxdispl :   0.1380   ||displ|| :   0.2442   Lambda : -0.156D-02
Largest |displ|/coords:  0.1380 (  14)  0.0710 (  15)  0.0703 (   1)
................................................................................
.............................. CYCLE   12 ......................................
................................................................................
   1    -50.6795494 -0.506795E+02  0.190E-01    8.66       0.0  T
   2    -50.6795770 -0.276167E-04  0.137E-01    8.65       1.0  T
   3    -50.6795910 -0.140031E-04  0.321E-02    8.64       1.0  T
   4    -50.6795939 -0.291044E-05  0.910E-03    8.65       2.2  T
   5    -50.6795941 -0.133954E-06  0.351E-03    8.65       5.6  T
   6    -50.6795941 -0.195881E-07  0.156E-03    8.65      12.5  T
speedup  1.00
cpu  time for SCC    0.01 s
wall time for SCC    0.01 s
speedup  0.98
cpu  time for grad    0.01 s
wall time for grad    0.01 s
 E :    -50.41604628  G :  0.030651    pred/act E change: -0.952D-03 -0.420D-03
Maxdispl :   0.1269   ||displ|| :   0.2700   Lambda : -0.167D-02
Largest |displ|/coords:  0.1269 (  15)  0.1022 (   1)  0.0898 (  10)
................................................................................
.............................. CYCLE   13 ......................................
................................................................................
   1    -50.6786113 -0.506786E+02  0.236E-01    8.64       0.0  T
   2    -50.6786458 -0.345036E-04  0.170E-01    8.67       1.0  T
   3    -50.6786658 -0.200224E-04  0.323E-02    8.64       1.0  T
   4    -50.6786693 -0.351377E-05  0.100E-02    8.65       2.0  T
   5    -50.6786695 -0.142339E-06  0.359E-03    8.65       5.5  T
   6    -50.6786695 -0.203614E-07  0.193E-03    8.65      10.2  T
speedup  1.03
cpu  time for SCC    0.01 s
wall time for SCC    0.01 s
speedup  1.03
cpu  time for grad    0.01 s
wall time for grad    0.01 s
 E :    -50.41729071  G :  0.026436    pred/act E change: -0.829D-03 -0.124D-02
Maxdispl :   0.2090   ||displ|| :   0.4974   Lambda : -0.391D-02
Largest |displ|/coords:  0.2090 (  15)  0.1825 (   1)  0.1241 (  17)
................................................................................
.............................. CYCLE   14 ......................................
................................................................................
   1    -50.6741681 -0.506742E+02  0.458E-01    8.56       0.0  T
   2    -50.6743472 -0.179030E-03  0.332E-01    8.53       1.0  T
   3    -50.6744650 -0.117797E-03  0.776E-02    8.47       1.0  T
   4    -50.6744820 -0.170686E-04  0.296E-02    8.49       1.0  T
   5    -50.6744834 -0.137539E-05  0.845E-03    8.50       2.3  T
   6    -50.6744835 -0.102892E-06  0.502E-03    8.49       3.9  T
   7    -50.6744836 -0.363140E-07  0.113E-03    8.49      17.3  T
speedup  0.96
cpu  time for SCC    0.01 s
wall time for SCC    0.01 s
speedup  0.96
cpu  time for grad    0.01 s
wall time for grad    0.02 s
 E :    -50.41970250  G :  0.040569    pred/act E change: -0.895D-03 -0.241D-02
Maxdispl :   0.0991   ||displ|| :   0.3474   Lambda : -0.370D-02
Largest |displ|/coords:  0.0991 (  23)  0.0982 (   9)  0.0937 (  21)
................................................................................
.............................. CYCLE   15 ......................................
................................................................................
   1    -50.6814236 -0.506814E+02  0.309E-01    8.47       0.0  T
   2    -50.6815417 -0.118107E-03  0.225E-01    8.50       1.0  T
   3    -50.6816286 -0.868122E-04  0.659E-02    8.53       1.0  T
   4    -50.6816396 -0.110591E-04  0.263E-02    8.53       1.0  T
   5    -50.6816410 -0.135100E-05  0.678E-03    8.53       2.9  T
   6    -50.6816410 -0.614468E-07  0.395E-03    8.53       5.0  T
   7    -50.6816410 -0.167171E-07  0.102E-03    8.53      19.3  T
speedup  0.87
cpu  time for SCC    0.01 s
wall time for SCC    0.01 s
speedup  0.96
cpu  time for grad    0.01 s
wall time for grad    0.02 s
 E :    -50.42194756  G :  0.040255    pred/act E change: -0.244D-02 -0.225D-02
Maxdispl :   0.1312   ||displ|| :   0.3135   Lambda : -0.406D-02
Largest |displ|/coords:  0.1312 (  22)  0.0972 (  21)  0.0955 (  15)
................................................................................
.............................. CYCLE   16 ......................................
................................................................................
   1    -50.6891477 -0.506891E+02  0.247E-01    8.76       0.0  T
   2    -50.6892401 -0.924345E-04  0.179E-01    8.79       1.0  T
   3    -50.6892828 -0.427117E-04  0.471E-02    8.85       1.0  T
   4    -50.6892915 -0.865429E-05  0.133E-02    8.84       1.5  T
   5    -50.6892918 -0.360487E-06  0.468E-03    8.84       4.2  T
   6    -50.6892919 -0.269740E-07  0.253E-03    8.84       7.8  T
speedup  0.86
cpu  time for SCC    0.00 s
wall time for SCC    0.01 s
speedup  1.00
cpu  time for grad    0.01 s
wall time for grad    0.01 s
 E :    -50.42422873  G :  0.025038    pred/act E change: -0.207D-02 -0.228D-02
Maxdispl :   0.1153   ||displ|| :   0.3324   Lambda : -0.203D-02
Largest |displ|/coords:  0.1153 (  22)  0.1051 (   4)  0.0961 (   1)
................................................................................
.............................. CYCLE   17 ......................................
................................................................................
   1    -50.6968158 -0.506968E+02  0.218E-01    8.94       0.0  T
   2    -50.6968765 -0.606194E-04  0.161E-01    8.96       1.0  T
   3    -50.6969114 -0.349687E-04  0.428E-02    9.00       1.0  T
   4    -50.6969181 -0.670236E-05  0.116E-02    8.99       1.7  T
   5    -50.6969185 -0.326790E-06  0.513E-03    8.99       3.8  T
   6    -50.6969185 -0.360036E-07  0.248E-03    8.99       7.9  T
speedup  0.86
cpu  time for SCC    0.01 s
wall time for SCC    0.01 s
speedup  0.99
cpu  time for grad    0.01 s
wall time for grad    0.01 s
 E :    -50.42539430  G :  0.024500    pred/act E change: -0.223D-02 -0.117D-02
Maxdispl :   0.1516   ||displ|| :   0.4190   Lambda : -0.211D-02
Largest |displ|/coords:  0.1516 (  24)  0.1377 (  22)  0.1323 (   1)
................................................................................
.............................. CYCLE   18 ......................................
................................................................................
   1    -50.6967060 -0.506967E+02  0.307E-01    8.99       0.0  T
   2    -50.6968006 -0.946674E-04  0.226E-01    8.99       1.0  T
   3    -50.6968561 -0.554072E-04  0.533E-02    8.97       1.0  T
   4    -50.6968670 -0.109900E-04  0.157E-02    8.97       1.2  T
   5    -50.6968674 -0.333593E-06  0.555E-03    8.97       3.5  T
   6    -50.6968674 -0.492854E-07  0.319E-03    8.97       6.1  T
speedup  1.02
cpu  time for SCC    0.01 s
wall time for SCC    0.01 s
speedup  0.98
cpu  time for grad    0.01 s
wall time for grad    0.01 s
 E :    -50.42651001  G :  0.024909    pred/act E change: -0.113D-02 -0.112D-02
Maxdispl :   0.0785   ||displ|| :   0.2428   Lambda : -0.151D-02
Largest |displ|/coords:  0.0785 (  24)  0.0757 (  19)  0.0721 (  25)
................................................................................
.............................. CYCLE   19 ......................................
................................................................................
   1    -50.6934198 -0.506934E+02  0.257E-01    8.90       0.0  T
   2    -50.6934564 -0.365566E-04  0.184E-01    8.88       1.0  T
   3    -50.6934774 -0.209982E-04  0.403E-02    8.84       1.0  T
   4    -50.6934804 -0.304180E-05  0.991E-03    8.85       2.0  T
   5    -50.6934806 -0.119824E-06  0.314E-03    8.85       6.3  T
   6    -50.6934806 -0.170085E-07  0.156E-03    8.85      12.6  T
speedup  0.98
cpu  time for SCC    0.01 s
wall time for SCC    0.01 s
speedup  1.03
cpu  time for grad    0.01 s
wall time for grad    0.01 s
 E :    -50.42704139  G :  0.032364    pred/act E change: -0.124D-02 -0.531D-03
Maxdispl :   0.0777   ||displ|| :   0.1799   Lambda : -0.141D-02
Largest |displ|/coords:  0.0777 (  10)  0.0715 (   1)  0.0680 (  11)
................................................................................
.............................. CYCLE   20 ......................................
................................................................................
   1    -50.6967621 -0.506968E+02  0.131E-01    8.75       0.0  T
   2    -50.6967756 -0.134920E-04  0.972E-02    8.75       1.0  T
   3    -50.6967848 -0.918600E-05  0.211E-02    8.73       1.0  T
   4    -50.6967864 -0.158887E-05  0.817E-03    8.73       2.4  T
   5    -50.6967865 -0.981201E-07  0.233E-03    8.73       8.4  T
   6    -50.6967865 -0.901000E-08  0.124E-03    8.73      15.8  T
speedup  0.95
cpu  time for SCC    0.01 s
wall time for SCC    0.01 s
speedup  0.95
cpu  time for grad    0.01 s
wall time for grad    0.01 s
 E :    -50.42753087  G :  0.027225    pred/act E change: -0.797D-03 -0.489D-03
Maxdispl :   0.1183   ||displ|| :   0.2518   Lambda : -0.190D-02
Largest |displ|/coords:  0.1183 (  17)  0.0740 (  22)  0.0669 (   2)
................................................................................
.............................. CYCLE   21 ......................................
................................................................................
   1    -50.6982309 -0.506982E+02  0.185E-01    8.63       0.0  T
   2    -50.6982598 -0.288444E-04  0.137E-01    8.62       1.0  T
   3    -50.6982809 -0.211273E-04  0.305E-02    8.58       1.0  T
   4    -50.6982842 -0.327298E-05  0.108E-02    8.58       1.8  T
   5    -50.6982844 -0.200419E-06  0.370E-03    8.58       5.3  T
   6    -50.6982844 -0.186519E-07  0.189E-03    8.58      10.4  T
speedup  0.97
cpu  time for SCC    0.01 s
wall time for SCC    0.01 s
speedup  1.01
cpu  time for grad    0.01 s
wall time for grad    0.01 s
 E :    -50.42815344  G :  0.026422    pred/act E change: -0.727D-03 -0.623D-03
Maxdispl :   0.1403   ||displ|| :   0.2837   Lambda : -0.151D-02
Largest |displ|/coords:  0.1403 (  24)  0.0815 (  23)  0.0785 (  25)
................................................................................
.............................. CYCLE   22 ......................................
................................................................................
   1    -50.7034064 -0.507034E+02  0.229E-01    8.59       0.0  T
   2    -50.7035137 -0.107254E-03  0.168E-01    8.57       1.0  T
   3    -50.7035684 -0.547780E-04  0.520E-02    8.52       1.0  T
   4    -50.7035794 -0.109169E-04  0.112E-02    8.52       1.7  T
   5    -50.7035795 -0.153146E-06  0.461E-03    8.52       4.3  T
   6    -50.7035795 -0.208074E-07  0.210E-03    8.52       9.3  T
speedup  1.02
cpu  time for SCC    0.01 s
wall time for SCC    0.01 s
speedup  0.98
cpu  time for grad    0.01 s
wall time for grad    0.01 s
 E :    -50.42908142  G :  0.027964    pred/act E change: -0.101D-02 -0.928D-03
Maxdispl :   0.1196   ||displ|| :   0.3047   Lambda : -0.198D-02
Largest |displ|/coords:  0.1196 (  24)  0.1150 (   1)  0.1026 (  17)
................................................................................
.............................. CYCLE   23 ......................................
................................................................................
   1    -50.7094433 -0.507094E+02  0.211E-01    8.52       0.0  T
   2    -50.7095078 -0.645381E-04  0.159E-01    8.49       1.0  T
   3    -50.7095431 -0.353138E-04  0.468E-02    8.43       1.0  T
   4    -50.7095506 -0.752817E-05  0.197E-02    8.43       1.0  T
   5    -50.7095513 -0.666933E-06  0.488E-03    8.43       4.0  T
   6    -50.7095513 -0.346684E-07  0.267E-03    8.43       7.3  T
speedup  1.03
cpu  time for SCC    0.01 s
wall time for SCC    0.01 s
speedup  0.99
cpu  time for grad    0.01 s
wall time for grad    0.01 s
 E :    -50.43038131  G :  0.032136    pred/act E change: -0.817D-03 -0.130D-02
Maxdispl :   0.1779   ||displ|| :   0.4714   Lambda : -0.292D-02
Largest |displ|/coords:  0.1779 (   1)  0.1592 (  24)  0.1563 (  17)
................................................................................
.............................. CYCLE   24 ......................................
................................................................................
   1    -50.7154657 -0.507155E+02  0.368E-01    8.40       0.0  T
   2    -50.7156888 -0.223117E-03  0.274E-01    8.37       1.0  T
   3    -50.7158239 -0.135074E-03  0.817E-02    8.28       1.0  T
   4    -50.7158484 -0.244814E-04  0.252E-02    8.27       1.0  T
   5    -50.7158496 -0.125889E-05  0.982E-03    8.27       2.0  T
   6    -50.7158497 -0.850446E-07  0.463E-03    8.27       4.2  T
   7    -50.7158498 -0.371026E-07  0.104E-03    8.27      18.8  T
speedup  1.03
cpu  time for SCC    0.01 s
wall time for SCC    0.01 s
speedup  1.01
cpu  time for grad    0.01 s
wall time for grad    0.01 s
 E :    -50.43228371  G :  0.045442    pred/act E change: -0.108D-02 -0.190D-02
Maxdispl :   0.1513   ||displ|| :   0.3958   Lambda : -0.577D-02
Largest |displ|/coords:  0.1513 (  17)  0.1332 (  29)  0.1248 (  23)
................................................................................
.............................. CYCLE   25 ......................................
................................................................................
   1    -50.7391949 -0.507392E+02  0.353E-01    8.36       0.0  T
   2    -50.7393900 -0.195119E-03  0.259E-01    8.32       1.0  T
   3    -50.7395265 -0.136492E-03  0.860E-02    8.24       1.0  T
   4    -50.7395444 -0.179391E-04  0.269E-02    8.22       1.0  T
   5    -50.7395463 -0.188109E-05  0.105E-02    8.22       1.9  T
   6    -50.7395464 -0.127214E-06  0.543E-03    8.22       3.6  T
   7    -50.7395465 -0.445980E-07  0.140E-03    8.22      14.0  T
speedup  1.03
cpu  time for SCC    0.01 s
wall time for SCC    0.01 s
speedup  0.99
cpu  time for grad    0.01 s
wall time for grad    0.02 s
 E :    -50.43298990  G :  0.069435    pred/act E change: -0.178D-02 -0.706D-03
Maxdispl :   0.1058   ||displ|| :   0.3264   Lambda : -0.122D-01
Largest |displ|/coords:  0.1058 (  28)  0.0968 (  50)  0.0815 (  23)

generating ANC from model Hessian ...
 Shifting diagonal of input Hessian by   4.901032331722438E-003
 Lowest  eigenvalues of input Hessian
   -0.000000   -0.000000   -0.000000    0.000000    0.000000    0.000000
    0.005000    0.005197    0.005442    0.005597    0.006105    0.006209
    0.006251    0.006709    0.007128    0.008244    0.008614    0.009055
 Highest eigenvalues
    1.368878    1.386462    1.395635    2.494482    3.218215    3.905844
 
cpu  time for ANC gen    0.02 s
wall time for ANC gen    0.02 s
................................................................................
.............................. CYCLE   26 ......................................
................................................................................
   1    -50.7054567 -0.507055E+02  0.381E-01    8.08       0.0  T
   2    -50.7056735 -0.216779E-03  0.274E-01    8.09       1.0  T
   3    -50.7058084 -0.134931E-03  0.767E-02    8.12       1.0  T
   4    -50.7058257 -0.173249E-04  0.177E-02    8.14       1.1  T
   5    -50.7058262 -0.473413E-06  0.901E-03    8.14       2.2  T
   6    -50.7058264 -0.158670E-06  0.421E-03    8.13       4.7  T
   7    -50.7058264 -0.240777E-07  0.118E-03    8.13      16.6  T
   8    -50.7058264 -0.275828E-08  0.316E-04    8.13      62.1  T
   9    -50.7058264 -0.291365E-09  0.156E-04    8.13     125.6  T
speedup  1.03
cpu  time for SCC    0.01 s
wall time for SCC    0.01 s
speedup  1.02
cpu  time for grad    0.02 s
wall time for grad    0.02 s
 E :    -50.43210589  G :  0.062880    pred/act E change:  0.000D+00  0.884D-03
Maxdispl :   0.1293   ||displ|| :   0.2558   Lambda : -0.516D-02
Largest |displ|/coords:  0.1293 (  10)  0.0918 (  11)  0.0819 (  16)
................................................................................
.............................. CYCLE   27 ......................................
................................................................................
   1    -50.7185418 -0.507185E+02  0.176E-01    8.17       0.0  T
   2    -50.7185635 -0.216667E-04  0.132E-01    8.16       1.0  T
   3    -50.7185785 -0.150120E-04  0.258E-02    8.13       1.0  T
   4    -50.7185811 -0.261312E-05  0.702E-03    8.13       2.8  T
   5    -50.7185812 -0.826630E-07  0.320E-03    8.13       6.1  T
   6    -50.7185812 -0.922154E-08  0.137E-03    8.13      14.3  T
speedup  0.88
cpu  time for SCC    0.00 s
wall time for SCC    0.01 s
speedup  0.99
cpu  time for grad    0.01 s
wall time for grad    0.01 s
 E :    -50.43539800  G :  0.030308    pred/act E change:  0.000D+00 -0.329D-02
Maxdispl :   0.1513   ||displ|| :   0.2995   Lambda : -0.335D-02
Largest |displ|/coords:  0.1513 (  10)  0.1106 (   8)  0.0872 (  15)
................................................................................
.............................. CYCLE   28 ......................................
................................................................................
   1    -50.7329377 -0.507329E+02  0.220E-01    8.13       0.0  T
   2    -50.7329917 -0.540713E-04  0.162E-01    8.12       1.0  T
   3    -50.7330226 -0.308899E-04  0.393E-02    8.08       1.0  T
   4    -50.7330282 -0.554311E-05  0.771E-03    8.08       2.5  T
   5    -50.7330283 -0.998492E-07  0.391E-03    8.08       5.0  T
   6    -50.7330283 -0.130324E-07  0.172E-03    8.08      11.4  T
speedup  0.88
cpu  time for SCC    0.01 s
wall time for SCC    0.01 s
speedup  1.01
cpu  time for grad    0.01 s
wall time for grad    0.01 s
 E :    -50.43567528  G :  0.038534    pred/act E change: -0.275D-02 -0.277D-03
Maxdispl :   0.1186   ||displ|| :   0.1940   Lambda : -0.209D-02
Largest |displ|/coords:  0.1186 (  10)  0.0833 (  16)  0.0557 (  11)
................................................................................
.............................. CYCLE   29 ......................................
................................................................................
   1    -50.7287882 -0.507288E+02  0.114E-01    8.07       0.0  T
   2    -50.7287967 -0.848691E-05  0.844E-02    8.07       1.0  T
   3    -50.7288009 -0.418706E-05  0.154E-02    8.06       1.3  T
   4    -50.7288019 -0.102113E-05  0.360E-03    8.06       5.5  T
   5    -50.7288019 -0.264010E-07  0.142E-03    8.06      13.9  T
speedup  1.04
cpu  time for SCC    0.00 s
wall time for SCC    0.00 s
speedup  1.00
cpu  time for grad    0.01 s
wall time for grad    0.01 s
 E :    -50.43695855  G :  0.013571    pred/act E change: -0.182D-02 -0.128D-02
Maxdispl :   0.0729   ||displ|| :   0.1691   Lambda : -0.565D-03
Largest |displ|/coords:  0.0729 (  16)  0.0706 (   2)  0.0568 (  10)
................................................................................
.............................. CYCLE   30 ......................................
................................................................................
   1    -50.7292017 -0.507292E+02  0.855E-02    8.04       0.0  T
   2    -50.7292069 -0.517118E-05  0.638E-02    8.03       1.0  T
   3    -50.7292096 -0.265428E-05  0.124E-02    8.01       1.6  T
   4    -50.7292103 -0.744693E-06  0.362E-03    8.01       5.4  T
   5    -50.7292103 -0.253136E-07  0.151E-03    8.01      13.0  T
   6    -50.7292103 -0.299106E-08  0.779E-04    8.01      25.2  T
speedup  0.86
cpu  time for SCC    0.00 s
wall time for SCC    0.01 s
speedup  1.00
cpu  time for grad    0.01 s
wall time for grad    0.01 s
 E :    -50.43737523  G :  0.010053    pred/act E change: -0.108D-02 -0.417D-03
Maxdispl :   0.1098   ||displ|| :   0.2357   Lambda : -0.584D-03
Largest |displ|/coords:  0.1098 (   2)  0.0883 (  16)  0.0813 (   8)
................................................................................
.............................. CYCLE   31 ......................................
................................................................................
   1    -50.7313399 -0.507313E+02  0.118E-01    7.98       0.0  T
   2    -50.7313482 -0.831167E-05  0.879E-02    7.97       1.0  T
   3    -50.7313537 -0.547505E-05  0.162E-02    7.94       1.2  T
   4    -50.7313548 -0.114620E-05  0.524E-03    7.94       3.7  T
   5    -50.7313548 -0.450205E-07  0.229E-03    7.94       8.6  T
   6    -50.7313549 -0.753932E-08  0.120E-03    7.94      16.4  T
speedup  1.03
cpu  time for SCC    0.01 s
wall time for SCC    0.01 s
speedup  1.01
cpu  time for grad    0.01 s
wall time for grad    0.01 s
 E :    -50.43775793  G :  0.008363    pred/act E change: -0.291D-03 -0.383D-03
Maxdispl :   0.0842   ||displ|| :   0.1769   Lambda : -0.287D-03
Largest |displ|/coords:  0.0842 (   2)  0.0614 (  18)  0.0557 (   8)
................................................................................
.............................. CYCLE   32 ......................................
................................................................................
   1    -50.7342701 -0.507343E+02  0.733E-02    7.92       0.0  T
   2    -50.7342729 -0.285693E-05  0.555E-02    7.91       1.0  T
   3    -50.7342756 -0.263475E-05  0.999E-03    7.89       2.0  T
   4    -50.7342759 -0.358343E-06  0.373E-03    7.90       5.3  T
   5    -50.7342759 -0.199692E-07  0.147E-03    7.90      13.4  T
   6    -50.7342759 -0.380609E-08  0.742E-04    7.90      26.4  T
speedup  0.86
cpu  time for SCC    0.00 s
wall time for SCC    0.01 s
speedup  0.98
cpu  time for grad    0.01 s
wall time for grad    0.01 s
 E :    -50.43792237  G :  0.005748    pred/act E change: -0.308D-03 -0.164D-03
Maxdispl :   0.0441   ||displ|| :   0.1112   Lambda : -0.125D-03
Largest |displ|/coords:  0.0441 (   2)  0.0388 (  18)  0.0352 (   8)
................................................................................
.............................. CYCLE   33 ......................................
................................................................................
   1    -50.7345401 -0.507345E+02  0.649E-02    7.89       0.0  T
   2    -50.7345406 -0.540081E-06  0.488E-02    7.89       1.0  T
   3    -50.7345413 -0.651255E-06  0.413E-03    7.88       4.8  T
   4    -50.7345413 -0.418951E-07  0.152E-03    7.88      12.9  T
   5    -50.7345413 -0.342030E-08  0.726E-04    7.88      27.0  T
speedup  1.02
cpu  time for SCC    0.01 s
wall time for SCC    0.00 s
speedup  0.99
cpu  time for grad    0.01 s
wall time for grad    0.01 s
 E :    -50.43798789  G :  0.003731    pred/act E change: -0.148D-03 -0.655D-04
Maxdispl :   0.0232   ||displ|| :   0.0592   Lambda : -0.417D-04
Largest |displ|/coords:  0.0232 (   2)  0.0222 (   6)  0.0203 (   1)
................................................................................
.............................. CYCLE   34 ......................................
................................................................................
   1    -50.7346147 -0.507346E+02  0.309E-02    7.88       0.0  T
   2    -50.7346150 -0.298412E-06  0.231E-02    7.88       1.0  T
   3    -50.7346152 -0.205713E-06  0.274E-03    7.88       7.2  T
   4    -50.7346152 -0.402038E-07  0.112E-03    7.88      17.6  T
   5    -50.7346152 -0.135617E-08  0.357E-04    7.88      54.9  T
   6    -50.7346152 -0.142848E-09  0.192E-04    7.88     102.0  T
speedup  1.00
cpu  time for SCC    0.01 s
wall time for SCC    0.01 s
speedup  1.00
cpu  time for grad    0.01 s
wall time for grad    0.01 s
 E :    -50.43802047  G :  0.002408    pred/act E change: -0.634D-04 -0.326D-04
Maxdispl :   0.0789   ||displ|| :   0.1621   Lambda : -0.736D-04
Largest |displ|/coords:  0.0789 (   2)  0.0675 (   6)  0.0551 (   1)
................................................................................
.............................. CYCLE   35 ......................................
................................................................................
   1    -50.7343203 -0.507343E+02  0.824E-02    7.87       0.0  T
   2    -50.7343221 -0.185740E-05  0.613E-02    7.87       1.0  T
   3    -50.7343234 -0.127002E-05  0.689E-03    7.87       2.8  T
   4    -50.7343236 -0.234652E-06  0.287E-03    7.87       6.8  T
   5    -50.7343236 -0.111244E-07  0.862E-04    7.87      22.7  T
   6    -50.7343236 -0.657366E-09  0.475E-04    7.87      41.3  T
speedup  1.03
cpu  time for SCC    0.01 s
wall time for SCC    0.01 s
speedup  1.02
cpu  time for grad    0.01 s
wall time for grad    0.01 s
 E :    -50.43807278  G :  0.003092    pred/act E change: -0.209D-04 -0.523D-04
Maxdispl :   0.1187   ||displ|| :   0.2180   Lambda : -0.688D-04
Largest |displ|/coords:  0.1187 (   2)  0.0881 (   6)  0.0730 (   1)
................................................................................
.............................. CYCLE   36 ......................................
................................................................................
   1    -50.7336160 -0.507336E+02  0.102E-01    7.86       0.0  T
   2    -50.7336182 -0.216018E-05  0.759E-02    7.86       1.0  T
   3    -50.7336197 -0.151694E-05  0.824E-03    7.86       2.4  T
   4    -50.7336200 -0.263455E-06  0.314E-03    7.86       6.3  T
   5    -50.7336200 -0.116190E-07  0.911E-04    7.86      21.5  T
   6    -50.7336200 -0.542585E-09  0.491E-04    7.86      39.9  T
speedup  1.05
cpu  time for SCC    0.01 s
wall time for SCC    0.01 s
speedup  1.03
cpu  time for grad    0.01 s
wall time for grad    0.01 s
 E :    -50.43812856  G :  0.005580    pred/act E change: -0.378D-04 -0.558D-04
Maxdispl :   0.2653   ||displ|| :   0.4547   Lambda : -0.149D-03
Largest |displ|/coords:  0.2653 (   2)  0.1733 (   6)  0.1463 (   1)
................................................................................
.............................. CYCLE   37 ......................................
................................................................................
   1    -50.7311009 -0.507311E+02  0.201E-01    7.82       0.0  T
   2    -50.7311083 -0.737948E-05  0.149E-01    7.82       1.0  T
   3    -50.7311135 -0.517797E-05  0.165E-02    7.82       1.2  T
   4    -50.7311144 -0.933689E-06  0.568E-03    7.82       3.5  T
   5    -50.7311145 -0.387220E-07  0.188E-03    7.82      10.4  T
   6    -50.7311145 -0.196062E-08  0.919E-04    7.82      21.3  T
speedup  1.05
cpu  time for SCC    0.01 s
wall time for SCC    0.01 s
speedup  0.98
cpu  time for grad    0.01 s
wall time for grad    0.01 s
 E :    -50.43823576  G :  0.011310    pred/act E change: -0.360D-04 -0.107D-03
Maxdispl :   0.2634   ||displ|| :   0.4029   Lambda : -0.228D-03
Largest |displ|/coords:  0.2634 (   2)  0.1247 (   1)  0.1067 (   8)
................................................................................
.............................. CYCLE   38 ......................................
................................................................................
   1    -50.7305155 -0.507305E+02  0.153E-01    7.80       0.0  T
   2    -50.7305216 -0.603886E-05  0.114E-01    7.79       1.0  T
   3    -50.7305247 -0.312365E-05  0.173E-02    7.78       1.1  T
   4    -50.7305257 -0.100225E-05  0.424E-03    7.78       4.6  T
   5    -50.7305257 -0.265710E-07  0.146E-03    7.78      13.4  T
   6    -50.7305257 -0.168089E-08  0.743E-04    7.78      26.4  T
speedup  1.03
cpu  time for SCC    0.01 s
wall time for SCC    0.01 s
speedup  0.97
cpu  time for grad    0.01 s
wall time for grad    0.01 s
 E :    -50.43841276  G :  0.012089    pred/act E change: -0.899D-04 -0.177D-03
Maxdispl :   0.3227   ||displ|| :   0.4832   Lambda : -0.427D-03
Largest |displ|/coords:  0.3227 (   2)  0.1346 (   1)  0.1314 (   8)
................................................................................
.............................. CYCLE   39 ......................................
................................................................................
   1    -50.7302039 -0.507302E+02  0.194E-01    7.77       0.0  T
   2    -50.7302119 -0.802449E-05  0.144E-01    7.76       1.0  T
   3    -50.7302175 -0.562548E-05  0.193E-02    7.73       1.0  T
   4    -50.7302186 -0.108779E-05  0.515E-03    7.74       3.8  T
   5    -50.7302187 -0.324297E-07  0.214E-03    7.74       9.2  T
   6    -50.7302187 -0.469240E-08  0.873E-04    7.74      22.5  T
speedup  0.98
cpu  time for SCC    0.01 s
wall time for SCC    0.01 s
speedup  1.05
cpu  time for grad    0.01 s
wall time for grad    0.01 s
 E :    -50.43876566  G :  0.012346    pred/act E change: -0.133D-03 -0.353D-03
Maxdispl :   0.3219   ||displ|| :   0.4572   Lambda : -0.665D-03
Largest |displ|/coords:  0.3219 (   2)  0.1098 (   7)  0.1080 (   3)
................................................................................
.............................. CYCLE   40 ......................................
................................................................................
   1    -50.7355185 -0.507355E+02  0.181E-01    7.82       0.0  T
   2    -50.7355343 -0.157484E-04  0.135E-01    7.80       1.0  T
   3    -50.7355429 -0.860520E-05  0.251E-02    7.75       1.0  T
   4    -50.7355454 -0.256022E-05  0.631E-03    7.77       3.1  T
   5    -50.7355455 -0.667596E-07  0.282E-03    7.77       6.9  T
   6    -50.7355455 -0.954575E-08  0.141E-03    7.77      13.9  T
speedup  0.97
cpu  time for SCC    0.01 s
wall time for SCC    0.01 s
speedup  0.98
cpu  time for grad    0.01 s
wall time for grad    0.01 s
 E :    -50.43902096  G :  0.013181    pred/act E change: -0.263D-03 -0.255D-03
Maxdispl :   0.3990   ||displ|| :   0.6620   Lambda : -0.867D-03
Largest |displ|/coords:  0.3990 (   2)  0.2576 (   6)  0.1963 (   7)
................................................................................
.............................. CYCLE   41 ......................................
................................................................................
   1    -50.7239926 -0.507240E+02  0.287E-01    7.62       0.0  T
   2    -50.7240080 -0.154564E-04  0.213E-01    7.62       1.0  T
   3    -50.7240170 -0.899761E-05  0.241E-02    7.63       1.0  T
   4    -50.7240195 -0.242446E-05  0.681E-03    7.62       2.9  T
   5    -50.7240195 -0.449383E-07  0.301E-03    7.62       6.5  T
   6    -50.7240195 -0.980540E-08  0.110E-03    7.62      17.9  T
   7    -50.7240195 -0.388594E-08  0.360E-04    7.62      54.5  T
speedup  1.06
cpu  time for SCC    0.01 s
wall time for SCC    0.01 s
speedup  1.00
cpu  time for grad    0.01 s
wall time for grad    0.01 s
 E :    -50.43885869  G :  0.025514    pred/act E change: -0.402D-03  0.162D-03
Maxdispl :   0.1742   ||displ|| :   0.2288   Lambda : -0.145D-02
Largest |displ|/coords:  0.1742 (   6)  0.0814 (   7)  0.0572 (   2)
................................................................................
.............................. CYCLE   42 ......................................
................................................................................
   1    -50.7325868 -0.507326E+02  0.143E-01    7.71       0.0  T
   2    -50.7325953 -0.849080E-05  0.105E-01    7.70       1.0  T
   3    -50.7325990 -0.372856E-05  0.167E-02    7.67       1.2  T
   4    -50.7326003 -0.127802E-05  0.448E-03    7.69       4.4  T
   5    -50.7326003 -0.234592E-07  0.202E-03    7.69       9.7  T
speedup  1.02
cpu  time for SCC    0.00 s
wall time for SCC    0.00 s
speedup  0.97
cpu  time for grad    0.01 s
wall time for grad    0.01 s
 E :    -50.43945559  G :  0.011701    pred/act E change: -0.623D-03 -0.597D-03
Maxdispl :   0.1777   ||displ|| :   0.2831   Lambda : -0.451D-03
Largest |displ|/coords:  0.1777 (   2)  0.0942 (   3)  0.0887 (   1)
................................................................................
.............................. CYCLE   43 ......................................
................................................................................
   1    -50.7344979 -0.507345E+02  0.141E-01    7.70       0.0  T
   2    -50.7345037 -0.580717E-05  0.105E-01    7.70       1.0  T
   3    -50.7345083 -0.459690E-05  0.135E-02    7.69       1.4  T
   4    -50.7345089 -0.592845E-06  0.479E-03    7.69       4.1  T
   5    -50.7345089 -0.260085E-07  0.164E-03    7.69      11.9  T
   6    -50.7345089 -0.342135E-08  0.740E-04    7.69      26.5  T
speedup  1.03
cpu  time for SCC    0.01 s
wall time for SCC    0.01 s
speedup  0.99
cpu  time for grad    0.01 s
wall time for grad    0.01 s
 E :    -50.43952881  G :  0.015219    pred/act E change: -0.761D-03 -0.732D-04
Maxdispl :   0.0563   ||displ|| :   0.1407   Lambda : -0.419D-03
Largest |displ|/coords:  0.0563 (  12)  0.0554 (   7)  0.0459 (  16)
................................................................................
.............................. CYCLE   44 ......................................
................................................................................
   1    -50.7353213 -0.507353E+02  0.988E-02    7.71       0.0  T
   2    -50.7353248 -0.350608E-05  0.729E-02    7.72       1.0  T
   3    -50.7353268 -0.203698E-05  0.114E-02    7.74       1.7  T
   4    -50.7353273 -0.502194E-06  0.310E-03    7.73       6.3  T
   5    -50.7353273 -0.145384E-07  0.128E-03    7.73      15.4  T
   6    -50.7353273 -0.222509E-08  0.608E-04    7.73      32.3  T
speedup  1.00
cpu  time for SCC    0.01 s
wall time for SCC    0.01 s
speedup  1.03
cpu  time for grad    0.01 s
wall time for grad    0.01 s
 E :    -50.43980645  G :  0.005807    pred/act E change: -0.244D-03 -0.278D-03
Maxdispl :   0.4098   ||displ|| :   0.6006   Lambda : -0.417D-03
Largest |displ|/coords:  0.4098 (   2)  0.1846 (   1)  0.1590 (   7)
................................................................................
.............................. CYCLE   45 ......................................
................................................................................
   1    -50.7292843 -0.507293E+02  0.252E-01    7.68       0.0  T
   2    -50.7292960 -0.116989E-04  0.189E-01    7.67       1.0  T
   3    -50.7293068 -0.107192E-04  0.211E-02    7.65       1.0  T
   4    -50.7293080 -0.124935E-05  0.791E-03    7.65       2.5  T
   5    -50.7293081 -0.639350E-07  0.254E-03    7.65       7.7  T
   6    -50.7293081 -0.685689E-08  0.132E-03    7.65      14.9  T
speedup  0.86
cpu  time for SCC    0.01 s
wall time for SCC    0.01 s
speedup  0.99
cpu  time for grad    0.01 s
wall time for grad    0.01 s
 E :    -50.43988975  G :  0.016144    pred/act E change: -0.214D-03 -0.833D-04
Maxdispl :   0.0555   ||displ|| :   0.1212   Lambda : -0.389D-03
Largest |displ|/coords:  0.0555 (   5)  0.0372 (   3)  0.0354 (  16)
................................................................................
.............................. CYCLE   46 ......................................
................................................................................
   1    -50.7347805 -0.507348E+02  0.915E-02    7.67       0.0  T
   2    -50.7347832 -0.272296E-05  0.676E-02    7.67       1.0  T
   3    -50.7347851 -0.194712E-05  0.104E-02    7.68       1.9  T
   4    -50.7347854 -0.283371E-06  0.294E-03    7.68       6.7  T
   5    -50.7347854 -0.125995E-07  0.105E-03    7.68      18.6  T
speedup  1.04
cpu  time for SCC    0.00 s
wall time for SCC    0.00 s
speedup  1.00
cpu  time for grad    0.01 s
wall time for grad    0.01 s
 E :    -50.44009460  G :  0.007989    pred/act E change: -0.284D-03 -0.205D-03
Maxdispl :   0.0781   ||displ|| :   0.1546   Lambda : -0.224D-03
Largest |displ|/coords:  0.0781 (   2)  0.0503 (   1)  0.0458 (   5)
................................................................................
.............................. CYCLE   47 ......................................
................................................................................
   1    -50.7376638 -0.507377E+02  0.104E-01    7.72       0.0  T
   2    -50.7376663 -0.251563E-05  0.777E-02    7.72       1.0  T
   3    -50.7376686 -0.227405E-05  0.959E-03    7.71       2.0  T
   4    -50.7376688 -0.239453E-06  0.360E-03    7.71       5.4  T
   5    -50.7376688 -0.133025E-07  0.101E-03    7.72      19.5  T
   6    -50.7376688 -0.134138E-08  0.562E-04    7.71      34.9  T
speedup  1.02
cpu  time for SCC    0.01 s
wall time for SCC    0.01 s
speedup  0.99
cpu  time for grad    0.01 s
wall time for grad    0.01 s
 E :    -50.44018302  G :  0.008172    pred/act E change: -0.197D-03 -0.884D-04
Maxdispl :   0.1996   ||displ|| :   0.3415   Lambda : -0.200D-03
Largest |displ|/coords:  0.1996 (   2)  0.1447 (   1)  0.0990 (  12)
................................................................................
.............................. CYCLE   48 ......................................
................................................................................
   1    -50.7361709 -0.507362E+02  0.164E-01    7.67       0.0  T
   2    -50.7361754 -0.441549E-05  0.123E-01    7.67       1.0  T
   3    -50.7361797 -0.432517E-05  0.141E-02    7.67       1.4  T
   4    -50.7361802 -0.468796E-06  0.532E-03    7.67       3.7  T
   5    -50.7361802 -0.229909E-07  0.141E-03    7.67      14.0  T
   6    -50.7361802 -0.220337E-08  0.850E-04    7.67      23.1  T
speedup  1.03
cpu  time for SCC    0.01 s
wall time for SCC    0.01 s
speedup  1.00
cpu  time for grad    0.01 s
wall time for grad    0.01 s
 E :    -50.44032461  G :  0.006710    pred/act E change: -0.114D-03 -0.142D-03
Maxdispl :   0.1935   ||displ|| :   0.3526   Lambda : -0.206D-03
Largest |displ|/coords:  0.1935 (   2)  0.1663 (   1)  0.0998 (   7)
................................................................................
.............................. CYCLE   49 ......................................
................................................................................
   1    -50.7353148 -0.507353E+02  0.170E-01    7.62       0.0  T
   2    -50.7353201 -0.531900E-05  0.127E-01    7.62       1.0  T
   3    -50.7353249 -0.485242E-05  0.138E-02    7.61       1.4  T
   4    -50.7353255 -0.593444E-06  0.554E-03    7.61       3.5  T
   5    -50.7353256 -0.235961E-07  0.137E-03    7.61      14.4  T
   6    -50.7353256 -0.189373E-08  0.768E-04    7.61      25.5  T
speedup  0.95
cpu  time for SCC    0.01 s
wall time for SCC    0.01 s
speedup  1.02
cpu  time for grad    0.01 s
wall time for grad    0.01 s
 E :    -50.44043359  G :  0.006959    pred/act E change: -0.111D-03 -0.109D-03
Maxdispl :   0.0950   ||displ|| :   0.2233   Lambda : -0.170D-03
Largest |displ|/coords:  0.0950 (   1)  0.0856 (  12)  0.0707 (   2)
................................................................................
.............................. CYCLE   50 ......................................
................................................................................
   1    -50.7346133 -0.507346E+02  0.155E-01    7.58       0.0  T
   2    -50.7346165 -0.319161E-05  0.117E-01    7.58       1.0  T
   3    -50.7346201 -0.352852E-05  0.935E-03    7.58       2.1  T
   4    -50.7346203 -0.260227E-06  0.396E-03    7.58       5.0  T
   5    -50.7346203 -0.141939E-07  0.116E-03    7.58      16.9  T
   6    -50.7346203 -0.227469E-08  0.655E-04    7.58      29.9  T
speedup  1.02
cpu  time for SCC    0.01 s
wall time for SCC    0.01 s
speedup  0.97
cpu  time for grad    0.01 s
wall time for grad    0.01 s
 E :    -50.44052170  G :  0.009270    pred/act E change: -0.116D-03 -0.881D-04
Maxdispl :   0.0814   ||displ|| :   0.1960   Lambda : -0.222D-03
Largest |displ|/coords:  0.0814 (  11)  0.0790 (   3)  0.0625 (   2)
................................................................................
.............................. CYCLE   51 ......................................
................................................................................
   1    -50.7368453 -0.507368E+02  0.118E-01    7.64       0.0  T
   2    -50.7368481 -0.282815E-05  0.877E-02    7.64       1.0  T
   3    -50.7368507 -0.256773E-05  0.119E-02    7.65       1.6  T
   4    -50.7368510 -0.242352E-06  0.272E-03    7.65       7.2  T
   5    -50.7368510 -0.174661E-07  0.106E-03    7.65      18.4  T
speedup  1.04
cpu  time for SCC    0.00 s
wall time for SCC    0.00 s
speedup  0.97
cpu  time for grad    0.01 s
wall time for grad    0.01 s
 E :    -50.44062389  G :  0.007042    pred/act E change: -0.892D-04 -0.102D-03
Maxdispl :   0.1255   ||displ|| :   0.2751   Lambda : -0.185D-03
Largest |displ|/coords:  0.1255 (   2)  0.1222 (   1)  0.0934 (  12)
................................................................................
.............................. CYCLE   52 ......................................
................................................................................
   1    -50.7339700 -0.507340E+02  0.166E-01    7.59       0.0  T
   2    -50.7339764 -0.633943E-05  0.125E-01    7.59       1.0  T
   3    -50.7339817 -0.528174E-05  0.136E-02    7.61       1.4  T
   4    -50.7339825 -0.792449E-06  0.507E-03    7.60       3.9  T
   5    -50.7339825 -0.224639E-07  0.156E-03    7.60      12.5  T
   6    -50.7339825 -0.292204E-08  0.771E-04    7.60      25.4  T
speedup  0.88
cpu  time for SCC    0.00 s
wall time for SCC    0.01 s
speedup  0.98
cpu  time for grad    0.01 s
wall time for grad    0.01 s
 E :    -50.44069306  G :  0.009345    pred/act E change: -0.115D-03 -0.692D-04
Maxdispl :   0.0654   ||displ|| :   0.1359   Lambda : -0.184D-03
Largest |displ|/coords:  0.0654 (  12)  0.0598 (   7)  0.0543 (   1)

generating ANC from model Hessian ...
 Shifting diagonal of input Hessian by   5.004199850575507E-003
 Lowest  eigenvalues of input Hessian
    0.005000   -0.000000   -0.000000   -0.000000   -0.000000    0.000000
    0.000000    0.005215    0.005547    0.005921    0.006215    0.006393
    0.006684    0.007279    0.007431    0.008002    0.008132    0.008438
 Highest eigenvalues
    1.384779    1.396519    1.427205    2.538891    3.182121    3.880418
 
cpu  time for ANC gen    0.02 s
wall time for ANC gen    0.02 s
................................................................................
.............................. CYCLE   53 ......................................
................................................................................
   1    -50.7364159 -0.507364E+02  0.929E-02    7.62       0.0  T
   2    -50.7364186 -0.266662E-05  0.687E-02    7.62       1.0  T
   3    -50.7364210 -0.235840E-05  0.103E-02    7.61       1.9  T
   4    -50.7364212 -0.239706E-06  0.325E-03    7.61       6.0  T
   5    -50.7364212 -0.143787E-07  0.114E-03    7.61      17.2  T
   6    -50.7364212 -0.163432E-08  0.609E-04    7.61      32.2  T
   7    -50.7364212 -0.629484E-09  0.141E-04    7.61     139.3  T
speedup  1.06
cpu  time for SCC    0.01 s
wall time for SCC    0.01 s
speedup  1.04
cpu  time for grad    0.02 s
wall time for grad    0.02 s
 E :    -50.44072672  G :  0.011669    pred/act E change:  0.000D+00 -0.337D-04
Maxdispl :   0.0582   ||displ|| :   0.1135   Lambda : -0.260D-03
Largest |displ|/coords:  0.0582 (  14)  0.0530 (   8)  0.0320 (  13)
................................................................................
.............................. CYCLE   54 ......................................
................................................................................
   1    -50.7354850 -0.507355E+02  0.813E-02    7.65       0.0  T
   2    -50.7354862 -0.122409E-05  0.610E-02    7.65       1.0  T
   3    -50.7354873 -0.114453E-05  0.654E-03    7.65       3.0  T
   4    -50.7354874 -0.129628E-06  0.200E-03    7.65       9.8  T
   5    -50.7354875 -0.487066E-08  0.830E-04    7.65      23.6  T
speedup  1.00
cpu  time for SCC    0.00 s
wall time for SCC    0.01 s
speedup  0.98
cpu  time for grad    0.01 s
wall time for grad    0.01 s
 E :    -50.44088732  G :  0.004574    pred/act E change:  0.000D+00 -0.161D-03
Maxdispl :   0.0658   ||displ|| :   0.1350   Lambda : -0.139D-03
Largest |displ|/coords:  0.0658 (   3)  0.0510 (  13)  0.0484 (   6)
................................................................................
.............................. CYCLE   55 ......................................
................................................................................
   1    -50.7350276 -0.507350E+02  0.862E-02    7.68       0.0  T
   2    -50.7350289 -0.132188E-05  0.646E-02    7.68       1.0  T
   3    -50.7350302 -0.130498E-05  0.718E-03    7.68       2.7  T
   4    -50.7350303 -0.119109E-06  0.166E-03    7.68      11.8  T
   5    -50.7350303 -0.332717E-08  0.810E-04    7.68      24.2  T
speedup  0.96
cpu  time for SCC    0.00 s
wall time for SCC    0.01 s
speedup  1.03
cpu  time for grad    0.01 s
wall time for grad    0.01 s
 E :    -50.44095493  G :  0.004512    pred/act E change: -0.132D-03 -0.676D-04
Maxdispl :   0.0442   ||displ|| :   0.0988   Lambda : -0.636D-04
Largest |displ|/coords:  0.0442 (   7)  0.0297 (  14)  0.0294 (  13)
................................................................................
.............................. CYCLE   56 ......................................
................................................................................
   1    -50.7354053 -0.507354E+02  0.638E-02    7.70       0.0  T
   2    -50.7354058 -0.486146E-06  0.474E-02    7.70       1.0  T
   3    -50.7354063 -0.555800E-06  0.513E-03    7.70       3.8  T
   4    -50.7354063 -0.240639E-07  0.104E-03    7.70      18.9  T
   5    -50.7354063 -0.162660E-08  0.561E-04    7.70      34.9  T
speedup  1.03
cpu  time for SCC    0.01 s
wall time for SCC    0.01 s
speedup  0.97
cpu  time for grad    0.01 s
wall time for grad    0.01 s
 E :    -50.44100763  G :  0.004150    pred/act E change: -0.706D-04 -0.527D-04
Maxdispl :   0.1137   ||displ|| :   0.3088   Lambda : -0.158D-03
Largest |displ|/coords:  0.1137 (   7)  0.1065 (   2)  0.1062 (   3)
................................................................................
.............................. CYCLE   57 ......................................
................................................................................
   1    -50.7358958 -0.507359E+02  0.195E-01    7.71       0.0  T
   2    -50.7359010 -0.525179E-05  0.144E-01    7.71       1.0  T
   3    -50.7359069 -0.592192E-05  0.165E-02    7.72       1.2  T
   4    -50.7359072 -0.239647E-06  0.401E-03    7.71       4.9  T
   5    -50.7359072 -0.258850E-07  0.178E-03    7.71      11.0  T
   6    -50.7359072 -0.365887E-08  0.913E-04    7.71      21.5  T
speedup  1.02
cpu  time for SCC    0.01 s
wall time for SCC    0.01 s
speedup  1.03
cpu  time for grad    0.01 s
wall time for grad    0.01 s
 E :    -50.44111225  G :  0.004603    pred/act E change: -0.321D-04 -0.105D-03
Maxdispl :   0.1147   ||displ|| :   0.2636   Lambda : -0.103D-03
Largest |displ|/coords:  0.1147 (   4)  0.1070 (   2)  0.0889 (   3)
................................................................................
.............................. CYCLE   58 ......................................
................................................................................
   1    -50.7363093 -0.507363E+02  0.157E-01    7.69       0.0  T
   2    -50.7363130 -0.366169E-05  0.116E-01    7.69       1.0  T
   3    -50.7363171 -0.410103E-05  0.137E-02    7.69       1.4  T
   4    -50.7363173 -0.173954E-06  0.380E-03    7.70       5.2  T
   5    -50.7363173 -0.212343E-07  0.134E-03    7.70      14.6  T
   6    -50.7363173 -0.152940E-08  0.743E-04    7.70      26.4  T
speedup  0.98
cpu  time for SCC    0.01 s
wall time for SCC    0.01 s
speedup  1.01
cpu  time for grad    0.01 s
wall time for grad    0.01 s
 E :    -50.44119568  G :  0.005326    pred/act E change: -0.863D-04 -0.834D-04
Maxdispl :   0.2259   ||displ|| :   0.4552   Lambda : -0.185D-03
Largest |displ|/coords:  0.2259 (   4)  0.2046 (   2)  0.1486 (   3)
................................................................................
.............................. CYCLE   59 ......................................
................................................................................
   1    -50.7358460 -0.507358E+02  0.257E-01    7.61       0.0  T
   2    -50.7358567 -0.107077E-04  0.192E-01    7.61       1.0  T
   3    -50.7358683 -0.116031E-04  0.224E-02    7.60       1.0  T
   4    -50.7358689 -0.627462E-06  0.745E-03    7.61       2.6  T
   5    -50.7358690 -0.633370E-07  0.227E-03    7.61       8.6  T
   6    -50.7358690 -0.452311E-08  0.125E-03    7.61      15.7  T
speedup  1.00
cpu  time for SCC    0.01 s
wall time for SCC    0.01 s
speedup  0.98
cpu  time for grad    0.01 s
wall time for grad    0.01 s
 E :    -50.44132963  G :  0.008318    pred/act E change: -0.549D-04 -0.134D-03
Maxdispl :   0.1717   ||displ|| :   0.3186   Lambda : -0.162D-03
Largest |displ|/coords:  0.1717 (   2)  0.1707 (   4)  0.0942 (   1)
................................................................................
.............................. CYCLE   60 ......................................
................................................................................
   1    -50.7357045 -0.507357E+02  0.171E-01    7.57       0.0  T
   2    -50.7357092 -0.470559E-05  0.127E-01    7.57       1.0  T
   3    -50.7357143 -0.511487E-05  0.131E-02    7.56       1.5  T
   4    -50.7357146 -0.251264E-06  0.491E-03    7.57       4.0  T
   5    -50.7357146 -0.232527E-07  0.146E-03    7.57      13.5  T
   6    -50.7357146 -0.193324E-08  0.783E-04    7.57      25.1  T
speedup  0.98
cpu  time for SCC    0.01 s
wall time for SCC    0.01 s
speedup  0.95
cpu  time for grad    0.01 s
wall time for grad    0.01 s
 E :    -50.44145456  G :  0.009412    pred/act E change: -0.112D-03 -0.125D-03
Maxdispl :   0.2241   ||displ|| :   0.3856   Lambda : -0.225D-03
Largest |displ|/coords:  0.2241 (   2)  0.2107 (   4)  0.0924 (   1)
................................................................................
.............................. CYCLE   61 ......................................
................................................................................
   1    -50.7336470 -0.507336E+02  0.214E-01    7.56       0.0  T
   2    -50.7336542 -0.720843E-05  0.159E-01    7.56       1.0  T
   3    -50.7336621 -0.785432E-05  0.148E-02    7.56       1.3  T
   4    -50.7336624 -0.363185E-06  0.610E-03    7.56       3.2  T
   5    -50.7336625 -0.370130E-07  0.188E-03    7.56      10.4  T
   6    -50.7336625 -0.408871E-08  0.977E-04    7.56      20.1  T
speedup  1.08
cpu  time for SCC    0.01 s
wall time for SCC    0.01 s
speedup  1.06
cpu  time for grad    0.02 s
wall time for grad    0.02 s
 E :    -50.44160432  G :  0.009683    pred/act E change: -0.891D-04 -0.150D-03
Maxdispl :   0.1557   ||displ|| :   0.2682   Lambda : -0.267D-03
Largest |displ|/coords:  0.1557 (   4)  0.1443 (   2)  0.0760 (   6)
................................................................................
.............................. CYCLE   62 ......................................
................................................................................
   1    -50.7382024 -0.507382E+02  0.131E-01    7.73       0.0  T
   2    -50.7382103 -0.794051E-05  0.970E-02    7.72       1.0  T
   3    -50.7382136 -0.325050E-05  0.175E-02    7.70       1.1  T
   4    -50.7382149 -0.126584E-05  0.525E-03    7.71       3.7  T
   5    -50.7382149 -0.568222E-07  0.171E-03    7.71      11.5  T
   6    -50.7382149 -0.391766E-08  0.868E-04    7.71      22.6  T
speedup  0.98
cpu  time for SCC    0.01 s
wall time for SCC    0.01 s
speedup  0.96
cpu  time for grad    0.01 s
wall time for grad    0.01 s
 E :    -50.44157012  G :  0.014745    pred/act E change: -0.129D-03  0.342D-04
Maxdispl :   0.1861   ||displ|| :   0.3622   Lambda : -0.441D-03
Largest |displ|/coords:  0.1861 (   4)  0.1711 (   2)  0.1073 (  14)
................................................................................
.............................. CYCLE   63 ......................................
................................................................................
   1    -50.7321396 -0.507321E+02  0.223E-01    7.55       0.0  T
   2    -50.7321510 -0.113810E-04  0.166E-01    7.55       1.0  T
   3    -50.7321598 -0.882286E-05  0.228E-02    7.56       1.0  T
   4    -50.7321611 -0.125787E-05  0.728E-03    7.55       2.7  T
   5    -50.7321611 -0.659710E-07  0.232E-03    7.55       8.5  T
   6    -50.7321611 -0.574537E-08  0.119E-03    7.55      16.4  T
speedup  0.98
cpu  time for SCC    0.01 s
wall time for SCC    0.01 s
speedup  1.04
cpu  time for grad    0.01 s
wall time for grad    0.01 s
 E :    -50.44183369  G :  0.011193    pred/act E change: -0.143D-03 -0.264D-03
Maxdispl :   0.0487   ||displ|| :   0.0966   Lambda : -0.238D-03
Largest |displ|/coords:  0.0487 (   7)  0.0437 (  13)  0.0256 (  14)
................................................................................
.............................. CYCLE   64 ......................................
................................................................................
   1    -50.7340298 -0.507340E+02  0.791E-02    7.62       0.0  T
   2    -50.7340323 -0.248306E-05  0.593E-02    7.62       1.0  T
   3    -50.7340344 -0.212884E-05  0.950E-03    7.62       2.1  T
   4    -50.7340347 -0.294890E-06  0.278E-03    7.62       7.1  T
   5    -50.7340347 -0.102353E-07  0.107E-03    7.62      18.4  T
speedup  0.98
cpu  time for SCC    0.00 s
wall time for SCC    0.01 s
speedup  0.96
cpu  time for grad    0.01 s
wall time for grad    0.01 s
 E :    -50.44190147  G :  0.011259    pred/act E change: -0.249D-03 -0.678D-04
Maxdispl :   0.1791   ||displ|| :   0.2858   Lambda : -0.273D-03
Largest |displ|/coords:  0.1791 (   2)  0.1444 (   4)  0.0889 (   5)
................................................................................
.............................. CYCLE   65 ......................................
................................................................................
   1    -50.7335279 -0.507335E+02  0.165E-01    7.63       0.0  T
   2    -50.7335334 -0.543489E-05  0.121E-01    7.63       1.0  T
   3    -50.7335387 -0.531607E-05  0.150E-02    7.64       1.3  T
   4    -50.7335390 -0.339698E-06  0.397E-03    7.64       4.9  T
   5    -50.7335391 -0.289296E-07  0.174E-03    7.64      11.3  T
   6    -50.7335391 -0.501655E-08  0.764E-04    7.64      25.7  T
speedup  0.86
cpu  time for SCC    0.00 s
wall time for SCC    0.01 s
speedup  0.97
cpu  time for grad    0.01 s
wall time for grad    0.01 s
 E :    -50.44205001  G :  0.009438    pred/act E change: -0.120D-03 -0.149D-03
[...]
Largest |displ|/coords:  0.0235 (   4)  0.0153 (   1)  0.0146 (   2)
................................................................................
.............................. CYCLE  122 ......................................
................................................................................
   1    -50.7391798 -0.507392E+02  0.253E-02    7.36       0.0  T
   2    -50.7391799 -0.113472E-06  0.191E-02    7.36       1.0  T
   3    -50.7391800 -0.127902E-06  0.207E-03    7.36       9.5  T
   4    -50.7391801 -0.832015E-08  0.710E-04    7.36      27.6  T
   5    -50.7391801 -0.632255E-09  0.215E-04    7.36      91.4  T
speedup  1.06
cpu  time for SCC    0.00 s
wall time for SCC    0.00 s
speedup  1.01
cpu  time for grad    0.01 s
wall time for grad    0.01 s
 E :    -50.44381745  G :  0.000554    pred/act E change: -0.898D-06 -0.158D-05
Maxdispl :   0.0228   ||displ|| :   0.0471   Lambda : -0.201D-05
Largest |displ|/coords:  0.0228 (   4)  0.0154 (  14)  0.0153 (   1)
................................................................................
.............................. CYCLE  123 ......................................
................................................................................
   1    -50.7391225 -0.507391E+02  0.260E-02    7.36       0.0  T
   2    -50.7391226 -0.114055E-06  0.196E-02    7.36       1.0  T
   3    -50.7391227 -0.136268E-06  0.200E-03    7.36       9.8  T
   4    -50.7391227 -0.642147E-08  0.717E-04    7.36      27.4  T
   5    -50.7391227 -0.659618E-09  0.214E-04    7.36      91.6  T
speedup  1.00
cpu  time for SCC    0.00 s
wall time for SCC    0.01 s
speedup  0.99
cpu  time for grad    0.01 s
wall time for grad    0.01 s
 E :    -50.44381890  G :  0.000586    pred/act E change: -0.109D-05 -0.145D-05
Maxdispl :   0.0178   ||displ|| :   0.0385   Lambda : -0.158D-05
Largest |displ|/coords:  0.0178 (   4)  0.0143 (  14)  0.0120 (   3)
................................................................................
.............................. CYCLE  124 ......................................
................................................................................
   1    -50.7391476 -0.507391E+02  0.219E-02    7.36       0.0  T
   2    -50.7391476 -0.785393E-07  0.165E-02    7.36       1.2  T
   3    -50.7391477 -0.946278E-07  0.162E-03    7.36      12.1  T
   4    -50.7391477 -0.410547E-08  0.619E-04    7.36      31.7  T
   5    -50.7391477 -0.494005E-09  0.176E-04    7.36     111.3  T
speedup  1.04
cpu  time for SCC    0.00 s
wall time for SCC    0.00 s
speedup  1.01
cpu  time for grad    0.01 s
wall time for grad    0.01 s
 E :    -50.44382001  G :  0.000521    pred/act E change: -0.101D-05 -0.111D-05
Maxdispl :   0.0098   ||displ|| :   0.0241   Lambda : -0.990D-06
Largest |displ|/coords:  0.0098 (   4)  0.0089 (   3)  0.0079 (   6)
................................................................................
.............................. CYCLE  125 ......................................
................................................................................
   1    -50.7392270 -0.507392E+02  0.136E-02    7.36       0.0  T
   2    -50.7392271 -0.366471E-07  0.102E-02    7.36       1.9  T
   3    -50.7392271 -0.397642E-07  0.119E-03    7.37      16.5  T
   4    -50.7392271 -0.256390E-08  0.428E-04    7.37      45.8  T
   5    -50.7392271 -0.256144E-09  0.125E-04    7.37     156.7  T
speedup  1.04
cpu  time for SCC    0.00 s
wall time for SCC    0.00 s
speedup  1.01
cpu  time for grad    0.01 s
wall time for grad    0.01 s
 E :    -50.44382070  G :  0.000370    pred/act E change: -0.792D-06 -0.691D-06
Maxdispl :   0.0067   ||displ|| :   0.0156   Lambda : -0.581D-06
Largest |displ|/coords:  0.0067 (   3)  0.0065 (   6)  0.0062 (   4)
................................................................................
.............................. CYCLE  126 ......................................
................................................................................
   1    -50.7392851 -0.507393E+02  0.860E-03    7.37       0.0  T
   2    -50.7392851 -0.181757E-07  0.636E-03    7.37       3.1  T
   3    -50.7392851 -0.165570E-07  0.915E-04    7.37      21.4  T
   4    -50.7392851 -0.160818E-08  0.297E-04    7.37      66.1  T
speedup  0.91
cpu  time for SCC    0.00 s
wall time for SCC    0.00 s
speedup  0.95
cpu  time for grad    0.01 s
wall time for grad    0.01 s
 E :    -50.44382112  G :  0.000252    pred/act E change: -0.495D-06 -0.413D-06
Maxdispl :   0.0048   ||displ|| :   0.0104   Lambda : -0.360D-06
Largest |displ|/coords:  0.0048 (   6)  0.0044 (   5)  0.0035 (   4)
................................................................................
.............................. CYCLE  127 ......................................
................................................................................
   1    -50.7393121 -0.507393E+02  0.607E-03    7.37       0.0  T
   2    -50.7393122 -0.889967E-08  0.446E-03    7.37       4.4  T
   3    -50.7393122 -0.761401E-08  0.693E-04    7.37      28.3  T
   4    -50.7393122 -0.853639E-09  0.227E-04    7.37      86.4  T
speedup  1.00
cpu  time for SCC    0.00 s
wall time for SCC    0.00 s
speedup  0.98
cpu  time for grad    0.01 s
wall time for grad    0.01 s
 E :    -50.44382139  G :  0.000198    pred/act E change: -0.291D-06 -0.270D-06
Maxdispl :   0.0071   ||displ|| :   0.0142   Lambda : -0.302D-06
Largest |displ|/coords:  0.0071 (   4)  0.0055 (   5)  0.0053 (   6)
................................................................................
.............................. CYCLE  128 ......................................
................................................................................
   1    -50.7392967 -0.507393E+02  0.864E-03    7.37       0.0  T
   2    -50.7392967 -0.147591E-07  0.642E-03    7.37       3.1  T
   3    -50.7392967 -0.136556E-07  0.857E-04    7.37      22.9  T
   4    -50.7392967 -0.142121E-08  0.298E-04    7.37      65.8  T
speedup  1.22
cpu  time for SCC    0.00 s
wall time for SCC    0.00 s
speedup  1.05
cpu  time for grad    0.01 s
wall time for grad    0.01 s
 E :    -50.44382160  G :  0.000187    pred/act E change: -0.180D-06 -0.216D-06
Maxdispl :   0.0047   ||displ|| :   0.0094   Lambda : -0.178D-06
Largest |displ|/coords:  0.0047 (   4)  0.0039 (   5)  0.0032 (   6)
................................................................................
.............................. CYCLE  129 ......................................
................................................................................
   1    -50.7392897 -0.507393E+02  0.605E-03    7.37       0.0  T
   2    -50.7392897 -0.653988E-08  0.451E-03    7.37       4.4  T
   3    -50.7392897 -0.594530E-08  0.569E-04    7.37      34.5  T
   4    -50.7392897 -0.697725E-09  0.207E-04    7.37      94.8  T
speedup  1.03
cpu  time for SCC    0.00 s
wall time for SCC    0.00 s
speedup  1.06
cpu  time for grad    0.01 s
wall time for grad    0.01 s
 E :    -50.44382174  G :  0.000149    pred/act E change: -0.151D-06 -0.139D-06
Maxdispl :   0.0079   ||displ|| :   0.0131   Lambda : -0.145D-06
Largest |displ|/coords:  0.0079 (   4)  0.0045 (   5)  0.0038 (  18)
................................................................................
.............................. CYCLE  130 ......................................
................................................................................
   1    -50.7392679 -0.507393E+02  0.765E-03    7.37       0.0  T
   2    -50.7392679 -0.105521E-07  0.571E-03    7.37       3.4  T
   3    -50.7392679 -0.101671E-07  0.692E-04    7.37      28.3  T
   4    -50.7392679 -0.101195E-08  0.252E-04    7.37      77.8  T
speedup  1.00
cpu  time for SCC    0.00 s
wall time for SCC    0.00 s
speedup  0.98
cpu  time for grad    0.01 s
wall time for grad    0.01 s
 E :    -50.44382184  G :  0.000107    pred/act E change: -0.889D-07 -0.101D-06
Maxdispl :   0.0027   ||displ|| :   0.0044   Lambda : -0.633D-07
Largest |displ|/coords:  0.0027 (   3)  0.0015 (   2)  0.0014 (  10)
................................................................................
.............................. CYCLE  131 ......................................
................................................................................
   1    -50.7392886 -0.507393E+02  0.208E-03    7.37       0.0  T
   2    -50.7392886 -0.105049E-08  0.157E-03    7.37      12.5  T
   3    -50.7392886 -0.991534E-09  0.184E-04    7.37     106.8  T
   4    -50.7392886 -0.123521E-09  0.587E-05    7.37     334.0  T
speedup  0.95
cpu  time for SCC    0.00 s
wall time for SCC    0.00 s
speedup  0.97
cpu  time for grad    0.01 s
wall time for grad    0.01 s
 E :    -50.44382189  G :  0.000073    pred/act E change: -0.726D-07 -0.471D-07
Maxdispl :   0.0050   ||displ|| :   0.0079   Lambda : -0.673D-07
Largest |displ|/coords:  0.0050 (   4)  0.0023 (  18)  0.0022 (  12)

   *** GEOMETRY OPTIMIZATION CONVERGED AFTER 131 ITERATIONS ***

------------------------------------------------------------------------
 total energy gain (kcal):     -0.0175
------------------------------------------------------------------------
================
 final structure:
================
$coord
        1.93600235635259        1.10883554644652        2.11692422178378      S 
        1.54986103256914        3.01545641331948        0.22199166509271      O 
        2.89796059081776        1.90586076167239        4.48177356318451      O 
       -0.55621648905030       -0.37752839405916        2.60750098419644      O 
        3.64862725902479       -0.94647585947459        0.90171195809652      O 
        3.32435844411968       -0.71904583378893       -0.99551685697370      H 
       -0.86662462232979       -1.79960810745344        1.41771620504420      H 
       -1.34981932076691       -4.34804464628257       -0.20364549773046      O 
       -1.94125485498194       -5.69776432133961        0.85099260917237      H 
        2.61227950035904       -0.31844617561713       -3.73559363737507      O 
        2.93466439350657        1.46107851264611       -3.90721935337607      H 
       -3.34207186214660        3.48819461880372       -1.10799432309654      O 
       -4.02382536871525        3.73424987679796        0.57096002816183      H 
       -1.53869179244731        3.71214031533078       -0.85555442756654      H 
       -2.26968467284826       -0.63569155664792       -3.83204110558433      O 
       -2.92066385914308        0.88905150256866       -2.99175649945264      H 
        0.71565383583703       -0.47532054878806       -3.90261083924810      H 
       -2.67812082944941       -2.03865595646436       -2.74435834673304      H 
        3.17156783205174       -5.43503576527323       -2.04464849801985      O 
        4.25143737999452       -4.74459018977552       -0.75243060221914      H 
        0.28074834775754       -4.90841796046687       -0.94224753209892      H 
        3.30575800189888       -4.30337325464066       -3.46758582231466      H 
       -2.60774390998492        4.41139776335245        4.15336240417706      N 
       -0.75379779949000        4.45842885170198        3.67134222500890      H 
       -2.87674848469177        2.74932470484029        5.06445789909742      H 
       -2.90365514596643        5.81397968379450        5.42446955986235      H 
$end
 
 Bond Distances (Angstroems)
 ---------------------------
S1-O2=1.4371         S1-O3=1.4153         S1-O4=1.5574         S1-O5=1.5549         O2-S1=1.4371         O3-S1=1.4153         
O4-S1=1.5574         O4-H7=0.9948         O5-S1=1.5549         O5-H6=1.0256         H6-O5=1.0256         H7-O4=0.9948         
O8-H9=0.9589         O8-H21=0.9926        H9-O8=0.9589         O10-H11=0.9613       O10-H17=1.0109       H11-O10=0.9613       
O12-H13=0.9677       O12-H14=0.9709       H13-O12=0.9677       H14-O12=0.9709       O15-H16=0.9836       O15-H18=0.9639       
H16-O15=0.9836       H17-O10=1.0109       H18-O15=0.9639       O19-H20=0.9631       O19-H22=0.9647       H20-O19=0.9631       
H21-O8=0.9926        H22-O19=0.9647       N23-H24=1.0140       N23-H25=1.0131       N23-H26=1.0138       H24-N23=1.0140       
H25-N23=1.0131       H26-N23=1.0138       
 N  H  Rav=1.0136 sigma=0.0004  Rmin=1.0131  Rmax=1.0140     3
 O  H  Rav=0.9798 sigma=0.0209  Rmin=0.9589  Rmax=1.0256    12
 S  O  Rav=1.4912 sigma=0.0654  Rmin=1.4153  Rmax=1.5574     4
 
 selected bond angles (degree)
 --------------------
O3-S1-O2=117.32                O4-S1-O2=110.52                O4-S1-O3=107.92                O5-S1-O2=106.58                
O5-S1-O3=111.38                O5-S1-O4=102.08                H7-O4-S1=114.61                H6-O5-S1=103.02                
H21-O8-H9=106.88               H17-O10-H11=104.38             
 
 selected dihedral angles (degree)
 ---------------------------------
H7-O4-S1-O2= 84.61            H7-O4-S1-O3=214.11            H7-O4-S1-O5=331.55            H6-O5-S1-O2=336.07            
H6-O5-S1-O3=206.96            H6-O5-S1-O4= 92.02            
 
 CMA Distance (Angstroems)
 ---------------------------
R(CMA):  2.2567

========================================================================
 FINAL SINGLEPOINT CALCULATION ON OPTIMIZED GEOMETRY
========================================================================

 Ncao       : 65
 Nao        : 64
 Nshell     : 38
 Nel        : 80
 T(el)      :   300.0
 intcut     :    25.0
 scfconv/Eh :  0.100E-05
   qconv/e  :  0.100E-03
 intneglect :  0.100E-07
 broydamp   :      0.250
 iter      E             dE          RMSdq      gap      omega  full diag
   1    -50.7392886 -0.507393E+02  0.234E-05    7.37       0.0  T
   2    -50.7392886 -0.582645E-12  0.154E-05    7.37    1277.2  T
   3    -50.7392886 -0.554223E-12  0.392E-06    7.37    4996.8  T
speedup  1.00
cpu  time for SCC    0.00 s
wall time for SCC    0.00 s

   *** convergence criteria satisfied after 3 iterations ***

          eigenvalues
 #    :          28         29         30         31         32         33         34         35
 occ. :        2.000      2.000      2.000      2.000      2.000      2.000      2.000      2.000
 eps  :       -13.588    -13.414    -13.246    -13.165    -12.947    -12.896    -12.793    -12.643
 #    :          36         37         38         39         40         41         42         43
 occ. :        2.000      2.000      2.000      2.000      2.000      0.000      0.000      0.000
 eps  :       -12.614    -12.332    -12.109    -11.552    -10.710     -3.343     -1.382     -0.748
 #    :          44         45         46         47         48         49         50         51
 occ. :        0.000      0.000      0.000      0.000      0.000      0.000      0.000      0.000
 eps  :        -0.023      0.912      1.440      1.731      2.305      3.702      4.728      5.209


   #   Z            q   n(s)   n(p)   n(d)      C6AA      α(0)
   1  16 S      1.713  1.580  1.763  0.943    88.464    15.830
   2   8 O     -0.718  1.763  4.955  0.000    29.208     7.246
   3   8 O     -0.652  1.752  4.900  0.000    27.425     7.021
   4   8 O     -0.621  1.753  4.869  0.000    25.676     6.840
   5   8 O     -0.649  1.765  4.884  0.000    26.364     6.931
   6   1 H      0.389  0.611  0.000  0.000     0.500     1.107
   7   1 H      0.388  0.612  0.000  0.000     0.505     1.116
   8   8 O     -0.619  1.749  4.870  0.000    25.657     6.836
   9   1 H      0.300  0.700  0.000  0.000     0.721     1.333
  10   8 O     -0.630  1.759  4.871  0.000    25.901     6.869
  11   1 H      0.309  0.691  0.000  0.000     0.694     1.308
  12   8 O     -0.621  1.744  4.877  0.000    25.690     6.841
  13   1 H      0.307  0.693  0.000  0.000     0.700     1.314
  14   1 H      0.311  0.689  0.000  0.000     0.688     1.302
  15   8 O     -0.620  1.754  4.866  0.000    25.664     6.837
  16   1 H      0.339  0.661  0.000  0.000     0.616     1.233
  17   1 H      0.355  0.645  0.000  0.000     0.577     1.194
  18   1 H      0.308  0.692  0.000  0.000     0.697     1.311
  19   8 O     -0.584  1.740  4.844  0.000    24.811     6.723
  20   1 H      0.313  0.687  0.000  0.000     0.684     1.299
  21   1 H      0.346  0.654  0.000  0.000     0.599     1.216
  22   1 H      0.323  0.677  0.000  0.000     0.655     1.271
  23   7 N     -0.451  1.378  4.073  0.000    31.839     8.380
  24   1 H      0.152  0.848  0.000  0.000     1.386     1.844
  25   1 H      0.154  0.846  0.000  0.000     1.371     1.834
  26   1 H      0.155  0.845  0.000  0.000     1.365     1.830

 Mol. C6AA /au·bohr⁶  :       5459.846696
 Mol. C8AA /au·bohr⁸  :     117779.443104
 Mol. α(0) /au        :        106.867743

 
 Wiberg/Mayer (AO) data. WBOs > 0.1 written file <wbo>
 largest (>0.05) Wiberg bond orders for each atom
           total WBO             WBO to atom ...
     1  S   4.833    O    3 1.498    O    2 1.364    O    5 0.969    O    4 0.965
     2  O   1.737    S    1 1.364    O    3 0.126    O    5 0.089    O    4 0.087
     3  O   1.808    S    1 1.498    O    2 0.126    O    5 0.080    O    4 0.077
     4  O   1.960    S    1 0.965    H    7 0.722    O    2 0.087    O    3 0.077    O    5 0.065
     5  O   1.940    S    1 0.969    H    6 0.669    O    2 0.089    O    3 0.080    O    4 0.065    O   10 0.052
     6  H   0.849    O    5 0.669    O   10 0.161
     7  H   0.849    O    4 0.722    O    8 0.104
     8  O   1.911    H    9 0.904    H   21 0.794    H    7 0.104
     9  H   0.910    O    8 0.904
    10  O   1.936    H   11 0.896    H   17 0.757    H    6 0.161    O    5 0.052
    11  H   0.904    O   10 0.896
    12  O   1.857    H   13 0.875    H   14 0.861    H   16 0.060
    13  H   0.906    O   12 0.875
    14  H   0.903    O   12 0.861
    15  O   1.911    H   18 0.882    H   16 0.822    H   17 0.114
    16  H   0.885    O   15 0.822    O   12 0.060
    17  H   0.874    O   10 0.757    O   15 0.114
    18  H   0.905    O   15 0.882
    19  O   1.913    H   20 0.893    H   22 0.884    H   21 0.083
    20  H   0.902    O   19 0.893
    21  H   0.880    O    8 0.794    O   19 0.083
    22  H   0.895    O   19 0.884
    23  N   2.957    H   26 0.972    H   25 0.972    H   24 0.964
    24  H   0.977    N   23 0.964
    25  H   0.976    N   23 0.972
    26  H   0.976    N   23 0.972
 MOs/occ written to file <molden.input>
 
molecular dipole:
                 x           y           z       tot (Debye)
 q only:       -0.221      -1.345      -0.419
   full:        0.098      -1.363       0.210       3.514
molecular quadrupole (traceless):
                xx          xy          yy          xz          yz          zz
 q only:        0.730       0.277       4.697     -11.636      -2.575      -5.427
  q+dip:       -0.551       3.245       4.884     -13.696      -2.936      -4.333
   full:       -0.478       3.382       4.998     -14.232      -2.803      -4.520

SCC energy    :     -50.7392886
rep           :       0.2951822
ES            :       0.2311228
AES           :      -0.0525789
AXC           :      -0.0056325
disp          :      -0.0198624
XB            :       0.0000000
fix           :       0.0000000
total E       :     -50.4438219
atomizationE  :       4.9741261     3121.31
(atE without considering molecular charge,
 total energy contains solvation terms)
H-L gap (eV)  :          7.3674
optimized geometry written to: xtbopt.xyz


------------------------------------------------------------------------
 * finished run on 2019/09/16 at 12:04:29.800     
------------------------------------------------------------------------
 total:
 * wall-time:     0 d,  0 h,  0 min,  3.142 sec
 *  cpu-time:     0 d,  0 h,  0 min,  3.118 sec
 * ratio c/w:     0.992 speedup
 SCF:
 * wall-time:     0 d,  0 h,  0 min,  0.153 sec
 *  cpu-time:     0 d,  0 h,  0 min,  0.150 sec
 * ratio c/w:     0.982 speedup
 ANC optimizer:
 * wall-time:     0 d,  0 h,  0 min,  2.963 sec
 *  cpu-time:     0 d,  0 h,  0 min,  2.944 sec
 * ratio c/w:     0.994 speedup

