      -----------------------------------------------------------      
     |                   =====================                   |     
     |                           x T B                           |     
     |                   =====================                   |     
     |                         S. Grimme                         |     
     |          Mulliken Center for Theoretical Chemistry        |     
     |                    University of Bonn                     |     
     |                 Version 6.0.1 (SAW181210)                 |     
      -----------------------------------------------------------      

   This program is distributed in the hope that it will be useful,
   but WITHOUT ANY WARRANTY; without even the implied warranty of
   MERCHANTABILITY or FITNESS FOR A PARTICULAR PURPOSE.
   
   FOR NON-COMMERCIAL, ACADEMIA USE ONLY.
   
   Cite this work as:
   S. Grimme, C. Bannwarth, P. Shushkov, J. Comput. Theory Chem., 2017,
   13, 1989-2009.
   C. Bannwarth, S. Ehlert and S. Grimme., ChemRxiv, 2018, preprint.
   http://doi.org/10.26434/chemrxiv.7246238.v1
   
   for sTDA-xTB:
   S. Grimme and C. Bannwarth, J. Chem. Phys., 2016, 145, 054103.
   
   in the mass-spec context:
   V. Asgeirsson, C. Bauer and S. Grimme, Chem. Sci., 2017, 8, 4879.
   
   if GBSA is used:
   P. Shushkov, F. März and S. Grimme, unpublished.
   
   for ANC optimizer:
   S. Grimme, unpublished.
   Rational Function algorithm used in ANCopt:
   F. Eckert, P. Pulay, H.-J. Werner, J. Comput. Chem., 1997, 18, 1473.
   
   with help from (in alphabetical order)
   C. Bannwarth, F. Bohle, G. Brandenburg, E. Caldeweyher, M. Checinski,
   S. Dohm, S. Ehlert, S. Ehrlich, F. März, H. Neugebauer, J. Pisarek,
   P. Pracht, P. Shushkov, and S. Spicher.
   
 * started run on 2019/09/16 at 12:30:11.155     
========================================================================
 # omp threads = 1
========================================================================
number of atoms            : 26
number of electrons        : 80
charge                     : 0
spin                       : .0
first test random number   : .4554

########################################################################
# WARNING! Please study the warnings concerning your input carefully
#  - XTBPATH is not set, using XTBHOME instead
#  - the use of '-opt' is discouraged, please use '--opt' next time
#  - the use of '-chrg' is discouraged, please use '--chrg' next time
#  - the use of '-uhf' is discouraged, please use '--uhf' next time
########################################################################

           ------------------------------------------------- 
          |                 G F N 2 - x T B                 |
          | Geometry, Frequencies, Noncovalent interactions |
          |            JCTC 2018 parametrisation            |
           ------------------------------------------------- 
      method parameters     
 k(s)        :  1.8500
 k(p)        :  2.2300
 k(d)        :  2.2300
 k(f)        :  2.0000
 kEN (H0ij)  : -2.0000
 D4 a1       :  0.5200
 D4 a2       :  5.0000
 D4 s6       :  1.0000
 D4 s8       :  2.7000
 D4 s9       :  5.0000
 alphaj      :  2.0000


            Z     q(EN)     CN     RAES       Cart. coordinates
     1  S   6.0    0.58    4.28    4.21     2.60248     1.71541     4.97742
     2  O   6.0   -0.31    1.14    1.80     4.48764     0.83678     3.17310
     3  O   6.0   -0.27    1.09    1.80     3.24492     3.08792     7.24482
     4  O   6.0   -0.23    2.04    1.83     0.46412     3.26017     3.36913
     5  O   6.0   -0.23    2.07    1.83     0.83563    -0.59090     5.88675
     6  H   1.0    0.17    1.27    1.48     0.46190    -1.67474     4.44732
     7  H   1.0    0.16    1.19    1.46     1.32296     4.06251     1.95315
     8  O   6.0   -0.39    1.67    1.81     0.01015    -2.90496     1.86904
     9  H   1.0    0.17    0.95    1.42    -0.47122    -4.59047     2.51021
    10  O   6.0   -0.40    1.68    1.81     0.97786     1.11239    -3.53512
    11  H   1.0    0.17    0.94    1.42     0.99330     1.51077    -5.35853
    12  O   6.0   -0.29    2.05    1.83     2.58453     4.67901    -0.93964
    13  H   1.0    0.18    1.13    1.45     1.93393     3.37395    -2.02967
    14  H   1.0    0.15    0.97    1.43     3.22170     5.96686    -2.05771
    15  O   6.0   -0.23    2.94    2.63     3.38633    -1.76280    -0.96524
    16  H   1.0    0.16    1.18    1.46     2.61334    -0.67698    -2.27418
    17  H   1.0    0.15    1.00    1.43     4.64140    -0.83581     0.06213
    18  H   1.0    0.16    1.17    1.46     2.09841    -2.60341     0.09596
    19  O   6.0   -0.23    2.94    2.63    -2.45336    -0.15923    -0.81992
    20  H   1.0    0.16    1.18    1.46    -1.64829    -1.24236     0.47179
    21  H   1.0    0.16    1.19    1.46    -1.20329     0.56647    -2.00343
    22  H   1.0    0.12    1.07    1.44    -3.83135    -1.04706    -1.71681
    23  N   5.0   -0.23    3.04    1.93    -6.16411    -2.73323    -3.32214
    24  H   1.0    0.10    0.99    1.43    -6.33666    -4.54710    -2.69672
    25  H   1.0    0.10    0.99    1.43    -5.86320    -2.86086    -5.22062
    26  H   1.0    0.10    0.99    1.43    -7.90914    -1.94233    -3.12109

  Z AO/shell   Hii/eV     exponent
  1     Wed Apr 25 08:07:45 CEST 2018   EN: 2.200 GM2: 0.406  GM3: 0.0800  RAES: 1.40
     1s    -10.707211    1.230000
  7     Wed Apr 25 08:07:45 CEST 2018   EN: 3.040 GM2: 0.461  GM3:-0.0640  RAES: 1.90
     2s    -16.686243    2.339881
     2p    -12.523956    2.014332
  8     Wed Apr 25 08:07:45 CEST 2018   EN: 3.440 GM2: 0.452  GM3:-0.0517  RAES: 1.80
     2s    -20.229985    2.439742
     2p    -15.503117    2.137023
 16     Tue Apr 24 11:44:34 CEST 2018   EN: 2.580 GM2: 0.340  GM3:-0.0502  RAES: 3.10
     3s    -20.029654    1.981333
     3p    -11.377694    2.025643
     3d     -0.420282    1.702555
 no old-style atom pair restraining (fixing) potential

molecular fragmentation (1/2 indicates fragments):
11111112222222222222222222
# atoms in fragment 1/2:     7    19
 fragment masses (1/2) :       98.07      107.11
CMA distance (Bohr)    :   7.008
constraining FC (au)   :  0.0500
           ------------------------------------------------- 
          |        Self-Consistent Charge Iterations        |
           ------------------------------------------------- 

 Ncao       : 65
 Nao        : 64
 Nshell     : 38
 Nel        : 80
 T(el)      :   300.0
 intcut     :    25.0
 scfconv/Eh :  0.100E-05
   qconv/e  :  0.100E-03
 intneglect :  0.100E-07
 broydamp   :      0.250
 iter      E             dE          RMSdq      gap      omega  full diag
   1    -50.5383616 -0.505384E+02  0.704E+00    8.19       0.0  T
   2    -50.5861296 -0.477680E-01  0.495E+00    7.66       1.0  T
   3    -50.6235048 -0.373752E-01  0.116E+00    6.01       1.0  T
   4    -50.6272940 -0.378920E-02  0.625E-01    6.18       1.0  T
   5    -50.6285464 -0.125234E-02  0.269E-01    6.24       1.0  T
   6    -50.6288840 -0.337630E-03  0.156E-01    6.28       1.0  T
   7    -50.6290319 -0.147899E-03  0.514E-02    6.27       1.0  T
   8    -50.6290485 -0.165623E-04  0.233E-02    6.26       1.0  T
   9    -50.6290512 -0.271770E-05  0.117E-02    6.27       1.7  T
  10    -50.6290519 -0.679025E-06  0.272E-03    6.28       7.2  T
  11    -50.6290519 -0.261851E-07  0.121E-03    6.27      16.2  T
  12    -50.6290519 -0.459887E-08  0.471E-04    6.27      41.6  T
  13    -50.6290519 -0.104130E-08  0.200E-04    6.27      98.2  T
speedup  1.01
cpu  time for SCC    0.02 s
wall time for SCC    0.02 s

   *** convergence criteria satisfied after 13 iterations ***

          eigenvalues
 #    :          28         29         30         31         32         33         34         35
 occ. :        2.000      2.000      2.000      2.000      2.000      2.000      2.000      2.000
 eps  :       -12.865    -12.658    -12.425    -12.237    -11.945    -11.932    -11.729    -11.551
 #    :          36         37         38         39         40         41         42         43
 occ. :        2.000      2.000      2.000      2.000      2.000      0.000      0.000      0.000
 eps  :       -11.375    -10.811    -10.458    -10.415    -10.251     -3.977     -1.207     -0.788
 #    :          44         45         46         47         48         49         50         51
 occ. :        0.000      0.000      0.000      0.000      0.000      0.000      0.000      0.000
 eps  :        -0.187      0.283      1.444      2.292      2.653      3.513      4.023      4.030


   #   Z            q   n(s)   n(p)   n(d)      C6AA      α(0)
   1  16 S      1.612  1.633  1.821  0.934    90.789    16.037
   2   8 O     -0.676  1.762  4.914  0.000    28.064     7.103
   3   8 O     -0.625  1.771  4.854  0.000    26.736     6.933
   4   8 O     -0.591  1.761  4.829  0.000    24.934     6.741
   5   8 O     -0.599  1.761  4.838  0.000    25.133     6.768
   6   1 H      0.378  0.622  0.000  0.000     0.525     1.136
   7   1 H      0.382  0.618  0.000  0.000     0.517     1.128
   8   8 O     -0.853  1.830  5.023  0.000    33.189     7.726
   9   1 H      0.212  0.788  0.000  0.000     1.061     1.618
  10   8 O     -0.856  1.824  5.032  0.000    33.274     7.736
  11   1 H      0.205  0.795  0.000  0.000     1.094     1.643
  12   8 O     -0.658  1.757  4.901  0.000    26.616     6.963
  13   1 H      0.337  0.663  0.000  0.000     0.619     1.235
  14   1 H      0.272  0.728  0.000  0.000     0.812     1.415
  15   8 O     -0.467  1.661  4.806  0.000    22.133     6.354
  16   1 H      0.401  0.599  0.000  0.000     0.477     1.082
  17   1 H      0.384  0.616  0.000  0.000     0.514     1.127
  18   1 H      0.400  0.600  0.000  0.000     0.481     1.087
  19   8 O     -0.478  1.669  4.810  0.000    22.375     6.389
  20   1 H      0.400  0.600  0.000  0.000     0.479     1.085
  21   1 H      0.401  0.599  0.000  0.000     0.478     1.083
  22   1 H      0.355  0.645  0.000  0.000     0.576     1.192
  23   7 N     -0.429  1.378  4.050  0.000    31.199     8.295
  24   1 H      0.165  0.835  0.000  0.000     1.305     1.790
  25   1 H      0.164  0.836  0.000  0.000     1.310     1.793
  26   1 H      0.165  0.835  0.000  0.000     1.306     1.790

 Mol. C6AA /au·bohr⁶  :       5512.774149
 Mol. C8AA /au·bohr⁸  :     119215.115111
 Mol. α(0) /au        :        107.247415

 
 Wiberg/Mayer (AO) data. WBOs > 0.1 written file <wbo>
 largest (>0.05) Wiberg bond orders for each atom
           total WBO             WBO to atom ...
     1  S   4.799    O    3 1.484    O    2 1.382    O    5 0.985    O    4 0.920
     2  O   1.758    S    1 1.382    O    3 0.136    O    5 0.098    O    4 0.097
     3  O   1.817    S    1 1.484    O    2 0.136    O    4 0.096    O    5 0.086
     4  O   1.977    S    1 0.920    H    7 0.778    O    2 0.097    O    3 0.096    O    5 0.058
     5  O   1.985    S    1 0.985    H    6 0.701    O    2 0.098    O    3 0.086    O    4 0.058
     6  H   0.857    O    5 0.701    O    8 0.141
     7  H   0.854    O    4 0.778    O   12 0.057
     8  O   1.612    H    9 0.943    H   20 0.175    H   18 0.175    H    6 0.141    O   15 0.057    O   19 0.056
     9  H   0.955    O    8 0.943
    10  O   1.594    H   11 0.940    H   16 0.179    H   21 0.177    H   13 0.121    O   15 0.057    O   19 0.056    O   12 0.051
    11  H   0.958    O   10 0.940
    12  O   1.812    H   14 0.915    H   13 0.765    H    7 0.057    O   10 0.051
    13  H   0.887    O   12 0.765    O   10 0.121
    14  H   0.926    O   12 0.915
    15  O   2.272    H   17 0.812    H   18 0.660    H   16 0.656    O   10 0.057    O    8 0.057
    16  H   0.839    O   15 0.656    O   10 0.179
    17  H   0.852    O   15 0.812
    18  H   0.840    O   15 0.660    O    8 0.175
    19  O   2.261    H   22 0.780    H   20 0.660    H   21 0.657    O    8 0.056    O   10 0.056
    20  H   0.840    O   19 0.660    O    8 0.175
    21  H   0.839    O   19 0.657    O   10 0.177
    22  H   0.874    O   19 0.780    N   23 0.088
    23  N   3.038    H   25 0.970    H   26 0.970    H   24 0.970    H   22 0.088
    24  H   0.973    N   23 0.970
    25  H   0.973    N   23 0.970
    26  H   0.973    N   23 0.970
 MOs/occ written to file <molden.input>
 
molecular dipole:
                 x           y           z       tot (Debye)
 q only:       -1.779      -1.581      -3.120
   full:       -2.139      -1.871      -3.834      12.130
molecular quadrupole (traceless):
                xx          xy          yy          xz          yz          zz
 q only:       15.800       2.812       4.148      -1.479      -5.820     -19.948
  q+dip:       15.979       8.310       4.706       0.559      -8.743     -20.685
   full:       15.517       8.680       4.978       0.547      -9.387     -20.495

SCC energy    :     -50.6290519
rep           :       0.2714331
ES            :       0.2821119
AES           :      -0.0487404
AXC           :      -0.0036524
disp          :      -0.0176927
XB            :       0.0000000
fix           :       0.0000000
total E       :     -50.3574174
atomizationE  :       4.8877215     3067.09
(atE without considering molecular charge,
 total energy contains solvation terms)
H-L gap (eV)  :          6.2744
           ------------------------------------------------- 
          |                 ===============                 |
          |                   A N C O P T                   |
          |                 ===============                 |
          |          Approximate Normal Coordinate          |
          |           Rational Function Optimizer           |
           ------------------------------------------------- 
dumping coords to <xtbopt.coord> and <xtbopt.log>
 optlevel               2
 Maxcycle             520
 Maxmicro              25
 Econv         1.000000000000000E-007
 Gconv         2.000000000000000E-004
 Maxdispl       1.00000000000000     
 Hlow          5.000000000000000E-003
 S6             20.0000000000000     
 Nvar               72

generating ANC from model Hessian ...
 Shifting diagonal of input Hessian by   5.097726030472021E-003
 Lowest  eigenvalues of input Hessian
    0.005000    0.005051   -0.000000   -0.000000   -0.000000    0.000000
    0.000000    0.000000    0.005457    0.005858    0.006098    0.006246
    0.006820    0.007561    0.008804    0.009302    0.010363    0.010869
 Highest eigenvalues
    1.578506    1.594680    1.601586    1.951826    2.768454    3.590066
 
cpu  time for ANC gen    0.02 s
wall time for ANC gen    0.02 s
................................................................................
.............................. CYCLE    1 ......................................
................................................................................
   1    -50.6290519 -0.506291E+02  0.460E-05    6.27       0.0  T
   2    -50.6290519 -0.364508E-11  0.347E-05    6.27     564.7  T
   3    -50.6290519 -0.266454E-11  0.149E-05    6.27    1319.5  T
speedup  1.00
cpu  time for SCC    0.00 s
wall time for SCC    0.00 s
speedup  1.06
cpu  time for grad    0.01 s
wall time for grad    0.01 s
 E :    -50.35741734  G :  0.184291    pred/act E change:  0.000D+00  0.277D-07
Maxdispl :   0.1276   ||displ|| :   0.2639   Lambda : -0.336D-01
Largest |displ|/coords:  0.1276 (  54)  0.1126 (  18)  0.0843 (  43)
................................................................................
.............................. CYCLE    2 ......................................
................................................................................
   1    -50.6427593 -0.506428E+02  0.320E-01    7.02       0.0  T
   2    -50.6429513 -0.191952E-03  0.234E-01    7.06       1.0  T
   3    -50.6430479 -0.966615E-04  0.599E-02    7.14       1.0  T
   4    -50.6430612 -0.132527E-04  0.245E-02    7.14       1.0  T
   5    -50.6430624 -0.122448E-05  0.631E-03    7.14       3.1  T
   6    -50.6430625 -0.883598E-07  0.311E-03    7.14       6.3  T
   7    -50.6430625 -0.175894E-07  0.133E-03    7.14      14.7  T
speedup  1.06
cpu  time for SCC    0.01 s
wall time for SCC    0.01 s
speedup  1.01
cpu  time for grad    0.01 s
wall time for grad    0.01 s
 E :    -50.38297788  G :  0.099638    pred/act E change:  0.000D+00 -0.256D-01
Maxdispl :   0.1276   ||displ|| :   0.2894   Lambda : -0.146D-01
Largest |displ|/coords:  0.1276 (  18)  0.1097 (  23)  0.0976 (  54)
................................................................................
.............................. CYCLE    3 ......................................
................................................................................
   1    -50.6487586 -0.506488E+02  0.289E-01    7.72       0.0  T
   2    -50.6489964 -0.237862E-03  0.209E-01    7.79       1.0  T
   3    -50.6490971 -0.100697E-03  0.646E-02    7.90       1.0  T
   4    -50.6491102 -0.130949E-04  0.189E-02    7.89       1.0  T
   5    -50.6491109 -0.683587E-06  0.454E-03    7.89       4.3  T
   6    -50.6491110 -0.407790E-07  0.240E-03    7.89       8.2  T
speedup  0.86
cpu  time for SCC    0.00 s
wall time for SCC    0.01 s
speedup  0.95
cpu  time for grad    0.01 s
wall time for grad    0.01 s
 E :    -50.39438820  G :  0.060747    pred/act E change: -0.180D-01 -0.114D-01
Maxdispl :   0.1526   ||displ|| :   0.3093   Lambda : -0.666D-02
Largest |displ|/coords:  0.1526 (  18)  0.1117 (  23)  0.0834 (   8)
................................................................................
.............................. CYCLE    4 ......................................
................................................................................
   1    -50.6501528 -0.506502E+02  0.263E-01    8.28       0.0  T
   2    -50.6503501 -0.197281E-03  0.189E-01    8.33       1.0  T
   3    -50.6504292 -0.791845E-04  0.610E-02    8.43       1.0  T
   4    -50.6504409 -0.116265E-04  0.145E-02    8.42       1.4  T
   5    -50.6504412 -0.334798E-06  0.383E-03    8.42       5.1  T
   6    -50.6504412 -0.211649E-07  0.204E-03    8.42       9.6  T
speedup  1.09
cpu  time for SCC    0.01 s
wall time for SCC    0.01 s
speedup  1.03
cpu  time for grad    0.01 s
wall time for grad    0.01 s
 E :    -50.39970550  G :  0.040467    pred/act E change: -0.790D-02 -0.532D-02
Maxdispl :   0.1580   ||displ|| :   0.4216   Lambda : -0.589D-02
Largest |displ|/coords:  0.1580 (  23)  0.1535 (  20)  0.1446 (  18)
................................................................................
.............................. CYCLE    5 ......................................
................................................................................
   1    -50.6504321 -0.506504E+02  0.354E-01    8.90       0.0  T
   2    -50.6508600 -0.427911E-03  0.250E-01    8.99       1.0  T
   3    -50.6510276 -0.167585E-03  0.865E-02    9.04       1.0  T
   4    -50.6510471 -0.195291E-04  0.204E-02    9.04       1.0  T
   5    -50.6510477 -0.620290E-06  0.562E-03    9.04       3.5  T
   6    -50.6510478 -0.477640E-07  0.297E-03    9.04       6.6  T
speedup  0.89
cpu  time for SCC    0.00 s
wall time for SCC    0.01 s
speedup  0.96
cpu  time for grad    0.01 s
wall time for grad    0.01 s
 E :    -50.40330363  G :  0.026365    pred/act E change: -0.365D-02 -0.360D-02
Maxdispl :   0.1329   ||displ|| :   0.3128   Lambda : -0.157D-02
Largest |displ|/coords:  0.1329 (   7)  0.1154 (   3)  0.1031 (   2)
................................................................................
.............................. CYCLE    6 ......................................
................................................................................
   1    -50.6501095 -0.506501E+02  0.263E-01    9.11       0.0  T
   2    -50.6501724 -0.629193E-04  0.195E-01    9.11       1.0  T
   3    -50.6502043 -0.319309E-04  0.437E-02    9.10       1.0  T
   4    -50.6502125 -0.815296E-05  0.858E-03    9.10       2.3  T
   5    -50.6502126 -0.121675E-06  0.398E-03    9.10       4.9  T
   6    -50.6502126 -0.236244E-07  0.168E-03    9.10      11.7  T
speedup  1.00
cpu  time for SCC    0.01 s
wall time for SCC    0.01 s
speedup  0.99
cpu  time for grad    0.01 s
wall time for grad    0.01 s
 E :    -50.40395818  G :  0.033370    pred/act E change: -0.347D-02 -0.655D-03
Maxdispl :   0.1677   ||displ|| :   0.4155   Lambda : -0.292D-02
Largest |displ|/coords:  0.1677 (  11)  0.1520 (   2)  0.1440 (   9)
................................................................................
.............................. CYCLE    7 ......................................
................................................................................
   1    -50.6593273 -0.506593E+02  0.310E-01    9.14       0.0  T
   2    -50.6594313 -0.103968E-03  0.229E-01    9.13       1.0  T
   3    -50.6594826 -0.513839E-04  0.551E-02    9.12       1.0  T
   4    -50.6594950 -0.123080E-04  0.174E-02    9.13       1.1  T
   5    -50.6594955 -0.533872E-06  0.504E-03    9.13       3.9  T
   6    -50.6594955 -0.405823E-07  0.266E-03    9.13       7.4  T
speedup  0.98
cpu  time for SCC    0.01 s
wall time for SCC    0.01 s
speedup  0.99
cpu  time for grad    0.01 s
wall time for grad    0.01 s
 E :    -50.40438967  G :  0.031967    pred/act E change: -0.863D-03 -0.431D-03
Maxdispl :   0.0997   ||displ|| :   0.1989   Lambda : -0.193D-02
Largest |displ|/coords:  0.0997 (  20)  0.0799 (  12)  0.0779 (   3)
................................................................................
.............................. CYCLE    8 ......................................
................................................................................
   1    -50.6537839 -0.506538E+02  0.170E-01    9.04       0.0  T
   2    -50.6538156 -0.317843E-04  0.126E-01    9.05       1.0  T
   3    -50.6538320 -0.163475E-04  0.315E-02    9.06       1.0  T
   4    -50.6538353 -0.335209E-05  0.108E-02    9.05       1.8  T
   5    -50.6538356 -0.274061E-06  0.283E-03    9.05       6.9  T
   6    -50.6538356 -0.119772E-07  0.160E-03    9.05      12.3  T
speedup  1.02
cpu  time for SCC    0.01 s
wall time for SCC    0.01 s
speedup  1.00
cpu  time for grad    0.01 s
wall time for grad    0.01 s
 E :    -50.40531158  G :  0.026829    pred/act E change: -0.171D-02 -0.922D-03
Maxdispl :   0.1030   ||displ|| :   0.2018   Lambda : -0.146D-02
Largest |displ|/coords:  0.1030 (   4)  0.0737 (   3)  0.0650 (  11)
................................................................................
.............................. CYCLE    9 ......................................
................................................................................
   1    -50.6549587 -0.506550E+02  0.208E-01    8.92       0.0  T
   2    -50.6550321 -0.734100E-04  0.153E-01    8.92       1.0  T
   3    -50.6550618 -0.296272E-04  0.473E-02    8.93       1.0  T
   4    -50.6550684 -0.663760E-05  0.148E-02    8.93       1.3  T
   5    -50.6550689 -0.482213E-06  0.368E-03    8.93       5.3  T
   6    -50.6550689 -0.164267E-07  0.191E-03    8.93      10.3  T
speedup  1.00
cpu  time for SCC    0.01 s
wall time for SCC    0.01 s
speedup  1.00
cpu  time for grad    0.01 s
wall time for grad    0.01 s
 E :    -50.40580219  G :  0.019983    pred/act E change: -0.100D-02 -0.491D-03
Maxdispl :   0.1102   ||displ|| :   0.2523   Lambda : -0.895D-03
Largest |displ|/coords:  0.1102 (   8)  0.0907 (   2)  0.0883 (   9)
................................................................................
.............................. CYCLE   10 ......................................
................................................................................
   1    -50.6554956 -0.506555E+02  0.130E-01    8.92       0.0  T
   2    -50.6555155 -0.199416E-04  0.956E-02    8.92       1.0  T
   3    -50.6555252 -0.969231E-05  0.235E-02    8.91       1.0  T
   4    -50.6555277 -0.244945E-05  0.467E-03    8.91       4.2  T
   5    -50.6555277 -0.371933E-07  0.233E-03    8.91       8.4  T
   6    -50.6555277 -0.730585E-08  0.997E-04    8.91      19.7  T
speedup  1.03
cpu  time for SCC    0.01 s
wall time for SCC    0.01 s
speedup  1.00
cpu  time for grad    0.01 s
wall time for grad    0.01 s
 E :    -50.40637495  G :  0.018783    pred/act E change: -0.760D-03 -0.573D-03
Maxdispl :   0.1831   ||displ|| :   0.4085   Lambda : -0.120D-02
Largest |displ|/coords:  0.1831 (   2)  0.1712 (   3)  0.1632 (   8)
................................................................................
.............................. CYCLE   11 ......................................
................................................................................
   1    -50.6586521 -0.506587E+02  0.211E-01    8.97       0.0  T
   2    -50.6587561 -0.104035E-03  0.152E-01    8.96       1.0  T
   3    -50.6588014 -0.453226E-04  0.487E-02    8.94       1.0  T
   4    -50.6588090 -0.759427E-05  0.829E-03    8.94       2.4  T
   5    -50.6588092 -0.144020E-06  0.406E-03    8.94       4.8  T
   6    -50.6588092 -0.227315E-07  0.184E-03    8.95      10.7  T
   7    -50.6588092 -0.580869E-08  0.635E-04    8.95      30.9  T
speedup  1.04
cpu  time for SCC    0.01 s
wall time for SCC    0.01 s
speedup  1.01
cpu  time for grad    0.01 s
wall time for grad    0.01 s
 E :    -50.40703076  G :  0.020329    pred/act E change: -0.476D-03 -0.656D-03
Maxdispl :   0.1777   ||displ|| :   0.3822   Lambda : -0.111D-02
Largest |displ|/coords:  0.1777 (   2)  0.1756 (   3)  0.1252 (   8)
................................................................................
.............................. CYCLE   12 ......................................
................................................................................
   1    -50.6582268 -0.506582E+02  0.219E-01    8.94       0.0  T
   2    -50.6582807 -0.539171E-04  0.161E-01    8.93       1.0  T
   3    -50.6583044 -0.237043E-04  0.383E-02    8.91       1.0  T
   4    -50.6583115 -0.711726E-05  0.954E-03    8.91       2.1  T
   5    -50.6583117 -0.172920E-06  0.381E-03    8.91       5.1  T
   6    -50.6583117 -0.184509E-07  0.201E-03    8.91       9.8  T
speedup  1.02
cpu  time for SCC    0.01 s
wall time for SCC    0.01 s
speedup  0.99
cpu  time for grad    0.01 s
wall time for grad    0.01 s
 E :    -50.40786045  G :  0.022512    pred/act E change: -0.703D-03 -0.830D-03
Maxdispl :   0.2491   ||displ|| :   0.4813   Lambda : -0.227D-02
Largest |displ|/coords:  0.2491 (   2)  0.2119 (   3)  0.1445 (  20)
................................................................................
.............................. CYCLE   13 ......................................
................................................................................
   1    -50.6632654 -0.506633E+02  0.313E-01    8.83       0.0  T
   2    -50.6633681 -0.102696E-03  0.233E-01    8.81       1.0  T
   3    -50.6634237 -0.555574E-04  0.572E-02    8.78       1.0  T
   4    -50.6634372 -0.135142E-04  0.219E-02    8.79       1.0  T
   5    -50.6634379 -0.688265E-06  0.597E-03    8.79       3.3  T
   6    -50.6634380 -0.537231E-07  0.315E-03    8.79       6.2  T
speedup  1.03
cpu  time for SCC    0.01 s
wall time for SCC    0.01 s
speedup  1.02
cpu  time for grad    0.01 s
wall time for grad    0.01 s
 E :    -50.40949794  G :  0.031550    pred/act E change: -0.636D-03 -0.164D-02
Maxdispl :   0.2795   ||displ|| :   0.6286   Lambda : -0.280D-02
Largest |displ|/coords:  0.2795 (   3)  0.2584 (  20)  0.2462 (   2)
................................................................................
.............................. CYCLE   14 ......................................
................................................................................
   1    -50.6659370 -0.506659E+02  0.428E-01    8.77       0.0  T
   2    -50.6661637 -0.226684E-03  0.319E-01    8.76       1.0  T
   3    -50.6662971 -0.133440E-03  0.838E-02    8.75       1.0  T
   4    -50.6663261 -0.289978E-04  0.279E-02    8.75       1.0  T
   5    -50.6663274 -0.133500E-05  0.897E-03    8.75       2.2  T
   6    -50.6663275 -0.995291E-07  0.498E-03    8.75       3.9  T
   7    -50.6663276 -0.371564E-07  0.119E-03    8.75      16.5  T
speedup  1.06
cpu  time for SCC    0.01 s
wall time for SCC    0.01 s
speedup  1.02
cpu  time for grad    0.01 s
wall time for grad    0.01 s
 E :    -50.41174258  G :  0.044027    pred/act E change: -0.140D-02 -0.224D-02
Maxdispl :   0.2400   ||displ|| :   0.5846   Lambda : -0.599D-02
Largest |displ|/coords:  0.2400 (  26)  0.1950 (  20)  0.1911 (  50)
................................................................................
.............................. CYCLE   15 ......................................
................................................................................
   1    -50.6872913 -0.506873E+02  0.475E-01    8.82       0.0  T
   2    -50.6875335 -0.242223E-03  0.351E-01    8.85       1.0  T
   3    -50.6877318 -0.198358E-03  0.956E-02    8.92       1.0  T
   4    -50.6877575 -0.256642E-04  0.320E-02    8.91       1.0  T
   5    -50.6877593 -0.185425E-05  0.103E-02    8.90       1.9  T
   6    -50.6877595 -0.140561E-06  0.597E-03    8.90       3.3  T
   7    -50.6877595 -0.408550E-07  0.141E-03    8.90      13.9  T
speedup  0.99
cpu  time for SCC    0.01 s
wall time for SCC    0.01 s
speedup  0.99
cpu  time for grad    0.01 s
wall time for grad    0.02 s
 E :    -50.41432932  G :  0.054707    pred/act E change: -0.196D-02 -0.259D-02
Maxdispl :   0.1433   ||displ|| :   0.3774   Lambda : -0.841D-02
Largest |displ|/coords:  0.1433 (  20)  0.1346 (   3)  0.1165 (   9)
................................................................................
.............................. CYCLE   16 ......................................
................................................................................
   1    -50.6696239 -0.506696E+02  0.329E-01    8.92       0.0  T
   2    -50.6698083 -0.184379E-03  0.243E-01    8.91       1.0  T
   3    -50.6699384 -0.130075E-03  0.758E-02    8.91       1.0  T
   4    -50.6699563 -0.178829E-04  0.253E-02    8.91       1.0  T
   5    -50.6699572 -0.970636E-06  0.826E-03    8.91       2.4  T
   6    -50.6699574 -0.124781E-06  0.427E-03    8.91       4.6  T
   7    -50.6699574 -0.202449E-07  0.121E-03    8.91      16.3  T
speedup  1.03
cpu  time for SCC    0.01 s
wall time for SCC    0.01 s
speedup  1.01
cpu  time for grad    0.01 s
wall time for grad    0.01 s
 E :    -50.41396054  G :  0.071823    pred/act E change: -0.402D-02  0.369D-03
Maxdispl :   0.1461   ||displ|| :   0.3521   Lambda : -0.112D-01
Largest |displ|/coords:  0.1461 (  20)  0.0979 (  12)  0.0964 (   9)
................................................................................
.............................. CYCLE   17 ......................................
................................................................................
   1    -50.6864812 -0.506865E+02  0.324E-01    8.95       0.0  T
   2    -50.6867537 -0.272537E-03  0.238E-01    8.98       1.0  T
   3    -50.6869225 -0.168783E-03  0.874E-02    9.03       1.0  T
   4    -50.6869438 -0.212357E-04  0.271E-02    9.03       1.0  T
   5    -50.6869454 -0.162443E-05  0.955E-03    9.03       2.1  T
   6    -50.6869455 -0.732011E-07  0.507E-03    9.03       3.9  T
   7    -50.6869455 -0.339508E-07  0.106E-03    9.03      18.5  T
speedup  0.99
cpu  time for SCC    0.01 s
wall time for SCC    0.01 s
speedup  0.99
cpu  time for grad    0.01 s
wall time for grad    0.02 s
 E :    -50.41672568  G :  0.053272    pred/act E change: -0.480D-02 -0.277D-02
Maxdispl :   0.1399   ||displ|| :   0.3338   Lambda : -0.660D-02
Largest |displ|/coords:  0.1399 (   8)  0.1316 (  12)  0.1031 (   3)
................................................................................
.............................. CYCLE   18 ......................................
................................................................................
   1    -50.6856737 -0.506857E+02  0.255E-01    9.04       0.0  T
   2    -50.6857478 -0.740568E-04  0.188E-01    9.04       1.0  T
   3    -50.6857991 -0.513055E-04  0.476E-02    9.05       1.0  T
   4    -50.6858066 -0.753367E-05  0.115E-02    9.04       1.7  T
   5    -50.6858068 -0.143176E-06  0.527E-03    9.04       3.7  T
   6    -50.6858068 -0.414046E-07  0.170E-03    9.04      11.6  T
speedup  1.02
cpu  time for SCC    0.01 s
wall time for SCC    0.01 s
speedup  1.01
cpu  time for grad    0.01 s
wall time for grad    0.01 s
 E :    -50.41799865  G :  0.046147    pred/act E change: -0.631D-02 -0.127D-02
Maxdispl :   0.0910   ||displ|| :   0.1807   Lambda : -0.294D-02
Largest |displ|/coords:  0.0910 (  12)  0.0549 (  23)  0.0479 (  19)
................................................................................
.............................. CYCLE   19 ......................................
................................................................................
   1    -50.6809327 -0.506809E+02  0.156E-01    9.02       0.0  T
   2    -50.6809607 -0.280091E-04  0.113E-01    9.03       1.0  T
   3    -50.6809807 -0.200641E-04  0.299E-02    9.04       1.0  T
   4    -50.6809832 -0.245778E-05  0.762E-03    9.03       2.6  T
   5    -50.6809833 -0.955946E-07  0.299E-03    9.03       6.6  T
   6    -50.6809833 -0.124922E-07  0.143E-03    9.03      13.7  T
speedup  0.98
cpu  time for SCC    0.01 s
wall time for SCC    0.01 s
speedup  0.99
cpu  time for grad    0.01 s
wall time for grad    0.01 s
 E :    -50.41935102  G :  0.027089    pred/act E change: -0.367D-02 -0.135D-02
Maxdispl :   0.1502   ||displ|| :   0.3231   Lambda : -0.241D-02
Largest |displ|/coords:  0.1502 (  20)  0.1172 (  26)  0.0959 (  50)
................................................................................
.............................. CYCLE   20 ......................................
................................................................................
   1    -50.6899364 -0.506899E+02  0.247E-01    9.06       0.0  T
   2    -50.6901335 -0.197061E-03  0.182E-01    9.08       1.0  T
   3    -50.6902328 -0.993010E-04  0.747E-02    9.10       1.0  T
   4    -50.6902469 -0.141071E-04  0.228E-02    9.10       1.0  T
   5    -50.6902483 -0.142936E-05  0.730E-03    9.10       2.7  T
   6    -50.6902484 -0.595119E-07  0.423E-03    9.10       4.6  T
   7    -50.6902484 -0.154500E-07  0.885E-04    9.10      22.2  T
speedup  0.91
cpu  time for SCC    0.01 s
wall time for SCC    0.01 s
speedup  0.96
cpu  time for grad    0.01 s
wall time for grad    0.01 s
 E :    -50.41985683  G :  0.029812    pred/act E change: -0.152D-02 -0.506D-03
Maxdispl :   0.1111   ||displ|| :   0.1651   Lambda : -0.170D-02
Largest |displ|/coords:  0.1111 (  20)  0.0507 (  21)  0.0439 (  24)
................................................................................
.............................. CYCLE   21 ......................................
................................................................................
   1    -50.6900394 -0.506900E+02  0.157E-01    9.09       0.0  T
   2    -50.6900614 -0.220325E-04  0.116E-01    9.09       1.0  T
   3    -50.6900740 -0.126403E-04  0.292E-02    9.09       1.0  T
   4    -50.6900767 -0.261617E-05  0.115E-02    9.09       1.7  T
   5    -50.6900768 -0.171893E-06  0.288E-03    9.09       6.8  T
   6    -50.6900769 -0.173681E-07  0.163E-03    9.09      12.0  T
speedup  1.02
cpu  time for SCC    0.01 s
wall time for SCC    0.01 s
speedup  1.01
cpu  time for grad    0.01 s
wall time for grad    0.01 s
 E :    -50.42088388  G :  0.017055    pred/act E change: -0.133D-02 -0.103D-02
Maxdispl :   0.0810   ||displ|| :   0.2255   Lambda : -0.129D-02
Largest |displ|/coords:  0.0810 (  24)  0.0673 (   3)  0.0620 (  12)
................................................................................
.............................. CYCLE   22 ......................................
................................................................................
   1    -50.6844593 -0.506845E+02  0.162E-01    9.03       0.0  T
   2    -50.6844969 -0.375096E-04  0.114E-01    9.04       1.0  T
   3    -50.6845143 -0.174555E-04  0.316E-02    9.04       1.0  T
   4    -50.6845170 -0.272853E-05  0.800E-03    9.04       2.5  T
   5    -50.6845172 -0.122518E-06  0.326E-03    9.04       6.0  T
   6    -50.6845172 -0.184172E-07  0.173E-03    9.04      11.4  T
   7    -50.6845172 -0.483293E-08  0.521E-04    9.04      37.6  T
speedup  0.90
cpu  time for SCC    0.01 s
wall time for SCC    0.01 s
speedup  0.96
cpu  time for grad    0.01 s
wall time for grad    0.01 s
 E :    -50.42133481  G :  0.020447    pred/act E change: -0.872D-03 -0.451D-03
Maxdispl :   0.0681   ||displ|| :   0.1905   Lambda : -0.839D-03
Largest |displ|/coords:  0.0681 (  14)  0.0662 (  24)  0.0611 (  13)
................................................................................
.............................. CYCLE   23 ......................................
................................................................................
   1    -50.6885096 -0.506885E+02  0.131E-01    9.03       0.0  T
   2    -50.6885329 -0.232929E-04  0.940E-02    9.04       1.0  T
   3    -50.6885442 -0.113739E-04  0.250E-02    9.04       1.0  T
   4    -50.6885462 -0.198756E-05  0.648E-03    9.04       3.0  T
   5    -50.6885463 -0.890839E-07  0.257E-03    9.04       7.6  T
   6    -50.6885463 -0.105032E-07  0.130E-03    9.04      15.0  T
speedup  1.03
cpu  time for SCC    0.01 s
wall time for SCC    0.01 s
speedup  1.02
cpu  time for grad    0.01 s
wall time for grad    0.01 s
 E :    -50.42186738  G :  0.014752    pred/act E change: -0.680D-03 -0.533D-03
Maxdispl :   0.0707   ||displ|| :   0.2094   Lambda : -0.536D-03
Largest |displ|/coords:  0.0707 (  20)  0.0692 (  24)  0.0670 (  13)
................................................................................
.............................. CYCLE   24 ......................................
................................................................................
   1    -50.6909591 -0.506910E+02  0.142E-01    9.00       0.0  T
   2    -50.6909876 -0.285275E-04  0.102E-01    9.00       1.0  T
   3    -50.6910000 -0.123873E-04  0.267E-02    9.00       1.0  T
   4    -50.6910026 -0.257147E-05  0.575E-03    9.00       3.4  T
   5    -50.6910026 -0.590238E-07  0.220E-03    9.00       8.9  T
   6    -50.6910026 -0.609815E-08  0.115E-03    9.00      17.1  T
speedup  0.88
cpu  time for SCC    0.01 s
wall time for SCC    0.01 s
speedup  0.93
cpu  time for grad    0.01 s
wall time for grad    0.02 s
 E :    -50.42209605  G :  0.013498    pred/act E change: -0.435D-03 -0.229D-03
Maxdispl :   0.0837   ||displ|| :   0.2028   Lambda : -0.525D-03
Largest |displ|/coords:  0.0837 (  24)  0.0799 (  14)  0.0664 (   4)
................................................................................
.............................. CYCLE   25 ......................................
................................................................................
   1    -50.6916558 -0.506917E+02  0.125E-01    9.00       0.0  T
   2    -50.6916688 -0.129986E-04  0.929E-02    9.00       1.0  T
   3    -50.6916758 -0.703015E-05  0.207E-02    9.00       1.0  T
   4    -50.6916776 -0.176502E-05  0.641E-03    9.00       3.1  T
   5    -50.6916776 -0.609847E-07  0.219E-03    9.00       9.0  T
   6    -50.6916776 -0.802319E-08  0.107E-03    9.00      18.3  T
speedup  0.85
cpu  time for SCC    0.00 s
wall time for SCC    0.01 s
speedup  0.95
cpu  time for grad    0.01 s
wall time for grad    0.01 s
 E :    -50.42241895  G :  0.011092    pred/act E change: -0.280D-03 -0.323D-03
Maxdispl :   0.0840   ||displ|| :   0.2410   Lambda : -0.521D-03
Largest |displ|/coords:  0.0840 (  24)  0.0840 (  14)  0.0804 (   4)

generating ANC from model Hessian ...
 Shifting diagonal of input Hessian by   5.056371410485196E-003
 Lowest  eigenvalues of input Hessian
    0.005000    0.005017   -0.000000   -0.000000   -0.000000   -0.000000
    0.000000    0.000000    0.005218    0.005460    0.005567    0.006079
    0.006244    0.006811    0.007635    0.008354    0.009329    0.009847
 Highest eigenvalues
    1.389685    1.393683    1.419339    2.554291    3.305639    3.738373
 
cpu  time for ANC gen    0.02 s
wall time for ANC gen    0.02 s
................................................................................
.............................. CYCLE   26 ......................................
................................................................................
   1    -50.6911646 -0.506912E+02  0.143E-01    9.00       0.0  T
   2    -50.6911862 -0.215449E-04  0.107E-01    9.00       1.0  T
   3    -50.6911965 -0.103062E-04  0.274E-02    9.00       1.0  T
   4    -50.6911995 -0.300693E-05  0.792E-03    9.00       2.5  T
   5    -50.6911996 -0.142460E-06  0.264E-03    9.00       7.4  T
   6    -50.6911997 -0.725301E-08  0.133E-03    9.00      14.8  T
   7    -50.6911997 -0.389483E-08  0.366E-04    9.00      53.6  T
   8    -50.6911997 -0.330814E-09  0.925E-05    9.00     212.0  T
speedup  1.04
cpu  time for SCC    0.01 s
wall time for SCC    0.01 s
speedup  1.04
cpu  time for grad    0.02 s
wall time for grad    0.02 s
 E :    -50.42283480  G :  0.013594    pred/act E change:  0.000D+00 -0.416D-03
Maxdispl :   0.1020   ||displ|| :   0.2140   Lambda : -0.809D-03
Largest |displ|/coords:  0.1020 (  10)  0.0847 (   5)  0.0757 (  17)
................................................................................
.............................. CYCLE   27 ......................................
................................................................................
   1    -50.6917216 -0.506917E+02  0.196E-01    9.00       0.0  T
   2    -50.6917289 -0.732205E-05  0.148E-01    9.00       1.0  T
   3    -50.6917349 -0.594483E-05  0.163E-02    9.01       1.2  T
   4    -50.6917359 -0.106060E-05  0.477E-03    9.01       4.1  T
   5    -50.6917360 -0.373291E-07  0.209E-03    9.00       9.4  T
   6    -50.6917360 -0.431572E-08  0.106E-03    9.00      18.6  T
speedup  1.02
cpu  time for SCC    0.01 s
wall time for SCC    0.01 s
speedup  1.03
cpu  time for grad    0.01 s
wall time for grad    0.01 s
 E :    -50.42345234  G :  0.012516    pred/act E change:  0.000D+00 -0.618D-03
Maxdispl :   0.1744   ||displ|| :   0.3833   Lambda : -0.102D-02
Largest |displ|/coords:  0.1744 (   5)  0.1343 (  10)  0.1224 (  17)
................................................................................
.............................. CYCLE   28 ......................................
................................................................................
   1    -50.6891355 -0.506891E+02  0.351E-01    9.01       0.0  T
   2    -50.6891640 -0.284156E-04  0.266E-01    9.01       1.0  T
   3    -50.6891862 -0.222872E-04  0.299E-02    9.01       1.0  T
   4    -50.6891906 -0.435371E-05  0.977E-03    9.01       2.0  T
   5    -50.6891907 -0.157585E-06  0.426E-03    9.01       4.6  T
   6    -50.6891908 -0.175444E-07  0.230E-03    9.01       8.5  T
   7    -50.6891908 -0.153287E-07  0.479E-04    9.01      40.9  T
speedup  0.94
cpu  time for SCC    0.01 s
wall time for SCC    0.01 s
speedup  0.98
cpu  time for grad    0.01 s
wall time for grad    0.01 s
 E :    -50.42386896  G :  0.028513    pred/act E change: -0.423D-03 -0.417D-03
Maxdispl :   0.0766   ||displ|| :   0.1636   Lambda : -0.939D-03
Largest |displ|/coords:  0.0766 (   7)  0.0610 (   2)  0.0542 (   5)
................................................................................
.............................. CYCLE   29 ......................................
................................................................................
   1    -50.6938885 -0.506939E+02  0.987E-02    9.03       0.0  T
   2    -50.6938974 -0.893326E-05  0.742E-02    9.02       1.0  T
   3    -50.6939029 -0.546973E-05  0.176E-02    9.02       1.1  T
   4    -50.6939041 -0.117936E-05  0.620E-03    9.02       3.2  T
   5    -50.6939042 -0.839809E-07  0.198E-03    9.02       9.9  T
   6    -50.6939042 -0.406379E-08  0.105E-03    9.02      18.7  T
speedup  1.00
cpu  time for SCC    0.01 s
wall time for SCC    0.01 s
speedup  1.01
cpu  time for grad    0.01 s
wall time for grad    0.01 s
 E :    -50.42453635  G :  0.016914    pred/act E change: -0.583D-03 -0.667D-03
Maxdispl :   0.1980   ||displ|| :   0.3888   Lambda : -0.149D-02
Largest |displ|/coords:  0.1980 (   7)  0.1394 (   2)  0.1227 (   9)
................................................................................
.............................. CYCLE   30 ......................................
................................................................................
   1    -50.7003880 -0.507004E+02  0.213E-01    9.03       0.0  T
   2    -50.7004368 -0.488509E-04  0.162E-01    9.03       1.0  T
   3    -50.7004613 -0.244607E-04  0.469E-02    9.02       1.0  T
   4    -50.7004680 -0.671879E-05  0.144E-02    9.03       1.4  T
   5    -50.7004685 -0.452127E-06  0.435E-03    9.03       4.5  T
   6    -50.7004685 -0.261729E-07  0.245E-03    9.03       8.0  T
   7    -50.7004685 -0.138846E-07  0.707E-04    9.03      27.7  T
speedup  1.03
cpu  time for SCC    0.01 s
wall time for SCC    0.01 s
speedup  1.02
cpu  time for grad    0.01 s
wall time for grad    0.01 s
 E :    -50.42578941  G :  0.024034    pred/act E change: -0.482D-03 -0.125D-02
Maxdispl :   0.3289   ||displ|| :   0.7349   Lambda : -0.337D-02
Largest |displ|/coords:  0.3289 (   7)  0.2251 (   2)  0.1978 (  17)
................................................................................
.............................. CYCLE   31 ......................................
................................................................................
   1    -50.7103629 -0.507104E+02  0.486E-01    8.99       0.0  T
   2    -50.7106197 -0.256818E-03  0.371E-01    8.97       1.0  T
   3    -50.7107634 -0.143698E-03  0.108E-01    8.95       1.0  T
   4    -50.7107994 -0.359871E-04  0.327E-02    8.96       1.0  T
   5    -50.7108017 -0.233075E-05  0.109E-02    8.96       1.8  T
   6    -50.7108019 -0.156028E-06  0.573E-03    8.96       3.4  T
   7    -50.7108019 -0.737508E-07  0.151E-03    8.96      13.0  T
speedup  0.90
cpu  time for SCC    0.01 s
wall time for SCC    0.01 s
speedup  0.95
cpu  time for grad    0.01 s
wall time for grad    0.01 s
 E :    -50.42930726  G :  0.035291    pred/act E change: -0.859D-03 -0.352D-02
Maxdispl :   0.3069   ||displ|| :   0.7938   Lambda : -0.635D-02
Largest |displ|/coords:  0.3069 (  14)  0.1941 (   7)  0.1940 (  17)
................................................................................
.............................. CYCLE   32 ......................................
................................................................................
   1    -50.7294666 -0.507295E+02  0.656E-01    8.81       0.0  T
   2    -50.7299125 -0.445894E-03  0.500E-01    8.79       1.0  T
   3    -50.7302696 -0.357090E-03  0.136E-01    8.74       1.0  T
   4    -50.7303256 -0.560127E-04  0.452E-02    8.76       1.0  T
   5    -50.7303295 -0.383145E-05  0.165E-02    8.76       1.2  T
   6    -50.7303297 -0.234579E-06  0.778E-03    8.76       2.5  T
   7    -50.7303299 -0.153247E-06  0.230E-03    8.76       8.5  T
   8    -50.7303299 -0.105904E-07  0.675E-04    8.76      29.1  T
speedup  1.05
cpu  time for SCC    0.01 s
wall time for SCC    0.01 s
speedup  1.03
cpu  time for grad    0.02 s
wall time for grad    0.02 s
 E :    -50.42737188  G :  0.077947    pred/act E change: -0.260D-02  0.194D-02
Maxdispl :   0.1899   ||displ|| :   0.5731   Lambda : -0.231D-01
Largest |displ|/coords:  0.1899 (  14)  0.1798 (  54)  0.1632 (  56)
................................................................................
.............................. CYCLE   33 ......................................
................................................................................
   1    -50.7016407 -0.507016E+02  0.606E-01    8.77       0.0  T
   2    -50.7023615 -0.720864E-03  0.454E-01    8.80       1.0  T
   3    -50.7027982 -0.436704E-03  0.161E-01    8.83       1.0  T
   4    -50.7028689 -0.706960E-04  0.474E-02    8.81       1.0  T
   5    -50.7028746 -0.564908E-05  0.177E-02    8.82       1.1  T
   6    -50.7028754 -0.806608E-06  0.111E-02    8.82       1.8  T
   7    -50.7028755 -0.150713E-06  0.268E-03    8.82       7.3  T
   8    -50.7028755 -0.122116E-07  0.677E-04    8.82      29.0  T
speedup  1.01
cpu  time for SCC    0.01 s
wall time for SCC    0.01 s
speedup  0.96
cpu  time for grad    0.01 s
wall time for grad    0.02 s
 E :    -50.42856988  G :  0.044975    pred/act E change: -0.517D-02 -0.120D-02
Maxdispl :   0.0844   ||displ|| :   0.2018   Lambda : -0.392D-02
Largest |displ|/coords:  0.0844 (   7)  0.0561 (  10)  0.0549 (  13)
................................................................................
.............................. CYCLE   34 ......................................
................................................................................
   1    -50.7169415 -0.507169E+02  0.181E-01    9.01       0.0  T
   2    -50.7170121 -0.705918E-04  0.131E-01    9.00       1.0  T
   3    -50.7170489 -0.368395E-04  0.485E-02    8.98       1.0  T
   4    -50.7170534 -0.447743E-05  0.150E-02    8.99       1.3  T
   5    -50.7170539 -0.555005E-06  0.498E-03    8.99       3.9  T
   6    -50.7170540 -0.286546E-07  0.243E-03    8.99       8.1  T
speedup  1.02
cpu  time for SCC    0.01 s
wall time for SCC    0.01 s
speedup  1.03
cpu  time for grad    0.01 s
wall time for grad    0.01 s
 E :    -50.43146052  G :  0.037829    pred/act E change: -0.154D-01 -0.289D-02
Maxdispl :   0.1936   ||displ|| :   0.5053   Lambda : -0.502D-02
Largest |displ|/coords:  0.1936 (   5)  0.1450 (  14)  0.1409 (   3)
................................................................................
.............................. CYCLE   35 ......................................
................................................................................
   1    -50.7286904 -0.507287E+02  0.459E-01    8.94       0.0  T
   2    -50.7289163 -0.225884E-03  0.347E-01    8.93       1.0  T
   3    -50.7290892 -0.172979E-03  0.931E-02    8.89       1.0  T
   4    -50.7291164 -0.271219E-04  0.308E-02    8.91       1.0  T
   5    -50.7291181 -0.175335E-05  0.119E-02    8.91       1.6  T
   6    -50.7291182 -0.131540E-06  0.553E-03    8.91       3.5  T
   7    -50.7291183 -0.698908E-07  0.172E-03    8.91      11.4  T
speedup  0.92
cpu  time for SCC    0.01 s
wall time for SCC    0.01 s
speedup  0.98
cpu  time for grad    0.01 s
wall time for grad    0.01 s
 E :    -50.43068126  G :  0.058619    pred/act E change: -0.204D-02  0.779D-03
Maxdispl :   0.1681   ||displ|| :   0.4283   Lambda : -0.139D-01
Largest |displ|/coords:  0.1681 (  17)  0.1250 (   5)  0.1219 (  54)
................................................................................
.............................. CYCLE   36 ......................................
................................................................................
   1    -50.7143612 -0.507144E+02  0.529E-01    8.92       0.0  T
   2    -50.7147395 -0.378338E-03  0.395E-01    8.93       1.0  T
   3    -50.7149869 -0.247346E-03  0.114E-01    8.95       1.0  T
   4    -50.7150267 -0.397944E-04  0.353E-02    8.94       1.0  T
   5    -50.7150295 -0.286822E-05  0.137E-02    8.94       1.4  T
   6    -50.7150298 -0.294277E-06  0.728E-03    8.94       2.7  T
   7    -50.7150299 -0.815050E-07  0.184E-03    8.94      10.7  T
   8    -50.7150299 -0.769926E-08  0.505E-04    8.94      38.9  T
speedup  0.92
cpu  time for SCC    0.01 s
wall time for SCC    0.01 s
speedup  0.97
cpu  time for grad    0.01 s
wall time for grad    0.02 s
 E :    -50.42964347  G :  0.078724    pred/act E change: -0.315D-02  0.104D-02
Maxdispl :   0.1384   ||displ|| :   0.3522   Lambda : -0.107D-01
Largest |displ|/coords:  0.1384 (   3)  0.1301 (  17)  0.1214 (  14)
................................................................................
.............................. CYCLE   37 ......................................
................................................................................
   1    -50.7186478 -0.507186E+02  0.469E-01    8.97       0.0  T
   2    -50.7188717 -0.223838E-03  0.347E-01    8.97       1.0  T
   3    -50.7190193 -0.147596E-03  0.844E-02    8.96       1.0  T
   4    -50.7190443 -0.250593E-04  0.199E-02    8.97       1.0  T
   5    -50.7190448 -0.510002E-06  0.949E-03    8.97       2.1  T
   6    -50.7190450 -0.147402E-06  0.403E-03    8.97       4.9  T
   7    -50.7190450 -0.314688E-07  0.119E-03    8.97      16.4  T
speedup  1.04
cpu  time for SCC    0.01 s
wall time for SCC    0.01 s
speedup  0.97
cpu  time for grad    0.01 s
wall time for grad    0.01 s
 E :    -50.43043371  G :  0.080861    pred/act E change: -0.823D-02 -0.790D-03
Maxdispl :   0.1589   ||displ|| :   0.3745   Lambda : -0.126D-01
Largest |displ|/coords:  0.1589 (  14)  0.1434 (   8)  0.1227 (  17)
................................................................................
.............................. CYCLE   38 ......................................
................................................................................
   1    -50.7282861 -0.507283E+02  0.479E-01    9.06       0.0  T
   2    -50.7285266 -0.240487E-03  0.355E-01    9.05       1.0  T
   3    -50.7286966 -0.170003E-03  0.881E-02    9.04       1.0  T
   4    -50.7287219 -0.252767E-04  0.223E-02    9.04       1.0  T
   5    -50.7287228 -0.934551E-06  0.102E-02    9.04       1.9  T
   6    -50.7287229 -0.108463E-06  0.471E-03    9.04       4.2  T
   7    -50.7287230 -0.434540E-07  0.114E-03    9.04      17.2  T
speedup  1.06
cpu  time for SCC    0.01 s
wall time for SCC    0.01 s
speedup  1.03
cpu  time for grad    0.01 s
wall time for grad    0.01 s
 E :    -50.43115297  G :  0.081338    pred/act E change: -0.600D-02 -0.719D-03
Maxdispl :   0.1260   ||displ|| :   0.3129   Lambda : -0.105D-01
Largest |displ|/coords:  0.1260 (  14)  0.1028 (   8)  0.0834 (   3)
................................................................................
.............................. CYCLE   39 ......................................
................................................................................
   1    -50.7209982 -0.507210E+02  0.393E-01    8.95       0.0  T
   2    -50.7211719 -0.173695E-03  0.290E-01    8.95       1.0  T
   3    -50.7212894 -0.117444E-03  0.758E-02    8.97       1.0  T
   4    -50.7213068 -0.174238E-04  0.213E-02    8.96       1.0  T
   5    -50.7213078 -0.999142E-06  0.844E-03    8.96       2.3  T
   6    -50.7213079 -0.889882E-07  0.409E-03    8.96       4.8  T
   7    -50.7213079 -0.285329E-07  0.964E-04    8.96      20.3  T
speedup  1.04
cpu  time for SCC    0.01 s
wall time for SCC    0.01 s
speedup  1.03
cpu  time for grad    0.01 s
wall time for grad    0.01 s
 E :    -50.43288572  G :  0.051720    pred/act E change: -0.717D-02 -0.173D-02
Maxdispl :   0.0725   ||displ|| :   0.1887   Lambda : -0.378D-02
Largest |displ|/coords:  0.0725 (  14)  0.0652 (   8)  0.0536 (  11)
................................................................................
.............................. CYCLE   40 ......................................
................................................................................
   1    -50.7274894 -0.507275E+02  0.214E-01    9.02       0.0  T
   2    -50.7275436 -0.542301E-04  0.158E-01    9.02       1.0  T
   3    -50.7275805 -0.368351E-04  0.438E-02    9.01       1.0  T
   4    -50.7275858 -0.534920E-05  0.134E-02    9.01       1.5  T
   5    -50.7275862 -0.392459E-06  0.485E-03    9.01       4.0  T
   6    -50.7275862 -0.281990E-07  0.236E-03    9.01       8.3  T
speedup  0.86
cpu  time for SCC    0.00 s
wall time for SCC    0.01 s
speedup  0.97
cpu  time for grad    0.01 s
wall time for grad    0.01 s
 E :    -50.43440002  G :  0.024107    pred/act E change: -0.574D-02 -0.151D-02
Maxdispl :   0.0424   ||displ|| :   0.0861   Lambda : -0.510D-03
Largest |displ|/coords:  0.0424 (   3)  0.0370 (   4)  0.0294 (   5)
................................................................................
.............................. CYCLE   41 ......................................
................................................................................
   1    -50.7267224 -0.507267E+02  0.625E-02    8.97       0.0  T
   2    -50.7267252 -0.275448E-05  0.457E-02    8.98       1.0  T
   3    -50.7267269 -0.170250E-05  0.103E-02    8.98       1.9  T
   4    -50.7267272 -0.276371E-06  0.357E-03    8.98       5.5  T
   5    -50.7267272 -0.255490E-07  0.105E-03    8.98      18.7  T
speedup  1.02
cpu  time for SCC    0.00 s
wall time for SCC    0.00 s
speedup  1.04
cpu  time for grad    0.01 s
wall time for grad    0.01 s
 E :    -50.43477395  G :  0.016036    pred/act E change: -0.196D-02 -0.374D-03
Maxdispl :   0.1129   ||displ|| :   0.2071   Lambda : -0.637D-03
Largest |displ|/coords:  0.1129 (   3)  0.1052 (   4)  0.0640 (   5)
................................................................................
.............................. CYCLE   42 ......................................
................................................................................
   1    -50.7264104 -0.507264E+02  0.112E-01    8.94       0.0  T
   2    -50.7264150 -0.454067E-05  0.827E-02    8.94       1.0  T
   3    -50.7264189 -0.395198E-05  0.143E-02    8.94       1.4  T
   4    -50.7264194 -0.447138E-06  0.534E-03    8.94       3.7  T
   5    -50.7264194 -0.427582E-07  0.165E-03    8.94      11.9  T
   6    -50.7264194 -0.474261E-08  0.100E-03    8.94      19.6  T
speedup  1.05
cpu  time for SCC    0.01 s
wall time for SCC    0.01 s
speedup  1.03
cpu  time for grad    0.01 s
wall time for grad    0.01 s
 E :    -50.43525242  G :  0.013753    pred/act E change: -0.257D-03 -0.478D-03
Maxdispl :   0.1799   ||displ|| :   0.3088   Lambda : -0.733D-03
Largest |displ|/coords:  0.1799 (   3)  0.1383 (   4)  0.0760 (  10)
................................................................................
.............................. CYCLE   43 ......................................
................................................................................
   1    -50.7269586 -0.507270E+02  0.154E-01    8.91       0.0  T
   2    -50.7269649 -0.623576E-05  0.112E-01    8.92       1.0  T
   3    -50.7269706 -0.573868E-05  0.172E-02    8.92       1.1  T
   4    -50.7269710 -0.454765E-06  0.634E-03    8.92       3.1  T
   5    -50.7269711 -0.600233E-07  0.199E-03    8.92       9.8  T
   6    -50.7269711 -0.598538E-08  0.125E-03    8.92      15.6  T
speedup  0.98
cpu  time for SCC    0.01 s
wall time for SCC    0.01 s
speedup  1.01
cpu  time for grad    0.01 s
wall time for grad    0.01 s
 E :    -50.43576553  G :  0.012063    pred/act E change: -0.332D-03 -0.513D-03
Maxdispl :   0.2007   ||displ|| :   0.3318   Lambda : -0.546D-03
Largest |displ|/coords:  0.2007 (   3)  0.1838 (   4)  0.0731 (   8)
................................................................................
.............................. CYCLE   44 ......................................
................................................................................
   1    -50.7274059 -0.507274E+02  0.158E-01    8.94       0.0  T
   2    -50.7274124 -0.645221E-05  0.116E-01    8.94       1.0  T
   3    -50.7274187 -0.638170E-05  0.194E-02    8.94       1.0  T
   4    -50.7274192 -0.490965E-06  0.503E-03    8.94       3.9  T
   5    -50.7274193 -0.462180E-07  0.229E-03    8.94       8.6  T
   6    -50.7274193 -0.848279E-08  0.119E-03    8.94      16.5  T
speedup  1.00
cpu  time for SCC    0.01 s
wall time for SCC    0.01 s
speedup  1.01
cpu  time for grad    0.01 s
wall time for grad    0.01 s
 E :    -50.43606612  G :  0.009153    pred/act E change: -0.401D-03 -0.301D-03
Maxdispl :   0.1619   ||displ|| :   0.2533   Lambda : -0.430D-03
Largest |displ|/coords:  0.1619 (   3)  0.0836 (   4)  0.0682 (   8)
................................................................................
.............................. CYCLE   45 ......................................
................................................................................
   1    -50.7327396 -0.507327E+02  0.122E-01    8.94       0.0  T
   2    -50.7327454 -0.581119E-05  0.882E-02    8.94       1.0  T
   3    -50.7327505 -0.514953E-05  0.171E-02    8.94       1.1  T
   4    -50.7327510 -0.488705E-06  0.443E-03    8.94       4.4  T
   5    -50.7327511 -0.318224E-07  0.189E-03    8.94      10.4  T
   6    -50.7327511 -0.517470E-08  0.903E-04    8.94      21.7  T
speedup  1.06
cpu  time for SCC    0.01 s
wall time for SCC    0.01 s
speedup  1.02
cpu  time for grad    0.01 s
wall time for grad    0.01 s
 E :    -50.43617770  G :  0.009817    pred/act E change: -0.303D-03 -0.112D-03
Maxdispl :   0.0623   ||displ|| :   0.1018   Lambda : -0.253D-03
Largest |displ|/coords:  0.0623 (   4)  0.0408 (   3)  0.0252 (   1)
................................................................................
.............................. CYCLE   46 ......................................
................................................................................
   1    -50.7297093 -0.507297E+02  0.484E-02    8.95       0.0  T
   2    -50.7297114 -0.210395E-05  0.365E-02    8.95       1.0  T
   3    -50.7297134 -0.193803E-05  0.816E-03    8.95       2.4  T
   4    -50.7297136 -0.239058E-06  0.234E-03    8.95       8.4  T
   5    -50.7297136 -0.806180E-08  0.103E-03    8.95      19.0  T
speedup  0.96
cpu  time for SCC    0.00 s
wall time for SCC    0.01 s
speedup  0.99
cpu  time for grad    0.01 s
wall time for grad    0.01 s
 E :    -50.43629523  G :  0.009652    pred/act E change: -0.229D-03 -0.118D-03
Maxdispl :   0.1009   ||displ|| :   0.1484   Lambda : -0.223D-03
Largest |displ|/coords:  0.1009 (   4)  0.0585 (   3)  0.0568 (   7)
................................................................................
.............................. CYCLE   47 ......................................
................................................................................
   1    -50.7298524 -0.507299E+02  0.632E-02    8.97       0.0  T
   2    -50.7298544 -0.193271E-05  0.472E-02    8.97       1.0  T
   3    -50.7298559 -0.151627E-05  0.818E-03    8.97       2.4  T
   4    -50.7298561 -0.231108E-06  0.210E-03    8.97       9.3  T
   5    -50.7298561 -0.679694E-08  0.950E-04    8.97      20.6  T
speedup  0.83
cpu  time for SCC    0.00 s
wall time for SCC    0.00 s
speedup  0.94
cpu  time for grad    0.01 s
wall time for grad    0.01 s
 E :    -50.43641218  G :  0.008189    pred/act E change: -0.128D-03 -0.117D-03
Maxdispl :   0.1584   ||displ|| :   0.2459   Lambda : -0.238D-03
Largest |displ|/coords:  0.1584 (   4)  0.1273 (   3)  0.0804 (   2)
................................................................................
.............................. CYCLE   48 ......................................
................................................................................
   1    -50.7296972 -0.507297E+02  0.690E-02    8.94       0.0  T
   2    -50.7296989 -0.162127E-05  0.510E-02    8.94       1.0  T
   3    -50.7297002 -0.130717E-05  0.794E-03    8.94       2.5  T
   4    -50.7297003 -0.168178E-06  0.282E-03    8.94       7.0  T
   5    -50.7297003 -0.115325E-07  0.910E-04    8.94      21.5  T
speedup  1.02
cpu  time for SCC    0.00 s
wall time for SCC    0.00 s
speedup  1.02
cpu  time for grad    0.01 s
wall time for grad    0.01 s
 E :    -50.43658919  G :  0.007435    pred/act E change: -0.114D-03 -0.177D-03
Maxdispl :   0.3593   ||displ|| :   0.5492   Lambda : -0.414D-03
Largest |displ|/coords:  0.3593 (   4)  0.2674 (   3)  0.1915 (   2)
................................................................................
.............................. CYCLE   49 ......................................
................................................................................
   1    -50.7296467 -0.507296E+02  0.155E-01    8.89       0.0  T
   2    -50.7296520 -0.530416E-05  0.115E-01    8.89       1.0  T
   3    -50.7296569 -0.488445E-05  0.151E-02    8.89       1.3  T
   4    -50.7296574 -0.506185E-06  0.600E-03    8.89       3.3  T
   5    -50.7296575 -0.416300E-07  0.177E-03    8.89      11.1  T
   6    -50.7296575 -0.325112E-08  0.104E-03    8.89      18.8  T
speedup  1.03
cpu  time for SCC    0.01 s
wall time for SCC    0.01 s
speedup  1.02
cpu  time for grad    0.01 s
wall time for grad    0.01 s
 E :    -50.43692788  G :  0.008421    pred/act E change: -0.126D-03 -0.339D-03
Maxdispl :   0.4477   ||displ|| :   0.6552   Lambda : -0.462D-03
Largest |displ|/coords:  0.4477 (   4)  0.2883 (   3)  0.2530 (   2)
................................................................................
.............................. CYCLE   50 ......................................
................................................................................
   1    -50.7299058 -0.507299E+02  0.156E-01    8.82       0.0  T
   2    -50.7299121 -0.635985E-05  0.116E-01    8.81       1.0  T
   3    -50.7299175 -0.541069E-05  0.152E-02    8.79       1.3  T
   4    -50.7299182 -0.707336E-06  0.606E-03    8.80       3.2  T
   5    -50.7299183 -0.460333E-07  0.191E-03    8.80      10.3  T
   6    -50.7299183 -0.414953E-08  0.104E-03    8.80      18.8  T
speedup  1.00
cpu  time for SCC    0.01 s
wall time for SCC    0.01 s
speedup  1.01
cpu  time for grad    0.01 s
wall time for grad    0.01 s
 E :    -50.43729664  G :  0.008109    pred/act E change: -0.269D-03 -0.369D-03
Maxdispl :   0.4305   ||displ|| :   0.6325   Lambda : -0.486D-03
Largest |displ|/coords:  0.4305 (   4)  0.2933 (   2)  0.2480 (   3)
................................................................................
.............................. CYCLE   51 ......................................
................................................................................
   1    -50.7275220 -0.507275E+02  0.165E-01    8.72       0.0  T
   2    -50.7275283 -0.629995E-05  0.124E-01    8.72       1.0  T
   3    -50.7275345 -0.613557E-05  0.141E-02    8.71       1.4  T
   4    -50.7275351 -0.685992E-06  0.598E-03    8.71       3.3  T
   5    -50.7275352 -0.432075E-07  0.176E-03    8.71      11.2  T
   6    -50.7275352 -0.352522E-08  0.829E-04    8.71      23.7  T
speedup  1.05
cpu  time for SCC    0.01 s
wall time for SCC    0.01 s
speedup  0.99
cpu  time for grad    0.01 s
wall time for grad    0.01 s
 E :    -50.43760054  G :  0.013321    pred/act E change: -0.330D-03 -0.304D-03
Maxdispl :   0.2509   ||displ|| :   0.3875   Lambda : -0.774D-03
Largest |displ|/coords:  0.2509 (   2)  0.1932 (   4)  0.0813 (  11)
................................................................................
.............................. CYCLE   52 ......................................
................................................................................
   1    -50.7308386 -0.507308E+02  0.148E-01    8.73       0.0  T
   2    -50.7308451 -0.648136E-05  0.108E-01    8.73       1.0  T
   3    -50.7308510 -0.594856E-05  0.199E-02    8.74       1.0  T
   4    -50.7308515 -0.492889E-06  0.429E-03    8.74       4.6  T
   5    -50.7308515 -0.293889E-07  0.198E-03    8.74       9.9  T
   6    -50.7308515 -0.588796E-08  0.978E-04    8.74      20.1  T
speedup  1.02
cpu  time for SCC    0.01 s
wall time for SCC    0.01 s
speedup  0.99
cpu  time for grad    0.01 s
wall time for grad    0.01 s
 E :    -50.43792233  G :  0.015098    pred/act E change: -0.340D-03 -0.322D-03
Maxdispl :   0.2393   ||displ|| :   0.4021   Lambda : -0.547D-03
Largest |displ|/coords:  0.2393 (   4)  0.2135 (   2)  0.1452 (   3)

generating ANC from model Hessian ...
 Shifting diagonal of input Hessian by   5.081838473521967E-003
 Lowest  eigenvalues of input Hessian
    0.005000   -0.000000   -0.000000   -0.000000   -0.000000    0.000000
    0.000000    0.005153    0.005421    0.005718    0.005889    0.005951
    0.006133    0.006531    0.007096    0.007176    0.008314    0.008593
 Highest eigenvalues
    1.392330    1.397611    1.415657    2.484242    3.286501    3.851387
 
cpu  time for ANC gen    0.02 s
wall time for ANC gen    0.02 s
................................................................................
.............................. CYCLE   53 ......................................
................................................................................
   1    -50.7263819 -0.507264E+02  0.152E-01    8.66       0.0  T
   2    -50.7263889 -0.702249E-05  0.112E-01    8.66       1.0  T
   3    -50.7263943 -0.538380E-05  0.133E-02    8.66       1.5  T
   4    -50.7263950 -0.694521E-06  0.465E-03    8.65       4.2  T
   5    -50.7263950 -0.197074E-07  0.168E-03    8.65      11.7  T
   6    -50.7263950 -0.426942E-08  0.669E-04    8.65      29.3  T
   7    -50.7263950 -0.138082E-08  0.201E-04    8.65      97.6  T
speedup  0.90
cpu  time for SCC    0.01 s
wall time for SCC    0.01 s
speedup  0.96
cpu  time for grad    0.01 s
wall time for grad    0.02 s
 E :    -50.43821564  G :  0.016505    pred/act E change:  0.000D+00 -0.293D-03
Maxdispl :   0.1386   ||displ|| :   0.2310   Lambda : -0.827D-03
Largest |displ|/coords:  0.1386 (   6)  0.0743 (  11)  0.0677 (   2)
................................................................................
.............................. CYCLE   54 ......................................
................................................................................
   1    -50.7293225 -0.507293E+02  0.159E-01    8.64       0.0  T
   2    -50.7293297 -0.716767E-05  0.118E-01    8.63       1.0  T
   3    -50.7293341 -0.442547E-05  0.172E-02    8.62       1.1  T
   4    -50.7293351 -0.104856E-05  0.475E-03    8.62       4.1  T
   5    -50.7293352 -0.251645E-07  0.200E-03    8.63       9.8  T
   6    -50.7293352 -0.439763E-08  0.750E-04    8.62      26.1  T
speedup  1.03
cpu  time for SCC    0.01 s
wall time for SCC    0.01 s
speedup  1.02
cpu  time for grad    0.01 s
wall time for grad    0.01 s
 E :    -50.43880060  G :  0.006820    pred/act E change:  0.000D+00 -0.585D-03
Maxdispl :   0.2490   ||displ|| :   0.3830   Lambda : -0.690D-03
Largest |displ|/coords:  0.2490 (   6)  0.1881 (   4)  0.0975 (   2)
................................................................................
.............................. CYCLE   55 ......................................
................................................................................
   1    -50.7305814 -0.507306E+02  0.237E-01    8.61       0.0  T
   2    -50.7305933 -0.119765E-04  0.176E-01    8.60       1.0  T
   3    -50.7306034 -0.101139E-04  0.196E-02    8.57       1.0  T
   4    -50.7306047 -0.122394E-05  0.678E-03    8.58       2.9  T
   5    -50.7306047 -0.394090E-07  0.282E-03    8.58       6.9  T
   6    -50.7306047 -0.107404E-07  0.864E-04    8.58      22.7  T
speedup  0.98
cpu  time for SCC    0.01 s
wall time for SCC    0.01 s
speedup  0.99
cpu  time for grad    0.01 s
wall time for grad    0.01 s
 E :    -50.43926935  G :  0.008009    pred/act E change: -0.435D-03 -0.469D-03
Maxdispl :   0.3350   ||displ|| :   0.5922   Lambda : -0.896D-03
Largest |displ|/coords:  0.3350 (   6)  0.3131 (   4)  0.1900 (   2)
................................................................................
.............................. CYCLE   56 ......................................
................................................................................
   1    -50.7274224 -0.507274E+02  0.363E-01    8.51       0.0  T
   2    -50.7274464 -0.240253E-04  0.268E-01    8.50       1.0  T
   3    -50.7274729 -0.264193E-04  0.241E-02    8.47       1.0  T
   4    -50.7274737 -0.804366E-06  0.854E-03    8.48       2.3  T
   5    -50.7274737 -0.597120E-07  0.367E-03    8.48       5.3  T
   6    -50.7274737 -0.216672E-07  0.111E-03    8.48      17.6  T
   7    -50.7274738 -0.314887E-08  0.337E-04    8.48      58.1  T
speedup  0.90
cpu  time for SCC    0.01 s
wall time for SCC    0.01 s
speedup  0.95
cpu  time for grad    0.01 s
wall time for grad    0.01 s
 E :    -50.43975828  G :  0.019900    pred/act E change: -0.396D-03 -0.489D-03
Maxdispl :   0.2291   ||displ|| :   0.3250   Lambda : -0.812D-03
Largest |displ|/coords:  0.2291 (   4)  0.1114 (  10)  0.1045 (   6)
................................................................................
.............................. CYCLE   57 ......................................
................................................................................
   1    -50.7316554 -0.507317E+02  0.120E-01    8.50       0.0  T
   2    -50.7316604 -0.499865E-05  0.883E-02    8.49       1.0  T
   3    -50.7316644 -0.398635E-05  0.131E-02    8.47       1.5  T
   4    -50.7316649 -0.479103E-06  0.387E-03    8.47       5.1  T
   5    -50.7316649 -0.240146E-07  0.148E-03    8.47      13.2  T
   6    -50.7316649 -0.294980E-08  0.675E-04    8.47      29.1  T
speedup  0.88
cpu  time for SCC    0.00 s
wall time for SCC    0.01 s
speedup  0.94
cpu  time for grad    0.01 s
wall time for grad    0.01 s
 E :    -50.44034398  G :  0.011545    pred/act E change: -0.605D-03 -0.586D-03
Maxdispl :   0.3965   ||displ|| :   0.5974   Lambda : -0.118D-02
Largest |displ|/coords:  0.3965 (   4)  0.3019 (   6)  0.2009 (   2)
................................................................................
.............................. CYCLE   58 ......................................
................................................................................
   1    -50.7349986 -0.507350E+02  0.213E-01    8.44       0.0  T
   2    -50.7350132 -0.145920E-04  0.158E-01    8.41       1.0  T
   3    -50.7350228 -0.955348E-05  0.242E-02    8.37       1.0  T
   4    -50.7350248 -0.199757E-05  0.706E-03    8.38       2.8  T
   5    -50.7350248 -0.669854E-07  0.289E-03    8.38       6.8  T
   6    -50.7350249 -0.113597E-07  0.126E-03    8.38      15.6  T
speedup  1.00
cpu  time for SCC    0.01 s
wall time for SCC    0.01 s
speedup  0.99
cpu  time for grad    0.01 s
wall time for grad    0.01 s
 E :    -50.44107819  G :  0.010950    pred/act E change: -0.449D-03 -0.734D-03
Maxdispl :   0.4776   ||displ|| :   0.7104   Lambda : -0.110D-02
Largest |displ|/coords:  0.4776 (   4)  0.3415 (   6)  0.2194 (   2)
................................................................................
.............................. CYCLE   59 ......................................
................................................................................
   1    -50.7289304 -0.507289E+02  0.306E-01    8.26       0.0  T
   2    -50.7289492 -0.188435E-04  0.225E-01    8.25       1.0  T
   3    -50.7289694 -0.201159E-04  0.197E-02    8.22       1.0  T
   4    -50.7289698 -0.432403E-06  0.695E-03    8.22       2.8  T
   5    -50.7289698 -0.387171E-07  0.272E-03    8.22       7.2  T
   6    -50.7289698 -0.947321E-08  0.984E-04    8.22      19.9  T
speedup  0.88
cpu  time for SCC    0.00 s
wall time for SCC    0.01 s
speedup  1.00
cpu  time for grad    0.01 s
wall time for grad    0.01 s
 E :    -50.44136072  G :  0.021639    pred/act E change: -0.801D-03 -0.283D-03
Maxdispl :   0.1253   ||displ|| :   0.2531   Lambda : -0.132D-02
Largest |displ|/coords:  0.1253 (  12)  0.0924 (   6)  0.0806 (   2)
................................................................................
.............................. CYCLE   60 ......................................
................................................................................
   1    -50.7343233 -0.507343E+02  0.134E-01    8.25       0.0  T
   2    -50.7343329 -0.957902E-05  0.983E-02    8.23       1.0  T
   3    -50.7343374 -0.446933E-05  0.167E-02    8.21       1.2  T
   4    -50.7343387 -0.138097E-05  0.433E-03    8.22       4.5  T
   5    -50.7343388 -0.211091E-07  0.183E-03    8.22      10.7  T
speedup  0.96
cpu  time for SCC    0.00 s
wall time for SCC    0.01 s
speedup  0.98
cpu  time for grad    0.01 s
wall time for grad    0.01 s
 E :    -50.44199317  G :  0.008928    pred/act E change: -0.830D-03 -0.632D-03
Maxdispl :   0.2502   ||displ|| :   0.3908   Lambda : -0.575D-03
Largest |displ|/coords:  0.2502 (   6)  0.1671 (   4)  0.1538 (   2)
................................................................................
.............................. CYCLE   61 ......................................
................................................................................
   1    -50.7324796 -0.507325E+02  0.173E-01    8.21       0.0  T
   2    -50.7324852 -0.562054E-05  0.129E-01    8.20       1.0  T
   3    -50.7324914 -0.620862E-05  0.125E-02    8.18       1.6  T
   4    -50.7324917 -0.328161E-06  0.469E-03    8.18       4.2  T
   5    -50.7324918 -0.257305E-07  0.178E-03    8.18      11.0  T
   6    -50.7324918 -0.521557E-08  0.596E-04    8.18      32.9  T
speedup  0.86
cpu  time for SCC    0.00 s
wall time for SCC    0.01 s
speedup  0.95
cpu  time for grad    0.01 s
wall time for grad    0.01 s
 E :    -50.44218816  G :  0.014925    pred/act E change: -0.704D-03 -0.195D-03
Maxdispl :   0.1264   ||displ|| :   0.2878   Lambda : -0.528D-03
Largest |displ|/coords:  0.1264 (   6)  0.1172 (   1)  0.1080 (   4)
................................................................................
.............................. CYCLE   62 ......................................
................................................................................
   1    -50.7330827 -0.507331E+02  0.126E-01    8.20       0.0  T
   2    -50.7330868 -0.416017E-05  0.935E-02    8.21       1.0  T
   3    -50.7330898 -0.299869E-05  0.113E-02    8.21       1.7  T
   4    -50.7330903 -0.474057E-06  0.304E-03    8.21       6.4  T
   5    -50.7330903 -0.117193E-07  0.134E-03    8.21      14.6  T
   6    -50.7330903 -0.227185E-08  0.484E-04    8.21      40.5  T
speedup  0.98
cpu  time for SCC    0.01 s
wall time for SCC    0.01 s
speedup  1.06
cpu  time for grad    0.01 s
wall time for grad    0.01 s
 E :    -50.44246703  G :  0.007461    pred/act E change: -0.331D-03 -0.279D-03
Maxdispl :   0.2038   ||displ|| :   0.3185   Lambda : -0.251D-03
Largest |displ|/coords:  0.2038 (   4)  0.1303 (   6)  0.0993 (  10)
................................................................................
.............................. CYCLE   63 ......................................
................................................................................
   1    -50.7323012 -0.507323E+02  0.101E-01    8.18       0.0  T
   2    -50.7323045 -0.332007E-05  0.752E-02    8.18       1.0  T
   3    -50.7323072 -0.262853E-05  0.987E-03    8.17       2.0  T
   4    -50.7323075 -0.371748E-06  0.292E-03    8.17       6.7  T
   5    -50.7323076 -0.105403E-07  0.118E-03    8.17      16.6  T
speedup  1.15
cpu  time for SCC    0.01 s
wall time for SCC    0.01 s
speedup  1.04
cpu  time for grad    0.01 s
wall time for grad    0.01 s
 E :    -50.44259724  G :  0.006276    pred/act E change: -0.286D-03 -0.130D-03
Maxdispl :   0.0774   ||displ|| :   0.1801   Lambda : -0.172D-03
Largest |displ|/coords:  0.0774 (   1)  0.0735 (   3)  0.0573 (   6)
................................................................................
.............................. CYCLE   64 ......................................
................................................................................
   1    -50.7339873 -0.507340E+02  0.625E-02    8.22       0.0  T
   2    -50.7339880 -0.781242E-06  0.470E-02    8.22       1.0  T
   3    -50.7339887 -0.689823E-06  0.512E-03    8.24       3.8  T
   4    -50.7339888 -0.758728E-07  0.191E-03    8.23      10.2  T
   5    -50.7339888 -0.629647E-08  0.585E-04    8.23      33.5  T
speedup  0.98
cpu  time for SCC    0.00 s
wall time for SCC    0.01 s
[...]
.............................. CYCLE  132 ......................................
................................................................................
   1    -50.7350732 -0.507351E+02  0.636E-02    8.11       0.0  T
   2    -50.7350736 -0.446959E-06  0.476E-02    8.12       1.0  T
   3    -50.7350741 -0.479137E-06  0.416E-03    8.12       4.7  T
   4    -50.7350741 -0.389687E-07  0.157E-03    8.12      12.5  T
   5    -50.7350741 -0.318625E-08  0.531E-04    8.12      36.9  T
   6    -50.7350741 -0.502276E-09  0.316E-04    8.12      62.1  T
speedup  0.98
cpu  time for SCC    0.01 s
wall time for SCC    0.01 s
speedup  1.00
cpu  time for grad    0.01 s
wall time for grad    0.01 s
 E :    -50.44363550  G :  0.001434    pred/act E change: -0.263D-05 -0.410D-05
Maxdispl :   0.0156   ||displ|| :   0.0280   Lambda : -0.741D-05
Largest |displ|/coords:  0.0156 (   2)  0.0100 (   9)  0.0082 (   3)
................................................................................
.............................. CYCLE  133 ......................................
................................................................................
   1    -50.7355362 -0.507355E+02  0.195E-02    8.13       0.0  T
   2    -50.7355363 -0.105447E-06  0.145E-02    8.13       1.4  T
   3    -50.7355364 -0.683425E-07  0.223E-03    8.13       8.8  T
   4    -50.7355364 -0.150380E-07  0.692E-04    8.13      28.3  T
   5    -50.7355364 -0.538442E-09  0.172E-04    8.13     114.2  T
speedup  0.98
cpu  time for SCC    0.00 s
wall time for SCC    0.01 s
speedup  0.99
cpu  time for grad    0.01 s
wall time for grad    0.01 s
 E :    -50.44363869  G :  0.001034    pred/act E change: -0.416D-05 -0.320D-05
Maxdispl :   0.0190   ||displ|| :   0.0363   Lambda : -0.218D-05
Largest |displ|/coords:  0.0190 (   4)  0.0180 (   3)  0.0117 (   2)
................................................................................
.............................. CYCLE  134 ......................................
................................................................................
   1    -50.7354074 -0.507354E+02  0.171E-02    8.12       0.0  T
   2    -50.7354075 -0.382959E-07  0.127E-02    8.13       1.5  T
   3    -50.7354075 -0.392607E-07  0.111E-03    8.13      17.6  T
   4    -50.7354075 -0.318131E-08  0.452E-04    8.13      43.4  T
   5    -50.7354075 -0.258588E-09  0.139E-04    8.13     140.8  T
speedup  1.00
cpu  time for SCC    0.00 s
wall time for SCC    0.00 s
speedup  1.01
cpu  time for grad    0.01 s
wall time for grad    0.01 s
 E :    -50.44364036  G :  0.000654    pred/act E change: -0.371D-05 -0.167D-05
Maxdispl :   0.0215   ||displ|| :   0.0396   Lambda : -0.239D-05
Largest |displ|/coords:  0.0215 (   4)  0.0162 (   3)  0.0140 (   1)
................................................................................
.............................. CYCLE  135 ......................................
................................................................................
   1    -50.7353759 -0.507354E+02  0.204E-02    8.12       0.0  T
   2    -50.7353760 -0.633809E-07  0.152E-02    8.12       1.3  T
   3    -50.7353760 -0.603021E-07  0.158E-03    8.12      12.4  T
   4    -50.7353760 -0.532131E-08  0.612E-04    8.12      32.0  T
   5    -50.7353761 -0.433388E-09  0.173E-04    8.12     113.3  T
speedup  0.94
cpu  time for SCC    0.00 s
wall time for SCC    0.01 s
speedup  0.98
cpu  time for grad    0.01 s
wall time for grad    0.01 s
 E :    -50.44364178  G :  0.000472    pred/act E change: -0.109D-05 -0.142D-05
Maxdispl :   0.0037   ||displ|| :   0.0104   Lambda : -0.634D-06
Largest |displ|/coords:  0.0037 (   7)  0.0036 (   1)  0.0031 (   3)
................................................................................
.............................. CYCLE  136 ......................................
................................................................................
   1    -50.7354677 -0.507355E+02  0.719E-03    8.12       0.0  T
   2    -50.7354677 -0.818967E-08  0.536E-03    8.12       3.7  T
   3    -50.7354678 -0.791313E-08  0.651E-04    8.12      30.1  T
   4    -50.7354678 -0.676813E-09  0.162E-04    8.12     121.1  T
speedup  0.91
cpu  time for SCC    0.00 s
wall time for SCC    0.00 s
speedup  0.96
cpu  time for grad    0.01 s
wall time for grad    0.01 s
 E :    -50.44364226  G :  0.000375    pred/act E change: -0.120D-05 -0.474D-06
Maxdispl :   0.0069   ||displ|| :   0.0169   Lambda : -0.647D-06
Largest |displ|/coords:  0.0069 (   6)  0.0064 (   1)  0.0061 (   4)
................................................................................
.............................. CYCLE  137 ......................................
................................................................................
   1    -50.7354954 -0.507355E+02  0.118E-02    8.12       0.0  T
   2    -50.7354955 -0.212996E-07  0.880E-03    8.12       2.2  T
   3    -50.7354955 -0.234097E-07  0.109E-03    8.12      18.0  T
   4    -50.7354955 -0.120914E-08  0.276E-04    8.12      71.0  T
   5    -50.7354955 -0.148418E-09  0.877E-05    8.12     223.6  T
speedup  0.96
cpu  time for SCC    0.00 s
wall time for SCC    0.01 s
speedup  0.98
cpu  time for grad    0.01 s
wall time for grad    0.01 s
 E :    -50.44364270  G :  0.000279    pred/act E change: -0.317D-06 -0.442D-06
Maxdispl :   0.0052   ||displ|| :   0.0132   Lambda : -0.408D-06
Largest |displ|/coords:  0.0052 (   3)  0.0052 (   6)  0.0046 (  14)
................................................................................
.............................. CYCLE  138 ......................................
................................................................................
   1    -50.7355098 -0.507355E+02  0.836E-03    8.12       0.0  T
   2    -50.7355098 -0.121227E-07  0.623E-03    8.12       3.1  T
   3    -50.7355098 -0.117111E-07  0.806E-04    8.12      24.3  T
   4    -50.7355098 -0.103972E-08  0.318E-04    8.12      61.6  T
speedup  1.14
cpu  time for SCC    0.00 s
wall time for SCC    0.00 s
speedup  1.02
cpu  time for grad    0.01 s
wall time for grad    0.01 s
 E :    -50.44364299  G :  0.000228    pred/act E change: -0.323D-06 -0.287D-06
Maxdispl :   0.0055   ||displ|| :   0.0109   Lambda : -0.267D-06
Largest |displ|/coords:  0.0055 (   3)  0.0040 (   2)  0.0039 (   6)
................................................................................
.............................. CYCLE  139 ......................................
................................................................................
   1    -50.7354883 -0.507355E+02  0.561E-03    8.12       0.0  T
   2    -50.7354883 -0.639258E-08  0.417E-03    8.12       4.7  T
   3    -50.7354883 -0.536318E-08  0.579E-04    8.12      33.9  T
   4    -50.7354883 -0.690449E-09  0.252E-04    8.12      77.9  T
speedup  0.98
cpu  time for SCC    0.00 s
wall time for SCC    0.00 s
speedup  1.00
cpu  time for grad    0.01 s
wall time for grad    0.01 s
 E :    -50.44364318  G :  0.000191    pred/act E change: -0.204D-06 -0.192D-06
Maxdispl :   0.0036   ||displ|| :   0.0078   Lambda : -0.129D-06
Largest |displ|/coords:  0.0036 (   3)  0.0035 (   2)  0.0032 (   6)
................................................................................
.............................. CYCLE  140 ......................................
................................................................................
   1    -50.7354572 -0.507355E+02  0.355E-03    8.12       0.0  T
   2    -50.7354572 -0.249868E-08  0.264E-03    8.12       7.4  T
   3    -50.7354572 -0.243570E-08  0.377E-04    8.12      52.0  T
   4    -50.7354572 -0.233278E-09  0.134E-04    8.12     146.8  T
speedup  0.95
cpu  time for SCC    0.00 s
wall time for SCC    0.00 s
speedup  0.97
cpu  time for grad    0.01 s
wall time for grad    0.01 s
 E :    -50.44364328  G :  0.000178    pred/act E change: -0.134D-06 -0.101D-06
Maxdispl :   0.0038   ||displ|| :   0.0074   Lambda : -0.871D-07
Largest |displ|/coords:  0.0038 (   2)  0.0035 (   3)  0.0025 (   6)
................................................................................
.............................. CYCLE  141 ......................................
................................................................................
   1    -50.7354406 -0.507354E+02  0.332E-03    8.12       0.0  T
   2    -50.7354406 -0.172525E-08  0.248E-03    8.12       7.9  T
   3    -50.7354406 -0.193798E-08  0.304E-04    8.12      64.5  T
   4    -50.7354406 -0.136176E-09  0.755E-05    8.12     259.6  T
speedup  1.00
cpu  time for SCC    0.00 s
wall time for SCC    0.00 s
speedup  0.99
cpu  time for grad    0.01 s
wall time for grad    0.01 s
 E :    -50.44364334  G :  0.000124    pred/act E change: -0.745D-07 -0.634D-07
Maxdispl :   0.0037   ||displ|| :   0.0073   Lambda : -0.734D-07
Largest |displ|/coords:  0.0037 (   3)  0.0032 (   2)  0.0026 (   6)

   *** GEOMETRY OPTIMIZATION CONVERGED AFTER 141 ITERATIONS ***

------------------------------------------------------------------------
 total energy gain (kcal):     -0.0836
------------------------------------------------------------------------
================
 final structure:
================
$coord
        0.75089076390597        0.90829238315827        4.24369222806213      S 
        3.11718220957682       -0.08573736632812        3.36229612838174      O 
        0.64692655034097        2.01871212833283        6.67452239523458      O 
       -0.22080905588470        2.83734834655869        2.20459194998000      O 
       -1.29478398794839       -1.17739554852866        4.03672314543850      O 
       -0.72996826011566       -2.48710474788222        2.77433184778449      H 
        1.27785739796061        3.55130765965413        1.28980937992613      H 
        0.16825996331686       -4.61771471251276        0.90347998333178      O 
        1.03026881447756       -5.85797396018514        1.90587113549117      H 
        1.52587106362057        1.58903049009263       -4.25364543235008      O 
        1.42590719304506        1.58133188785275       -6.06041177469629      H 
        3.28746478104465        4.66666529820411       -0.62229806803369      O 
        2.94224486130130        3.61796675113977       -2.11036904722495      H 
        2.87045620670112        6.37384013818795       -1.06902684078829      H 
        3.73650507129147       -2.08906652791329       -1.26062449760551      O 
        3.10006264941667       -0.84203330193754       -2.44880508436122      H 
        4.02366447100984       -1.19629467833334        0.32535254363788      H 
        1.52588676107374       -3.75985232350900       -0.11360736014961      H 
       -2.94594242111126        1.96180061885942       -2.26955331655310      O 
       -2.48391387548242        2.60387641046520       -0.62364382216505      H 
       -0.25465367178878        1.67030479572759       -3.60927863912147      H 
       -3.75031831533340        0.30944364305810       -1.91807968155210      H 
       -4.83470344296008       -2.46959011018107       -0.62345286208401      N 
       -3.36535522774272       -3.70123398379961       -0.63180164450628      H 
       -6.37236878382847       -3.37138031119081       -1.31650826307517      H 
       -5.17663169697435       -2.03454296004617        1.21043557816466      H 
$end
 
 Bond Distances (Angstroems)
 ---------------------------
S1-O2=1.4360         S1-O3=1.4153         S1-O4=1.5719         S1-O5=1.5498         O2-S1=1.4360         O3-S1=1.4153         
O4-S1=1.5719         O4-H7=1.0030         O5-S1=1.5498         O5-H6=1.0079         H6-O5=1.0079         H7-O4=1.0030         
O8-H9=0.9593         O8-H18=1.0059        H9-O8=0.9593         O10-H11=0.9576       O10-H21=1.0029       H11-O10=0.9576       
O12-H13=0.9805       O12-H14=0.9595       H13-O12=0.9805       H14-O12=0.9595       O15-H16=0.9717       O15-H17=0.9750       
H16-O15=0.9717       H17-O15=0.9750       H18-O8=1.0059        O19-H20=0.9663       O19-H22=0.9901       H20-O19=0.9663       
H21-O10=1.0029       H22-O19=0.9901       N23-H24=1.0146       N23-H25=1.0121       N23-H26=1.0137       H24-N23=1.0146       
H25-N23=1.0121       H26-N23=1.0137       
 N  H  Rav=1.0134 sigma=0.0010  Rmin=1.0121  Rmax=1.0146     3
 O  H  Rav=0.9817 sigma=0.0187  Rmin=0.9576  Rmax=1.0079    12
 S  O  Rav=1.4933 sigma=0.0684  Rmin=1.4153  Rmax=1.5719     4
 
 selected bond angles (degree)
 --------------------
O3-S1-O2=118.76                O4-S1-O2=107.47                O4-S1-O3=109.97                O5-S1-O2=108.98                
O5-S1-O3=109.44                O5-S1-O4=100.69                H7-O4-S1=108.50                H6-O5-S1=109.23                
H18-O8-H9=105.37               H21-O10-H11=106.72             
 
 selected dihedral angles (degree)
 ---------------------------------
H7-O4-S1-O2=332.65            H7-O4-S1-O3=103.27            H7-O4-S1-O5=218.67            H6-O5-S1-O2=338.87            
H6-O5-S1-O3=207.50            H6-O5-S1-O4= 91.70            
 
 CMA Distance (Angstroems)
 ---------------------------
R(CMA):  2.9401

========================================================================
 FINAL SINGLEPOINT CALCULATION ON OPTIMIZED GEOMETRY
========================================================================

 Ncao       : 65
 Nao        : 64
 Nshell     : 38
 Nel        : 80
 T(el)      :   300.0
 intcut     :    25.0
 scfconv/Eh :  0.100E-05
   qconv/e  :  0.100E-03
 intneglect :  0.100E-07
 broydamp   :      0.250
 iter      E             dE          RMSdq      gap      omega  full diag
   1    -50.7354406 -0.507354E+02  0.301E-05    8.12       0.0  T
   2    -50.7354406 -0.767386E-12  0.190E-05    8.12    1032.1  T
   3    -50.7354406 -0.319744E-12  0.386E-06    8.12    5074.8  T
speedup  1.00
cpu  time for SCC    0.00 s
wall time for SCC    0.00 s

   *** convergence criteria satisfied after 3 iterations ***

          eigenvalues
 #    :          28         29         30         31         32         33         34         35
 occ. :        2.000      2.000      2.000      2.000      2.000      2.000      2.000      2.000
 eps  :       -13.647    -13.501    -13.215    -12.740    -12.642    -12.522    -12.494    -12.457
 #    :          36         37         38         39         40         41         42         43
 occ. :        2.000      2.000      2.000      2.000      2.000      0.000      0.000      0.000
 eps  :       -12.254    -11.996    -11.961    -11.887    -11.170     -3.053     -0.905     -0.722
 #    :          44         45         46         47         48         49         50         51
 occ. :        0.000      0.000      0.000      0.000      0.000      0.000      0.000      0.000
 eps  :         0.095      0.597      1.195      1.660      2.770      3.962      4.200      5.347


   #   Z            q   n(s)   n(p)   n(d)      C6AA      α(0)
   1  16 S      1.667  1.580  1.799  0.954    89.526    15.925
   2   8 O     -0.701  1.760  4.941  0.000    28.738     7.187
   3   8 O     -0.639  1.755  4.884  0.000    27.093     6.979
   4   8 O     -0.631  1.756  4.876  0.000    25.916     6.872
   5   8 O     -0.608  1.753  4.855  0.000    25.353     6.797
   6   1 H      0.390  0.610  0.000  0.000     0.501     1.111
   7   1 H      0.389  0.611  0.000  0.000     0.503     1.112
   8   8 O     -0.626  1.758  4.868  0.000    25.809     6.857
   9   1 H      0.295  0.705  0.000  0.000     0.735     1.347
  10   8 O     -0.639  1.753  4.887  0.000    26.150     6.902
  11   1 H      0.287  0.713  0.000  0.000     0.763     1.372
  12   8 O     -0.596  1.753  4.844  0.000    25.097     6.761
  13   1 H      0.344  0.656  0.000  0.000     0.603     1.220
  14   1 H      0.300  0.700  0.000  0.000     0.722     1.334
  15   8 O     -0.622  1.754  4.867  0.000    25.707     6.843
  16   1 H      0.320  0.680  0.000  0.000     0.663     1.279
  17   1 H      0.326  0.674  0.000  0.000     0.648     1.265
  18   1 H      0.349  0.651  0.000  0.000     0.592     1.209
  19   8 O     -0.625  1.752  4.873  0.000    25.791     6.854
  20   1 H      0.306  0.694  0.000  0.000     0.704     1.318
  21   1 H      0.343  0.657  0.000  0.000     0.605     1.222
  22   1 H      0.318  0.682  0.000  0.000     0.670     1.286
  23   7 N     -0.449  1.371  4.078  0.000    31.803     8.375
  24   1 H      0.184  0.816  0.000  0.000     1.189     1.708
  25   1 H      0.154  0.846  0.000  0.000     1.377     1.838
  26   1 H      0.166  0.834  0.000  0.000     1.297     1.784

 Mol. C6AA /au·bohr⁶  :       5447.206941
 Mol. C8AA /au·bohr⁸  :     117659.036966
 Mol. α(0) /au        :        106.757141

 
 Wiberg/Mayer (AO) data. WBOs > 0.1 written file <wbo>
 largest (>0.05) Wiberg bond orders for each atom
           total WBO             WBO to atom ...
     1  S   4.881    O    3 1.507    O    2 1.392    O    5 1.006    O    4 0.941
     2  O   1.753    S    1 1.392    O    3 0.125    O    5 0.091    O    4 0.089
     3  O   1.819    S    1 1.507    O    2 0.125    O    4 0.089    O    5 0.081
     4  O   1.959    S    1 0.941    H    7 0.711    O    2 0.089    O    3 0.089    O    5 0.053
     5  O   1.985    S    1 1.006    H    6 0.700    O    2 0.091    O    3 0.081    O    4 0.053
     6  H   0.848    O    5 0.700    O    8 0.129
     7  H   0.849    O    4 0.711    O   12 0.120
     8  O   1.918    H    9 0.908    H   18 0.765    H    6 0.129
     9  H   0.913    O    8 0.908
    10  O   1.867    H   11 0.908    H   21 0.776    H   13 0.054
    11  H   0.918    O   10 0.908
    12  O   1.930    H   14 0.908    H   13 0.825    H    7 0.120
    13  H   0.882    O   12 0.825    O   10 0.054
    14  H   0.910    O   12 0.908
    15  O   1.910    H   16 0.854    H   17 0.852    H   18 0.110
    16  H   0.897    O   15 0.854
    17  H   0.894    O   15 0.852
    18  H   0.878    O    8 0.765    O   15 0.110
    19  O   1.899    H   20 0.881    H   22 0.812    H   21 0.104
    20  H   0.907    O   19 0.881
    21  H   0.882    O   10 0.776    O   19 0.104
    22  H   0.899    O   19 0.812    N   23 0.084
    23  N   3.030    H   25 0.973    H   26 0.969    H   24 0.952    H   22 0.084
    24  H   0.966    N   23 0.952
    25  H   0.976    N   23 0.973
    26  H   0.972    N   23 0.969
 MOs/occ written to file <molden.input>
 
molecular dipole:
                 x           y           z       tot (Debye)
 q only:       -0.633      -0.269      -1.899
   full:       -0.854      -0.405      -1.904       5.404
molecular quadrupole (traceless):
                xx          xy          yy          xz          yz          zz
 q only:       -1.702       5.661      12.961      -3.139     -10.365     -11.260
  q+dip:       -3.397       8.047      15.792      -5.059     -13.118     -12.395
   full:       -3.736       8.232      15.916      -4.978     -13.218     -12.180

SCC energy    :     -50.7354406
rep           :       0.2913859
ES            :       0.2337055
AES           :      -0.0477305
AXC           :      -0.0061249
disp          :      -0.0184647
XB            :       0.0000000
fix           :       0.0000000
total E       :     -50.4436433
atomizationE  :       4.9739475     3121.20
(atE without considering molecular charge,
 total energy contains solvation terms)
H-L gap (eV)  :          8.1169
optimized geometry written to: xtbopt.xyz


------------------------------------------------------------------------
 * finished run on 2019/09/16 at 12:30:14.526     
------------------------------------------------------------------------
 total:
 * wall-time:     0 d,  0 h,  0 min,  3.369 sec
 *  cpu-time:     0 d,  0 h,  0 min,  3.260 sec
 * ratio c/w:     0.968 speedup
 SCF:
 * wall-time:     0 d,  0 h,  0 min,  0.159 sec
 *  cpu-time:     0 d,  0 h,  0 min,  0.155 sec
 * ratio c/w:     0.975 speedup
 ANC optimizer:
 * wall-time:     0 d,  0 h,  0 min,  3.181 sec
 *  cpu-time:     0 d,  0 h,  0 min,  3.080 sec
 * ratio c/w:     0.968 speedup

