      -----------------------------------------------------------      
     |                   =====================                   |     
     |                           x T B                           |     
     |                   =====================                   |     
     |                         S. Grimme                         |     
     |          Mulliken Center for Theoretical Chemistry        |     
     |                    University of Bonn                     |     
     |                 Version 6.0.1 (SAW181210)                 |     
      -----------------------------------------------------------      

   This program is distributed in the hope that it will be useful,
   but WITHOUT ANY WARRANTY; without even the implied warranty of
   MERCHANTABILITY or FITNESS FOR A PARTICULAR PURPOSE.
   
   FOR NON-COMMERCIAL, ACADEMIA USE ONLY.
   
   Cite this work as:
   S. Grimme, C. Bannwarth, P. Shushkov, J. Comput. Theory Chem., 2017,
   13, 1989-2009.
   C. Bannwarth, S. Ehlert and S. Grimme., ChemRxiv, 2018, preprint.
   http://doi.org/10.26434/chemrxiv.7246238.v1
   
   for sTDA-xTB:
   S. Grimme and C. Bannwarth, J. Chem. Phys., 2016, 145, 054103.
   
   in the mass-spec context:
   V. Asgeirsson, C. Bauer and S. Grimme, Chem. Sci., 2017, 8, 4879.
   
   if GBSA is used:
   P. Shushkov, F. März and S. Grimme, unpublished.
   
   for ANC optimizer:
   S. Grimme, unpublished.
   Rational Function algorithm used in ANCopt:
   F. Eckert, P. Pulay, H.-J. Werner, J. Comput. Chem., 1997, 18, 1473.
   
   with help from (in alphabetical order)
   C. Bannwarth, F. Bohle, G. Brandenburg, E. Caldeweyher, M. Checinski,
   S. Dohm, S. Ehlert, S. Ehrlich, F. März, H. Neugebauer, J. Pisarek,
   P. Pracht, P. Shushkov, and S. Spicher.
   
 * started run on 2019/09/16 at 12:33:02.786     
========================================================================
 # omp threads = 1
========================================================================
number of atoms            : 26
number of electrons        : 80
charge                     : 0
spin                       : .0
first test random number   : .6103

########################################################################
# WARNING! Please study the warnings concerning your input carefully
#  - XTBPATH is not set, using XTBHOME instead
#  - the use of '-opt' is discouraged, please use '--opt' next time
#  - the use of '-chrg' is discouraged, please use '--chrg' next time
#  - the use of '-uhf' is discouraged, please use '--uhf' next time
########################################################################

           ------------------------------------------------- 
          |                 G F N 2 - x T B                 |
          | Geometry, Frequencies, Noncovalent interactions |
          |            JCTC 2018 parametrisation            |
           ------------------------------------------------- 
      method parameters     
 k(s)        :  1.8500
 k(p)        :  2.2300
 k(d)        :  2.2300
 k(f)        :  2.0000
 kEN (H0ij)  : -2.0000
 D4 a1       :  0.5200
 D4 a2       :  5.0000
 D4 s6       :  1.0000
 D4 s8       :  2.7000
 D4 s9       :  5.0000
 alphaj      :  2.0000


            Z     q(EN)     CN     RAES       Cart. coordinates
     1  S   6.0    0.58    4.28    4.20     0.29080    -2.04180    -4.41068
     2  O   6.0   -0.32    1.13    1.80     2.23464    -2.49857    -2.51482
     3  O   6.0   -0.30    1.13    1.80    -2.36379    -2.45811    -3.94439
     4  O   6.0   -0.24    2.06    1.83     0.74429     0.81388    -5.49920
     5  O   6.0   -0.23    2.04    1.83     0.92114    -3.55614    -6.97528
     6  H   1.0    0.14    1.11    1.45     2.72902    -3.46522    -7.30639
     7  H   1.0    0.18    1.29    1.49     1.41592     1.82328    -4.11486
     8  O   6.0   -0.39    1.61    1.81     0.98418     0.92675     4.59095
     9  H   1.0    0.17    0.94    1.42     1.08323     0.96084     6.45449
    10  O   6.0   -0.39    1.69    1.81     2.11254     3.20736    -1.73726
    11  H   1.0    0.17    0.95    1.42     2.81329     4.77335    -2.47235
    12  O   6.0   -0.29    2.05    1.83    -4.57392     0.23256    -0.02280
    13  H   1.0    0.15    1.04    1.43    -4.36719    -0.96274     1.33481
    14  H   1.0    0.17    1.00    1.43    -4.58323    -0.76528    -1.54557
    15  O   6.0   -0.23    2.93    2.62     4.02475     0.39638     1.28814
    16  H   1.0    0.14    0.99    1.43     3.92579    -1.30667     0.52677
    17  H   1.0    0.16    1.17    1.46     3.58651     1.73751     0.06367
    18  H   1.0    0.16    1.20    1.47     3.01304     0.52213     2.85406
    19  O   6.0   -0.23    2.94    2.63    -1.15627     3.42408     1.45860
    20  H   1.0    0.14    1.05    1.44    -2.71470     2.56644     0.88801
    21  H   1.0    0.16    1.19    1.46    -0.40599     2.59180     2.95339
    22  H   1.0    0.16    1.17    1.46     0.08175     3.61956     0.07274
    23  N   5.0   -0.22    3.02    1.93    -2.74157    -2.54102     4.04185
    24  H   1.0    0.11    0.99    1.43    -1.93065    -4.28783     4.08803
    25  H   1.0    0.10    0.99    1.43    -3.82319    -2.42421     5.63167
    26  H   1.0    0.13    1.06    1.44    -1.30039    -1.28834     4.29644

  Z AO/shell   Hii/eV     exponent
  1     Wed Apr 25 08:07:45 CEST 2018   EN: 2.200 GM2: 0.406  GM3: 0.0800  RAES: 1.40
     1s    -10.707211    1.230000
  7     Wed Apr 25 08:07:45 CEST 2018   EN: 3.040 GM2: 0.461  GM3:-0.0640  RAES: 1.90
     2s    -16.686243    2.339881
     2p    -12.523956    2.014332
  8     Wed Apr 25 08:07:45 CEST 2018   EN: 3.440 GM2: 0.452  GM3:-0.0517  RAES: 1.80
     2s    -20.229985    2.439742
     2p    -15.503117    2.137023
 16     Tue Apr 24 11:44:34 CEST 2018   EN: 2.580 GM2: 0.340  GM3:-0.0502  RAES: 3.10
     3s    -20.029654    1.981333
     3p    -11.377694    2.025643
     3d     -0.420282    1.702555
 no old-style atom pair restraining (fixing) potential

molecular fragmentation (1/2 indicates fragments):
11111112222222222222222222
# atoms in fragment 1/2:     7    19
 fragment masses (1/2) :       98.07      107.11
CMA distance (Bohr)    :   6.905
constraining FC (au)   :  0.0500
           ------------------------------------------------- 
          |        Self-Consistent Charge Iterations        |
           ------------------------------------------------- 

 Ncao       : 65
 Nao        : 64
 Nshell     : 38
 Nel        : 80
 T(el)      :   300.0
 intcut     :    25.0
 scfconv/Eh :  0.100E-05
   qconv/e  :  0.100E-03
 intneglect :  0.100E-07
 broydamp   :      0.250
 iter      E             dE          RMSdq      gap      omega  full diag
   1    -50.5310947 -0.505311E+02  0.713E+00    7.82       0.0  T
   2    -50.5823869 -0.512922E-01  0.501E+00    6.75       1.0  T
   3    -50.6218455 -0.394586E-01  0.123E+00    4.29       1.0  T
   4    -50.6262223 -0.437682E-02  0.620E-01    4.48       1.0  T
   5    -50.6273441 -0.112173E-02  0.295E-01    4.48       1.0  T
   6    -50.6277646 -0.420535E-03  0.159E-01    4.53       1.0  T
   7    -50.6279115 -0.146961E-03  0.566E-02    4.54       1.0  T
   8    -50.6279314 -0.198749E-04  0.273E-02    4.53       1.0  T
   9    -50.6279354 -0.393575E-05  0.124E-02    4.54       1.6  T
  10    -50.6279362 -0.822901E-06  0.268E-03    4.55       7.3  T
  11    -50.6279362 -0.192168E-07  0.130E-03    4.55      15.0  T
  12    -50.6279362 -0.579439E-08  0.558E-04    4.55      35.1  T
  13    -50.6279362 -0.127851E-08  0.196E-04    4.55     100.0  T
speedup  1.04
cpu  time for SCC    0.02 s
wall time for SCC    0.02 s

   *** convergence criteria satisfied after 13 iterations ***

          eigenvalues
 #    :          28         29         30         31         32         33         34         35
 occ. :        2.000      2.000      2.000      2.000      2.000      2.000      2.000      2.000
 eps  :       -13.089    -13.044    -13.005    -12.809    -12.735    -12.582    -12.467    -11.577
 #    :          36         37         38         39         40         41         42         43
 occ. :        2.000      2.000      2.000      2.000      2.000      0.000      0.000      0.000
 eps  :       -10.840    -10.715    -10.341    -10.079     -9.604     -5.057     -2.381     -1.056
 #    :          44         45         46         47         48         49         50         51
 occ. :        0.000      0.000      0.000      0.000      0.000      0.000      0.000      0.000
 eps  :        -0.356      0.236      1.583      2.431      2.593      3.208      3.842      4.251


   #   Z            q   n(s)   n(p)   n(d)      C6AA      α(0)
   1  16 S      1.655  1.629  1.795  0.921    89.786    15.948
   2   8 O     -0.673  1.764  4.909  0.000    27.989     7.093
   3   8 O     -0.623  1.765  4.858  0.000    26.688     6.926
   4   8 O     -0.620  1.773  4.847  0.000    25.642     6.836
   5   8 O     -0.559  1.755  4.804  0.000    24.201     6.641
   6   1 H      0.351  0.649  0.000  0.000     0.585     1.200
   7   1 H      0.383  0.617  0.000  0.000     0.513     1.123
   8   8 O     -0.862  1.822  5.040  0.000    33.454     7.757
   9   1 H      0.197  0.803  0.000  0.000     1.136     1.674
  10   8 O     -0.848  1.835  5.013  0.000    33.020     7.706
  11   1 H      0.218  0.782  0.000  0.000     1.033     1.597
  12   8 O     -0.620  1.730  4.890  0.000    25.673     6.839
  13   1 H      0.320  0.680  0.000  0.000     0.664     1.280
  14   1 H      0.309  0.691  0.000  0.000     0.694     1.309
  15   8 O     -0.462  1.663  4.799  0.000    22.027     6.339
  16   1 H      0.372  0.628  0.000  0.000     0.540     1.155
  17   1 H      0.401  0.599  0.000  0.000     0.479     1.085
  18   1 H      0.403  0.597  0.000  0.000     0.473     1.076
  19   8 O     -0.490  1.671  4.820  0.000    22.624     6.424
  20   1 H      0.385  0.615  0.000  0.000     0.513     1.125
  21   1 H      0.399  0.601  0.000  0.000     0.481     1.087
  22   1 H      0.389  0.611  0.000  0.000     0.500     1.109
  23   7 N     -0.486  1.410  4.076  0.000    32.910     8.520
  24   1 H      0.127  0.873  0.000  0.000     1.567     1.961
  25   1 H      0.128  0.872  0.000  0.000     1.562     1.958
  26   1 H      0.208  0.792  0.000  0.000     1.068     1.619

 Mol. C6AA /au·bohr⁶  :       5525.310858
 Mol. C8AA /au·bohr⁸  :     119340.513072
 Mol. α(0) /au        :        107.385421

 
 Wiberg/Mayer (AO) data. WBOs > 0.1 written file <wbo>
 largest (>0.05) Wiberg bond orders for each atom
           total WBO             WBO to atom ...
     1  S   4.757    O    3 1.461    O    2 1.390    O    4 0.949    O    5 0.925
     2  O   1.756    S    1 1.390    O    3 0.142    O    4 0.105    O    5 0.087
     3  O   1.820    S    1 1.461    O    2 0.142    O    4 0.103    O    5 0.074
     4  O   1.950    S    1 0.949    H    7 0.681    O    2 0.105    O    3 0.103    O    5 0.056    O   10 0.051
     5  O   2.008    S    1 0.925    H    6 0.858    O    2 0.087    O    3 0.074    O    4 0.056
     6  H   0.877    O    5 0.858
     7  H   0.854    O    4 0.681    O   10 0.156
     8  O   1.568    H    9 0.943    H   18 0.195    H   21 0.180    H   26 0.075    O   15 0.060    O   19 0.057
     9  H   0.961    O    8 0.943
    10  O   1.634    H   11 0.945    H   17 0.175    H   22 0.173    H    7 0.156    O   19 0.058    O   15 0.057    O    4 0.051
    11  H   0.953    O   10 0.945
    12  O   1.876    H   14 0.877    H   13 0.846    H   20 0.082
    13  H   0.898    O   12 0.846
    14  H   0.905    O   12 0.877
    15  O   2.272    H   16 0.832    H   17 0.659    H   18 0.637    O    8 0.060    O   10 0.057
    16  H   0.862    O   15 0.832
    17  H   0.840    O   15 0.659    O   10 0.175
    18  H   0.837    O   15 0.637    O    8 0.195
    19  O   2.254    H   20 0.762    H   22 0.671    H   21 0.656    O   10 0.058    O    8 0.057
    20  H   0.852    O   19 0.762    O   12 0.082
    21  H   0.841    O   19 0.656    O    8 0.180
    22  H   0.849    O   19 0.671    O   10 0.173
    23  N   2.963    H   25 0.982    H   24 0.980    H   26 0.879
    24  H   0.984    N   23 0.980
    25  H   0.984    N   23 0.982
    26  H   0.957    N   23 0.879    O    8 0.075
 MOs/occ written to file <molden.input>
 
molecular dipole:
                 x           y           z       tot (Debye)
 q only:        1.154      -0.076       0.012
   full:        1.528      -0.458       0.208       4.089
molecular quadrupole (traceless):
                xx          xy          yy          xz          yz          zz
 q only:        3.742      -5.089       1.698      -9.103       1.236      -5.440
  q+dip:       -1.833      -3.433       0.795     -12.091      -1.480       1.038
   full:       -2.438      -3.307       1.033     -12.467      -1.304       1.405

SCC energy    :     -50.6279362
rep           :       0.2714174
ES            :       0.2746001
AES           :      -0.0495708
AXC           :      -0.0032808
disp          :      -0.0179177
XB            :       0.0000000
fix           :       0.0000000
total E       :     -50.3561481
atomizationE  :       4.8864523     3066.30
(atE without considering molecular charge,
 total energy contains solvation terms)
H-L gap (eV)  :          4.5471
           ------------------------------------------------- 
          |                 ===============                 |
          |                   A N C O P T                   |
          |                 ===============                 |
          |          Approximate Normal Coordinate          |
          |           Rational Function Optimizer           |
           ------------------------------------------------- 
dumping coords to <xtbopt.coord> and <xtbopt.log>
 optlevel               2
 Maxcycle             520
 Maxmicro              25
 Econv         1.000000000000000E-007
 Gconv         2.000000000000000E-004
 Maxdispl       1.00000000000000     
 Hlow          5.000000000000000E-003
 S6             20.0000000000000     
 Nvar               72

generating ANC from model Hessian ...
 Shifting diagonal of input Hessian by   4.982640500543270E-003
 Lowest  eigenvalues of input Hessian
   -0.000000   -0.000000   -0.000000   -0.000000    0.000000    0.000000
    0.005000    0.005373    0.005683    0.006305    0.006678    0.006995
    0.007531    0.008144    0.009067    0.009321    0.010226    0.010941
 Highest eigenvalues
    1.574970    1.594999    1.599080    1.951922    2.767711    3.589343
 
cpu  time for ANC gen    0.02 s
wall time for ANC gen    0.02 s
................................................................................
.............................. CYCLE    1 ......................................
................................................................................
   1    -50.6279362 -0.506279E+02  0.484E-05    4.55       0.0  T
   2    -50.6279362 -0.349587E-11  0.368E-05    4.55     533.4  T
   3    -50.6279362 -0.219558E-11  0.159E-05    4.55    1235.9  T
speedup  1.00
cpu  time for SCC    0.00 s
wall time for SCC    0.00 s
speedup  1.04
cpu  time for grad    0.01 s
wall time for grad    0.01 s
 E :    -50.35614811  G :  0.193185    pred/act E change:  0.000D+00  0.228D-07
Maxdispl :   0.1232   ||displ|| :   0.2923   Lambda : -0.371D-01
Largest |displ|/coords:  0.1232 (  54)  0.1024 (  24)  0.1023 (  14)
................................................................................
.............................. CYCLE    2 ......................................
................................................................................
   1    -50.6447136 -0.506447E+02  0.381E-01    5.25       0.0  T
   2    -50.6449367 -0.223147E-03  0.285E-01    5.32       1.0  T
   3    -50.6450466 -0.109855E-03  0.692E-02    5.45       1.0  T
   4    -50.6450664 -0.197782E-04  0.279E-02    5.44       1.0  T
   5    -50.6450686 -0.224437E-05  0.677E-03    5.43       2.9  T
   6    -50.6450687 -0.888073E-07  0.375E-03    5.43       5.2  T
   7    -50.6450687 -0.289689E-07  0.131E-03    5.43      15.0  T
speedup  1.03
cpu  time for SCC    0.01 s
wall time for SCC    0.01 s
speedup  1.01
cpu  time for grad    0.01 s
wall time for grad    0.01 s
 E :    -50.38498270  G :  0.111544    pred/act E change:  0.000D+00 -0.288D-01
Maxdispl :   0.1772   ||displ|| :   0.3206   Lambda : -0.176D-01
Largest |displ|/coords:  0.1772 (  14)  0.1048 (  19)  0.0984 (  24)
................................................................................
.............................. CYCLE    3 ......................................
................................................................................
   1    -50.6519810 -0.506520E+02  0.351E-01    6.03       0.0  T
   2    -50.6523092 -0.328180E-03  0.255E-01    6.10       1.0  T
   3    -50.6524509 -0.141647E-03  0.803E-02    6.23       1.0  T
   4    -50.6524699 -0.189810E-04  0.230E-02    6.23       1.0  T
   5    -50.6524711 -0.126750E-05  0.569E-03    6.22       3.4  T
   6    -50.6524712 -0.655284E-07  0.323E-03    6.22       6.1  T
speedup  0.98
cpu  time for SCC    0.01 s
wall time for SCC    0.01 s
speedup  0.98
cpu  time for grad    0.01 s
wall time for grad    0.01 s
 E :    -50.39936210  G :  0.073757    pred/act E change: -0.202D-01 -0.144D-01
Maxdispl :   0.2218   ||displ|| :   0.3540   Lambda : -0.988D-02
Largest |displ|/coords:  0.2218 (  14)  0.1018 (  19)  0.0791 (  28)
................................................................................
.............................. CYCLE    4 ......................................
................................................................................
   1    -50.6565606 -0.506566E+02  0.316E-01    6.65       0.0  T
   2    -50.6569135 -0.352864E-03  0.223E-01    6.71       1.0  T
   3    -50.6570620 -0.148505E-03  0.796E-02    6.81       1.0  T
   4    -50.6570767 -0.147187E-04  0.177E-02    6.82       1.1  T
   5    -50.6570774 -0.684243E-06  0.561E-03    6.82       3.5  T
   6    -50.6570775 -0.617553E-07  0.308E-03    6.82       6.4  T
speedup  0.86
cpu  time for SCC    0.00 s
wall time for SCC    0.01 s
speedup  0.94
cpu  time for grad    0.01 s
wall time for grad    0.01 s
 E :    -50.40744524  G :  0.055340    pred/act E change: -0.973D-02 -0.808D-02
Maxdispl :   0.1430   ||displ|| :   0.3060   Lambda : -0.570D-02
Largest |displ|/coords:  0.1430 (  14)  0.0946 (  16)  0.0809 (  11)
................................................................................
.............................. CYCLE    5 ......................................
................................................................................
   1    -50.6612100 -0.506612E+02  0.210E-01    7.09       0.0  T
   2    -50.6613884 -0.178341E-03  0.148E-01    7.14       1.0  T
   3    -50.6614634 -0.749988E-04  0.552E-02    7.22       1.0  T
   4    -50.6614701 -0.674664E-05  0.125E-02    7.23       1.6  T
   5    -50.6614704 -0.308589E-06  0.424E-03    7.22       4.6  T
   6    -50.6614705 -0.279535E-07  0.213E-03    7.22       9.2  T
speedup  0.86
cpu  time for SCC    0.01 s
wall time for SCC    0.01 s
speedup  0.99
cpu  time for grad    0.01 s
wall time for grad    0.01 s
 E :    -50.41208119  G :  0.040301    pred/act E change: -0.556D-02 -0.464D-02
Maxdispl :   0.3717   ||displ|| :   0.5751   Lambda : -0.835D-02
Largest |displ|/coords:  0.3717 (  14)  0.1479 (  19)  0.1421 (  18)
................................................................................
.............................. CYCLE    6 ......................................
................................................................................
   1    -50.6597260 -0.506597E+02  0.546E-01    7.62       0.0  T
   2    -50.6608701 -0.114410E-02  0.378E-01    7.71       1.0  T
   3    -50.6613261 -0.456019E-03  0.143E-01    7.85       1.0  T
   4    -50.6613729 -0.468211E-04  0.261E-02    7.88       1.0  T
   5    -50.6613742 -0.126197E-05  0.128E-02    7.88       1.5  T
   6    -50.6613746 -0.417851E-06  0.509E-03    7.88       3.9  T
   7    -50.6613747 -0.503822E-07  0.171E-03    7.88      11.4  T
speedup  0.90
cpu  time for SCC    0.01 s
wall time for SCC    0.01 s
speedup  1.01
cpu  time for grad    0.01 s
wall time for grad    0.01 s
 E :    -50.41596248  G :  0.063094    pred/act E change: -0.312D-02 -0.388D-02
Maxdispl :   0.0981   ||displ|| :   0.3170   Lambda : -0.836D-02
Largest |displ|/coords:  0.0981 (  20)  0.0976 (   1)  0.0962 (  19)
................................................................................
.............................. CYCLE    7 ......................................
................................................................................
   1    -50.6750019 -0.506750E+02  0.380E-01    7.87       0.0  T
   2    -50.6751942 -0.192301E-03  0.279E-01    7.88       1.0  T
   3    -50.6753174 -0.123179E-03  0.742E-02    7.90       1.0  T
   4    -50.6753369 -0.195312E-04  0.168E-02    7.90       1.2  T
   5    -50.6753376 -0.670347E-06  0.801E-03    7.90       2.4  T
   6    -50.6753376 -0.504358E-07  0.332E-03    7.90       5.9  T
   7    -50.6753377 -0.276923E-07  0.733E-04    7.90      26.8  T
speedup  1.00
cpu  time for SCC    0.01 s
wall time for SCC    0.01 s
speedup  0.99
cpu  time for grad    0.01 s
wall time for grad    0.02 s
 E :    -50.41633650  G :  0.074911    pred/act E change: -0.556D-02 -0.374D-03
Maxdispl :   0.1694   ||displ|| :   0.3388   Lambda : -0.970D-02
Largest |displ|/coords:  0.1694 (  14)  0.1418 (  13)  0.1109 (   5)
................................................................................
.............................. CYCLE    8 ......................................
................................................................................
   1    -50.6620820 -0.506621E+02  0.402E-01    7.84       0.0  T
   2    -50.6623764 -0.294358E-03  0.291E-01    7.86       1.0  T
   3    -50.6625271 -0.150681E-03  0.897E-02    7.91       1.0  T
   4    -50.6625528 -0.257132E-04  0.190E-02    7.91       1.0  T
   5    -50.6625534 -0.567387E-06  0.806E-03    7.91       2.4  T
   6    -50.6625536 -0.236073E-06  0.458E-03    7.91       4.3  T
   7    -50.6625536 -0.266148E-07  0.810E-04    7.91      24.2  T
speedup  1.04
cpu  time for SCC    0.01 s
wall time for SCC    0.01 s
speedup  0.99
cpu  time for grad    0.01 s
wall time for grad    0.02 s
 E :    -50.41908481  G :  0.061850    pred/act E change: -0.460D-02 -0.275D-02
Maxdispl :   0.0940   ||displ|| :   0.2586   Lambda : -0.648D-02
Largest |displ|/coords:  0.0940 (  29)  0.0893 (   1)  0.0876 (  23)
................................................................................
.............................. CYCLE    9 ......................................
................................................................................
   1    -50.6779995 -0.506780E+02  0.298E-01    8.03       0.0  T
   2    -50.6780718 -0.722768E-04  0.223E-01    8.05       1.0  T
   3    -50.6781277 -0.559334E-04  0.468E-02    8.11       1.0  T
   4    -50.6781354 -0.770483E-05  0.142E-02    8.11       1.4  T
   5    -50.6781357 -0.299241E-06  0.546E-03    8.11       3.6  T
   6    -50.6781357 -0.308997E-07  0.278E-03    8.10       7.1  T
speedup  0.94
cpu  time for SCC    0.01 s
wall time for SCC    0.01 s
speedup  1.01
cpu  time for grad    0.01 s
wall time for grad    0.01 s
 E :    -50.42088656  G :  0.050570    pred/act E change: -0.541D-02 -0.180D-02
Maxdispl :   0.1346   ||displ|| :   0.2893   Lambda : -0.560D-02
Largest |displ|/coords:  0.1346 (   7)  0.1021 (  24)  0.0742 (  14)
................................................................................
.............................. CYCLE   10 ......................................
................................................................................
   1    -50.6700077 -0.506700E+02  0.314E-01    8.02       0.0  T
   2    -50.6701006 -0.928564E-04  0.235E-01    8.05       1.0  T
   3    -50.6701607 -0.601427E-04  0.550E-02    8.10       1.0  T
   4    -50.6701722 -0.114747E-04  0.157E-02    8.09       1.3  T
   5    -50.6701726 -0.438203E-06  0.550E-03    8.09       3.6  T
   6    -50.6701727 -0.429086E-07  0.329E-03    8.09       6.0  T
speedup  1.05
cpu  time for SCC    0.01 s
wall time for SCC    0.01 s
speedup  0.99
cpu  time for grad    0.01 s
wall time for grad    0.01 s
 E :    -50.42304699  G :  0.049577    pred/act E change: -0.346D-02 -0.216D-02
Maxdispl :   0.0867   ||displ|| :   0.2295   Lambda : -0.375D-02
Largest |displ|/coords:  0.0867 (   5)  0.0829 (  14)  0.0677 (  21)
................................................................................
.............................. CYCLE   11 ......................................
................................................................................
   1    -50.6753434 -0.506753E+02  0.190E-01    8.14       0.0  T
   2    -50.6754109 -0.675032E-04  0.140E-01    8.18       1.0  T
   3    -50.6754490 -0.381211E-04  0.442E-02    8.25       1.0  T
   4    -50.6754555 -0.642759E-05  0.161E-02    8.26       1.2  T
   5    -50.6754560 -0.499452E-06  0.458E-03    8.26       4.3  T
   6    -50.6754560 -0.341167E-07  0.258E-03    8.26       7.6  T
speedup  1.03
cpu  time for SCC    0.01 s
wall time for SCC    0.01 s
speedup  0.99
cpu  time for grad    0.01 s
wall time for grad    0.01 s
 E :    -50.42606506  G :  0.048369    pred/act E change: -0.303D-02 -0.302D-02
Maxdispl :   0.2105   ||displ|| :   0.5256   Lambda : -0.107D-01
Largest |displ|/coords:  0.2105 (  14)  0.1745 (  21)  0.1305 (  20)
................................................................................
.............................. CYCLE   12 ......................................
................................................................................
   1    -50.7021042 -0.507021E+02  0.460E-01    8.49       0.0  T
   2    -50.7025443 -0.440170E-03  0.346E-01    8.59       1.0  T
   3    -50.7028341 -0.289714E-03  0.118E-01    8.81       1.0  T
   4    -50.7028749 -0.408737E-04  0.512E-02    8.82       1.0  T
   5    -50.7028795 -0.459933E-05  0.128E-02    8.83       1.5  T
   6    -50.7028797 -0.193221E-06  0.726E-03    8.82       2.7  T
   7    -50.7028798 -0.104967E-06  0.191E-03    8.82      10.3  T
   8    -50.7028798 -0.773722E-08  0.425E-04    8.82      46.1  T
speedup  0.90
cpu  time for SCC    0.01 s
wall time for SCC    0.01 s
speedup  1.00
cpu  time for grad    0.02 s
wall time for grad    0.02 s
 E :    -50.43380940  G :  0.054848    pred/act E change: -0.197D-02 -0.774D-02
Maxdispl :   0.1258   ||displ|| :   0.3739   Lambda : -0.538D-02
Largest |displ|/coords:  0.1258 (   7)  0.1230 (   9)  0.1215 (  14)
................................................................................
.............................. CYCLE   13 ......................................
................................................................................
   1    -50.7031589 -0.507032E+02  0.277E-01    8.72       0.0  T
   2    -50.7032233 -0.644784E-04  0.205E-01    8.77       1.0  T
   3    -50.7032704 -0.470364E-04  0.450E-02    8.88       1.0  T
   4    -50.7032777 -0.734719E-05  0.164E-02    8.86       1.2  T
   5    -50.7032782 -0.425278E-06  0.581E-03    8.86       3.4  T
   6    -50.7032782 -0.568614E-07  0.319E-03    8.86       6.2  T
speedup  0.88
cpu  time for SCC    0.00 s
wall time for SCC    0.01 s
speedup  0.99
cpu  time for grad    0.01 s
wall time for grad    0.01 s
 E :    -50.43788929  G :  0.050233    pred/act E change: -0.686D-02 -0.408D-02
Maxdispl :   0.1086   ||displ|| :   0.3128   Lambda : -0.460D-02
Largest |displ|/coords:  0.1086 (  27)  0.0921 (  11)  0.0878 (   3)
................................................................................
.............................. CYCLE   14 ......................................
................................................................................
   1    -50.7164604 -0.507165E+02  0.240E-01    8.93       0.0  T
   2    -50.7165133 -0.529035E-04  0.176E-01    8.93       1.0  T
   3    -50.7165467 -0.333620E-04  0.411E-02    8.94       1.0  T
   4    -50.7165527 -0.600207E-05  0.133E-02    8.96       1.5  T
   5    -50.7165530 -0.273621E-06  0.513E-03    8.96       3.8  T
   6    -50.7165530 -0.380707E-07  0.265E-03    8.96       7.4  T
speedup  1.03
cpu  time for SCC    0.01 s
wall time for SCC    0.01 s
speedup  1.01
cpu  time for grad    0.01 s
wall time for grad    0.01 s
 E :    -50.44049064  G :  0.047449    pred/act E change: -0.307D-02 -0.260D-02
Maxdispl :   0.1843   ||displ|| :   0.4163   Lambda : -0.656D-02
Largest |displ|/coords:  0.1843 (  27)  0.1334 (   7)  0.1054 (   1)
................................................................................
.............................. CYCLE   15 ......................................
................................................................................
   1    -50.7138499 -0.507138E+02  0.312E-01    8.94       0.0  T
   2    -50.7139663 -0.116363E-03  0.227E-01    8.99       1.0  T
   3    -50.7140338 -0.674861E-04  0.566E-02    9.08       1.0  T
   4    -50.7140451 -0.113302E-04  0.161E-02    9.06       1.2  T
   5    -50.7140455 -0.395998E-06  0.647E-03    9.06       3.0  T
   6    -50.7140455 -0.656320E-07  0.323E-03    9.06       6.1  T
   7    -50.7140456 -0.168003E-07  0.820E-04    9.06      23.9  T
speedup  0.99
cpu  time for SCC    0.01 s
wall time for SCC    0.01 s
speedup  0.98
cpu  time for grad    0.01 s
wall time for grad    0.02 s
 E :    -50.44375594  G :  0.032469    pred/act E change: -0.253D-02 -0.327D-02
Maxdispl :   0.1848   ||displ|| :   0.4731   Lambda : -0.372D-02
Largest |displ|/coords:  0.1848 (  14)  0.1473 (   5)  0.1299 (  27)
................................................................................
.............................. CYCLE   16 ......................................
................................................................................
   1    -50.7185954 -0.507186E+02  0.363E-01    8.98       0.0  T
   2    -50.7187173 -0.121889E-03  0.270E-01    9.04       1.0  T
   3    -50.7188208 -0.103510E-03  0.640E-02    9.06       1.0  T
   4    -50.7188344 -0.136114E-04  0.199E-02    9.06       1.0  T
   5    -50.7188350 -0.630849E-06  0.754E-03    9.06       2.6  T
   6    -50.7188351 -0.787456E-07  0.353E-03    9.06       5.6  T
   7    -50.7188351 -0.173610E-07  0.864E-04    9.06      22.7  T
speedup  1.01
cpu  time for SCC    0.01 s
wall time for SCC    0.01 s
speedup  1.00
cpu  time for grad    0.01 s
wall time for grad    0.01 s
 E :    -50.44316063  G :  0.058520    pred/act E change: -0.385D-02  0.595D-03
Maxdispl :   0.1569   ||displ|| :   0.4310   Lambda : -0.127D-01
Largest |displ|/coords:  0.1569 (  20)  0.1319 (  21)  0.1239 (  10)
................................................................................
.............................. CYCLE   17 ......................................
................................................................................
   1    -50.7048345 -0.507048E+02  0.373E-01    8.95       0.0  T
   2    -50.7051081 -0.273673E-03  0.276E-01    8.96       1.0  T
   3    -50.7053170 -0.208827E-03  0.898E-02    8.85       1.0  T
   4    -50.7053411 -0.241783E-04  0.334E-02    8.86       1.0  T
   5    -50.7053429 -0.179305E-05  0.118E-02    8.87       1.7  T
   6    -50.7053432 -0.238211E-06  0.521E-03    8.87       3.8  T
   7    -50.7053432 -0.330937E-07  0.156E-03    8.87      12.6  T
speedup  0.94
cpu  time for SCC    0.01 s
wall time for SCC    0.01 s
speedup  0.97
cpu  time for grad    0.01 s
wall time for grad    0.01 s
 E :    -50.44063794  G :  0.058618    pred/act E change: -0.228D-02  0.252D-02
Maxdispl :   0.1422   ||displ|| :   0.3852   Lambda : -0.134D-01
Largest |displ|/coords:  0.1422 (   8)  0.1152 (   7)  0.1135 (  12)
................................................................................
.............................. CYCLE   18 ......................................
................................................................................
   1    -50.7233621 -0.507234E+02  0.304E-01    9.17       0.0  T
   2    -50.7235211 -0.158981E-03  0.227E-01    9.22       1.0  T
   3    -50.7236466 -0.125521E-03  0.710E-02    9.23       1.0  T
   4    -50.7236605 -0.138737E-04  0.275E-02    9.23       1.0  T
   5    -50.7236615 -0.102080E-05  0.852E-03    9.23       2.3  T
   6    -50.7236616 -0.110070E-06  0.394E-03    9.23       5.0  T
   7    -50.7236616 -0.321447E-07  0.113E-03    9.23      17.4  T
speedup  1.08
cpu  time for SCC    0.01 s
wall time for SCC    0.01 s
speedup  1.00
cpu  time for grad    0.01 s
wall time for grad    0.01 s
 E :    -50.44474211  G :  0.039653    pred/act E change: -0.756D-02 -0.410D-02
Maxdispl :   0.0781   ||displ|| :   0.1935   Lambda : -0.360D-02
Largest |displ|/coords:  0.0781 (  12)  0.0733 (   8)  0.0505 (   2)
................................................................................
.............................. CYCLE   19 ......................................
................................................................................
   1    -50.7183863 -0.507184E+02  0.145E-01    9.21       0.0  T
   2    -50.7184031 -0.167497E-04  0.108E-01    9.21       1.0  T
   3    -50.7184167 -0.136153E-04  0.222E-02    9.21       1.0  T
   4    -50.7184182 -0.153230E-05  0.793E-03    9.22       2.5  T
   5    -50.7184183 -0.680720E-07  0.265E-03    9.22       7.4  T
   6    -50.7184183 -0.109963E-07  0.120E-03    9.21      16.3  T
speedup  0.89
cpu  time for SCC    0.00 s
wall time for SCC    0.01 s
speedup  0.94
cpu  time for grad    0.01 s
wall time for grad    0.01 s
 E :    -50.44610058  G :  0.018465    pred/act E change: -0.772D-02 -0.136D-02
Maxdispl :   0.1755   ||displ|| :   0.2697   Lambda : -0.137D-02
Largest |displ|/coords:  0.1755 (  10)  0.1210 (   1)  0.0827 (   3)
................................................................................
.............................. CYCLE   20 ......................................
................................................................................
   1    -50.7141784 -0.507142E+02  0.181E-01    9.06       0.0  T
   2    -50.7141966 -0.181706E-04  0.133E-01    9.07       1.0  T
   3    -50.7142071 -0.104986E-04  0.260E-02    9.07       1.0  T
   4    -50.7142093 -0.226397E-05  0.784E-03    9.07       2.5  T
   5    -50.7142094 -0.725243E-07  0.258E-03    9.07       7.6  T
   6    -50.7142094 -0.924920E-08  0.134E-03    9.07      14.7  T
speedup  1.02
cpu  time for SCC    0.01 s
wall time for SCC    0.01 s
speedup  0.99
cpu  time for grad    0.01 s
wall time for grad    0.01 s
 E :    -50.44625279  G :  0.024209    pred/act E change: -0.187D-02 -0.152D-03
Maxdispl :   0.0556   ||displ|| :   0.1315   Lambda : -0.135D-02
Largest |displ|/coords:  0.0556 (   2)  0.0441 (  21)  0.0364 (  16)
................................................................................
.............................. CYCLE   21 ......................................
................................................................................
   1    -50.7201520 -0.507202E+02  0.914E-02    9.13       0.0  T
   2    -50.7201694 -0.173417E-04  0.682E-02    9.13       1.0  T
   3    -50.7201798 -0.103876E-04  0.216E-02    9.13       1.0  T
   4    -50.7201815 -0.178290E-05  0.685E-03    9.13       2.9  T
   5    -50.7201816 -0.791287E-07  0.254E-03    9.13       7.7  T
   6    -50.7201816 -0.814214E-08  0.111E-03    9.13      17.7  T
speedup  1.00
cpu  time for SCC    0.01 s
wall time for SCC    0.01 s
speedup  0.99
cpu  time for grad    0.01 s
wall time for grad    0.01 s
 E :    -50.44714205  G :  0.017676    pred/act E change: -0.734D-03 -0.889D-03
Maxdispl :   0.0944   ||displ|| :   0.2086   Lambda : -0.116D-02
Largest |displ|/coords:  0.0944 (   4)  0.0637 (   2)  0.0616 (   1)
................................................................................
.............................. CYCLE   22 ......................................
................................................................................
   1    -50.7240786 -0.507241E+02  0.137E-01    9.28       0.0  T
   2    -50.7241445 -0.658642E-04  0.989E-02    9.28       1.0  T
   3    -50.7241743 -0.298580E-04  0.381E-02    9.28       1.0  T
   4    -50.7241785 -0.422553E-05  0.798E-03    9.28       2.5  T
   5    -50.7241786 -0.978956E-07  0.333E-03    9.28       5.9  T
   6    -50.7241787 -0.104254E-07  0.159E-03    9.28      12.4  T
   7    -50.7241787 -0.259730E-08  0.361E-04    9.28      54.3  T
speedup  1.04
cpu  time for SCC    0.01 s
wall time for SCC    0.01 s
speedup  1.01
cpu  time for grad    0.01 s
wall time for grad    0.01 s
 E :    -50.44798705  G :  0.020173    pred/act E change: -0.688D-03 -0.845D-03
Maxdispl :   0.1678   ||displ|| :   0.4735   Lambda : -0.216D-02
Largest |displ|/coords:  0.1678 (  16)  0.1641 (   2)  0.1594 (   1)
................................................................................
.............................. CYCLE   23 ......................................
................................................................................
   1    -50.7307046 -0.507307E+02  0.288E-01    9.39       0.0  T
   2    -50.7309907 -0.286145E-03  0.211E-01    9.38       1.0  T
   3    -50.7311250 -0.134306E-03  0.814E-02    9.38       1.0  T
   4    -50.7311434 -0.183407E-04  0.164E-02    9.39       1.2  T
   5    -50.7311439 -0.514277E-06  0.686E-03    9.38       2.9  T
   6    -50.7311439 -0.485261E-07  0.337E-03    9.38       5.8  T
   7    -50.7311439 -0.136582E-07  0.721E-04    9.38      27.2  T
speedup  1.04
cpu  time for SCC    0.01 s
wall time for SCC    0.01 s
speedup  1.01
cpu  time for grad    0.01 s
wall time for grad    0.01 s
 E :    -50.44970654  G :  0.028415    pred/act E change: -0.606D-03 -0.172D-02
Maxdispl :   0.1966   ||displ|| :   0.4842   Lambda : -0.256D-02
Largest |displ|/coords:  0.1966 (   2)  0.1498 (   1)  0.1470 (   3)
................................................................................
.............................. CYCLE   24 ......................................
................................................................................
   1    -50.7333770 -0.507334E+02  0.278E-01    9.43       0.0  T
   2    -50.7335281 -0.151069E-03  0.207E-01    9.43       1.0  T
   3    -50.7336042 -0.761554E-04  0.648E-02    9.43       1.0  T
   4    -50.7336196 -0.154160E-04  0.130E-02    9.43       1.5  T
   5    -50.7336200 -0.337883E-06  0.576E-03    9.43       3.4  T
   6    -50.7336200 -0.241937E-07  0.264E-03    9.43       7.4  T
speedup  1.03
cpu  time for SCC    0.01 s
wall time for SCC    0.01 s
speedup  0.99
cpu  time for grad    0.01 s
wall time for grad    0.01 s
 E :    -50.45112334  G :  0.023833    pred/act E change: -0.132D-02 -0.142D-02
Maxdispl :   0.0973   ||displ|| :   0.2528   Lambda : -0.230D-02
Largest |displ|/coords:  0.0973 (  29)  0.0937 (   3)  0.0769 (   2)
................................................................................
.............................. CYCLE   25 ......................................
................................................................................
   1    -50.7283371 -0.507283E+02  0.159E-01    9.28       0.0  T
   2    -50.7283604 -0.233309E-04  0.118E-01    9.28       1.0  T
   3    -50.7283755 -0.150396E-04  0.275E-02    9.29       1.0  T
   4    -50.7283778 -0.232164E-05  0.760E-03    9.29       2.6  T
   5    -50.7283779 -0.107790E-06  0.281E-03    9.29       7.0  T
   6    -50.7283779 -0.125737E-07  0.139E-03    9.29      14.1  T
speedup  1.00
cpu  time for SCC    0.01 s
wall time for SCC    0.01 s
speedup  0.98
cpu  time for grad    0.01 s
wall time for grad    0.01 s
 E :    -50.45152570  G :  0.026539    pred/act E change: -0.158D-02 -0.402D-03
Maxdispl :   0.1062   ||displ|| :   0.2449   Lambda : -0.168D-02
Largest |displ|/coords:  0.1062 (   3)  0.1062 (   2)  0.0982 (   1)

generating ANC from model Hessian ...
 Shifting diagonal of input Hessian by   4.863673616010518E-003
 Lowest  eigenvalues of input Hessian
   -0.000000   -0.000000   -0.000000   -0.000000    0.000000    0.000000
    0.005000    0.005153    0.005701    0.006110    0.006425    0.006717
    0.007715    0.008120    0.009028    0.009764    0.010543    0.012277
 Highest eigenvalues
    1.369427    1.390037    1.410563    2.598698    3.434916    3.534230
 
cpu  time for ANC gen    0.02 s
wall time for ANC gen    0.02 s
................................................................................
.............................. CYCLE   26 ......................................
................................................................................
   1    -50.7247609 -0.507248E+02  0.166E-01    9.13       0.0  T
   2    -50.7247897 -0.287388E-04  0.123E-01    9.13       1.0  T
   3    -50.7248062 -0.165128E-04  0.284E-02    9.14       1.0  T
   4    -50.7248100 -0.382717E-05  0.814E-03    9.14       2.4  T
   5    -50.7248101 -0.106480E-06  0.310E-03    9.14       6.3  T
   6    -50.7248101 -0.106061E-07  0.143E-03    9.14      13.7  T
   7    -50.7248101 -0.395774E-08  0.440E-04    9.14      44.6  T
   8    -50.7248101 -0.301803E-09  0.931E-05    9.14     210.7  T
speedup  1.01
cpu  time for SCC    0.01 s
wall time for SCC    0.01 s
speedup  0.98
cpu  time for grad    0.02 s
wall time for grad    0.02 s
 E :    -50.45222294  G :  0.021012    pred/act E change:  0.000D+00 -0.697D-03
Maxdispl :   0.1066   ||displ|| :   0.2428   Lambda : -0.124D-02
Largest |displ|/coords:  0.1066 (   9)  0.0936 (  10)  0.0835 (   1)
................................................................................
.............................. CYCLE   27 ......................................
................................................................................
   1    -50.7294792 -0.507295E+02  0.137E-01    9.19       0.0  T
   2    -50.7294865 -0.725352E-05  0.102E-01    9.19       1.0  T
   3    -50.7294906 -0.414578E-05  0.170E-02    9.20       1.2  T
   4    -50.7294917 -0.107116E-05  0.497E-03    9.19       3.9  T
   5    -50.7294918 -0.530709E-07  0.160E-03    9.19      12.3  T
speedup  1.02
cpu  time for SCC    0.00 s
wall time for SCC    0.00 s
speedup  1.00
cpu  time for grad    0.01 s
wall time for grad    0.01 s
 E :    -50.45312979  G :  0.011919    pred/act E change:  0.000D+00 -0.907D-03
Maxdispl :   0.1985   ||displ|| :   0.4048   Lambda : -0.103D-02
Largest |displ|/coords:  0.1985 (   1)  0.1807 (   9)  0.1424 (  10)
................................................................................
.............................. CYCLE   28 ......................................
................................................................................
   1    -50.7324085 -0.507324E+02  0.209E-01    9.25       0.0  T
   2    -50.7324182 -0.972051E-05  0.155E-01    9.26       1.0  T
   3    -50.7324256 -0.730839E-05  0.218E-02    9.26       1.0  T
   4    -50.7324267 -0.117365E-05  0.590E-03    9.26       3.3  T
   5    -50.7324268 -0.470623E-07  0.218E-03    9.26       9.0  T
   6    -50.7324268 -0.450831E-08  0.108E-03    9.26      18.1  T
speedup  1.03
cpu  time for SCC    0.01 s
wall time for SCC    0.01 s
speedup  0.99
cpu  time for grad    0.01 s
wall time for grad    0.01 s
 E :    -50.45386578  G :  0.007449    pred/act E change: -0.657D-03 -0.736D-03
Maxdispl :   0.2893   ||displ|| :   0.5181   Lambda : -0.849D-03
Largest |displ|/coords:  0.2893 (   1)  0.1843 (   2)  0.1838 (   9)
................................................................................
.............................. CYCLE   29 ......................................
................................................................................
   1    -50.7299354 -0.507299E+02  0.284E-01    9.24       0.0  T
   2    -50.7299464 -0.110595E-04  0.212E-01    9.24       1.0  T
   3    -50.7299582 -0.117773E-04  0.239E-02    9.25       1.0  T
   4    -50.7299590 -0.793446E-06  0.746E-03    9.24       2.6  T
   5    -50.7299591 -0.620828E-07  0.251E-03    9.24       7.8  T
   6    -50.7299591 -0.660508E-08  0.128E-03    9.24      15.4  T
speedup  0.85
cpu  time for SCC    0.00 s
wall time for SCC    0.01 s
speedup  0.99
cpu  time for grad    0.01 s
wall time for grad    0.01 s
 E :    -50.45449477  G :  0.012778    pred/act E change: -0.602D-03 -0.629D-03
Maxdispl :   0.3804   ||displ|| :   0.6134   Lambda : -0.101D-02
Largest |displ|/coords:  0.3804 (   1)  0.2463 (   2)  0.2070 (  11)
................................................................................
.............................. CYCLE   30 ......................................
................................................................................
   1    -50.7258550 -0.507259E+02  0.346E-01    9.11       0.0  T
   2    -50.7258730 -0.179531E-04  0.258E-01    9.11       1.0  T
   3    -50.7258926 -0.196242E-04  0.314E-02    9.11       1.0  T
   4    -50.7258938 -0.119759E-05  0.946E-03    9.11       2.1  T
   5    -50.7258939 -0.102572E-06  0.287E-03    9.11       6.8  T
   6    -50.7258939 -0.831508E-08  0.159E-03    9.11      12.3  T
speedup  1.05
cpu  time for SCC    0.01 s
wall time for SCC    0.01 s
speedup  1.00
cpu  time for grad    0.01 s
wall time for grad    0.01 s
 E :    -50.45528030  G :  0.021168    pred/act E change: -0.539D-03 -0.786D-03
Maxdispl :   0.3430   ||displ|| :   0.5178   Lambda : -0.130D-02
Largest |displ|/coords:  0.3430 (   1)  0.2134 (  11)  0.2059 (   2)
................................................................................
.............................. CYCLE   31 ......................................
................................................................................
   1    -50.7288497 -0.507288E+02  0.274E-01    9.01       0.0  T
   2    -50.7288646 -0.148173E-04  0.203E-01    9.01       1.0  T
   3    -50.7288782 -0.136271E-04  0.282E-02    9.01       1.0  T
   4    -50.7288794 -0.122600E-05  0.831E-03    9.01       2.4  T
   5    -50.7288795 -0.807010E-07  0.244E-03    9.01       8.0  T
   6    -50.7288795 -0.616963E-08  0.137E-03    9.01      14.3  T
speedup  1.00
cpu  time for SCC    0.01 s
wall time for SCC    0.01 s
speedup  0.98
cpu  time for grad    0.01 s
wall time for grad    0.01 s
 E :    -50.45613924  G :  0.024246    pred/act E change: -0.697D-03 -0.859D-03
Maxdispl :   0.3327   ||displ|| :   0.4917   Lambda : -0.156D-02
Largest |displ|/coords:  0.3327 (   1)  0.2019 (   2)  0.1406 (   4)
................................................................................
.............................. CYCLE   32 ......................................
................................................................................
   1    -50.7313225 -0.507313E+02  0.245E-01    9.14       0.0  T
   2    -50.7313416 -0.190611E-04  0.181E-01    9.14       1.0  T
   3    -50.7313509 -0.934084E-05  0.296E-02    9.14       1.0  T
   4    -50.7313538 -0.281168E-05  0.837E-03    9.14       2.3  T
   5    -50.7313538 -0.706465E-07  0.251E-03    9.14       7.8  T
   6    -50.7313538 -0.632741E-08  0.130E-03    9.14      15.0  T
speedup  0.95
cpu  time for SCC    0.01 s
wall time for SCC    0.01 s
speedup  0.96
cpu  time for grad    0.01 s
wall time for grad    0.01 s
 E :    -50.45712513  G :  0.023872    pred/act E change: -0.822D-03 -0.986D-03
Maxdispl :   0.1797   ||displ|| :   0.3330   Lambda : -0.144D-02
Largest |displ|/coords:  0.1797 (   1)  0.1705 (   2)  0.0774 (  28)
................................................................................
.............................. CYCLE   33 ......................................
................................................................................
   1    -50.7397711 -0.507398E+02  0.180E-01    9.35       0.0  T
   2    -50.7397839 -0.128044E-04  0.134E-01    9.35       1.0  T
   3    -50.7397927 -0.873862E-05  0.202E-02    9.35       1.0  T
   4    -50.7397943 -0.162594E-05  0.581E-03    9.35       3.4  T
   5    -50.7397944 -0.512335E-07  0.219E-03    9.35       8.9  T
speedup  0.98
cpu  time for SCC    0.01 s
wall time for SCC    0.01 s
speedup  1.02
cpu  time for grad    0.01 s
wall time for grad    0.01 s
 E :    -50.45794593  G :  0.017167    pred/act E change: -0.968D-03 -0.821D-03
Maxdispl :   0.3565   ||displ|| :   0.6652   Lambda : -0.184D-02
Largest |displ|/coords:  0.3565 (   1)  0.3487 (   2)  0.1969 (   4)
................................................................................
.............................. CYCLE   34 ......................................
................................................................................
   1    -50.7322881 -0.507323E+02  0.332E-01    9.14       0.0  T
   2    -50.7323155 -0.273857E-04  0.249E-01    9.14       1.0  T
   3    -50.7323390 -0.234607E-04  0.263E-02    9.14       1.0  T
   4    -50.7323421 -0.309672E-05  0.844E-03    9.14       2.3  T
   5    -50.7323422 -0.966322E-07  0.361E-03    9.14       5.4  T
   6    -50.7323422 -0.223141E-07  0.130E-03    9.14      15.1  T
   7    -50.7323422 -0.643107E-08  0.531E-04    9.14      37.0  T
speedup  1.03
cpu  time for SCC    0.01 s
wall time for SCC    0.01 s
speedup  0.99
cpu  time for grad    0.01 s
wall time for grad    0.02 s
 E :    -50.45868920  G :  0.023653    pred/act E change: -0.802D-03 -0.743D-03
Maxdispl :   0.2077   ||displ|| :   0.3368   Lambda : -0.180D-02
Largest |displ|/coords:  0.2077 (   1)  0.1217 (  11)  0.0920 (   6)
................................................................................
.............................. CYCLE   35 ......................................
................................................................................
   1    -50.7413381 -0.507413E+02  0.263E-01    9.48       0.0  T
   2    -50.7413669 -0.288463E-04  0.189E-01    9.48       1.0  T
   3    -50.7413849 -0.179793E-04  0.393E-02    9.46       1.0  T
   4    -50.7413875 -0.255963E-05  0.119E-02    9.47       1.7  T
   5    -50.7413876 -0.179905E-06  0.270E-03    9.47       7.3  T
   6    -50.7413876 -0.126028E-07  0.160E-03    9.47      12.2  T
speedup  1.05
cpu  time for SCC    0.01 s
wall time for SCC    0.01 s
speedup  1.01
cpu  time for grad    0.01 s
wall time for grad    0.01 s
 E :    -50.45886974  G :  0.034161    pred/act E change: -0.133D-02 -0.181D-03
Maxdispl :   0.0815   ||displ|| :   0.1980   Lambda : -0.151D-02
Largest |displ|/coords:  0.0815 (   1)  0.0753 (   7)  0.0700 (   6)
................................................................................
.............................. CYCLE   36 ......................................
................................................................................
   1    -50.7425352 -0.507425E+02  0.155E-01    9.40       0.0  T
   2    -50.7425415 -0.623893E-05  0.117E-01    9.40       1.0  T
   3    -50.7425477 -0.619915E-05  0.136E-02    9.40       1.4  T
   4    -50.7425482 -0.506257E-06  0.368E-03    9.40       5.3  T
   5    -50.7425482 -0.186609E-07  0.167E-03    9.40      11.7  T
speedup  1.02
cpu  time for SCC    0.00 s
wall time for SCC    0.00 s
speedup  0.98
cpu  time for grad    0.01 s
wall time for grad    0.01 s
 E :    -50.45974702  G :  0.014076    pred/act E change: -0.100D-02 -0.877D-03
Maxdispl :   0.1527   ||displ|| :   0.3229   Lambda : -0.879D-03
Largest |displ|/coords:  0.1527 (   1)  0.1399 (   4)  0.1207 (   2)
................................................................................
.............................. CYCLE   37 ......................................
................................................................................
   1    -50.7388017 -0.507388E+02  0.191E-01    9.36       0.0  T
   2    -50.7388250 -0.233068E-04  0.143E-01    9.36       1.0  T
   3    -50.7388352 -0.102100E-04  0.245E-02    9.36       1.0  T
   4    -50.7388393 -0.413778E-05  0.707E-03    9.36       2.8  T
   5    -50.7388394 -0.801282E-07  0.255E-03    9.36       7.7  T
   6    -50.7388394 -0.806241E-08  0.124E-03    9.36      15.8  T
speedup  1.03
cpu  time for SCC    0.01 s
wall time for SCC    0.01 s
speedup  0.99
cpu  time for grad    0.01 s
wall time for grad    0.01 s
 E :    -50.46025182  G :  0.019797    pred/act E change: -0.785D-03 -0.505D-03
Maxdispl :   0.1310   ||displ|| :   0.3118   Lambda : -0.102D-02
Largest |displ|/coords:  0.1310 (   5)  0.1031 (   2)  0.0868 (   7)
................................................................................
.............................. CYCLE   38 ......................................
................................................................................
   1    -50.7410849 -0.507411E+02  0.219E-01    9.25       0.0  T
   2    -50.7411383 -0.533821E-04  0.163E-01    9.25       1.0  T
   3    -50.7411601 -0.217739E-04  0.389E-02    9.25       1.0  T
   4    -50.7411678 -0.772158E-05  0.950E-03    9.25       2.1  T
   5    -50.7411680 -0.216955E-06  0.337E-03    9.25       5.8  T
   6    -50.7411680 -0.135969E-07  0.160E-03    9.25      12.2  T
   7    -50.7411681 -0.499575E-08  0.481E-04    9.25      40.8  T
speedup  1.08
cpu  time for SCC    0.01 s
wall time for SCC    0.01 s
speedup  0.99
cpu  time for grad    0.01 s
wall time for grad    0.02 s
 E :    -50.46098363  G :  0.022418    pred/act E change: -0.485D-03 -0.732D-03
Maxdispl :   0.1676   ||displ|| :   0.4577   Lambda : -0.226D-02
Largest |displ|/coords:  0.1676 (   5)  0.1505 (   4)  0.1214 (  44)
................................................................................
.............................. CYCLE   39 ......................................
................................................................................
   1    -50.7475613 -0.507476E+02  0.325E-01    9.31       0.0  T
   2    -50.7478646 -0.303264E-03  0.237E-01    9.30       1.0  T
   3    -50.7479721 -0.107512E-03  0.883E-02    9.29       1.0  T
   4    -50.7479929 -0.208104E-04  0.179E-02    9.29       1.1  T
   5    -50.7479937 -0.791448E-06  0.614E-03    9.29       3.2  T
   6    -50.7479938 -0.594667E-07  0.281E-03    9.29       7.0  T
   7    -50.7479938 -0.124106E-07  0.972E-04    9.29      20.2  T
speedup  1.06
cpu  time for SCC    0.01 s
wall time for SCC    0.01 s
speedup  1.01
cpu  time for grad    0.01 s
wall time for grad    0.01 s
 E :    -50.46273377  G :  0.025466    pred/act E change: -0.562D-03 -0.175D-02
Maxdispl :   0.2372   ||displ|| :   0.5831   Lambda : -0.275D-02
Largest |displ|/coords:  0.2372 (   5)  0.1798 (   4)  0.1597 (   1)
................................................................................
.............................. CYCLE   40 ......................................
................................................................................
   1    -50.7528221 -0.507528E+02  0.375E-01    9.40       0.0  T
   2    -50.7531734 -0.351293E-03  0.273E-01    9.39       1.0  T
   3    -50.7532957 -0.122278E-03  0.937E-02    9.38       1.0  T
   4    -50.7533216 -0.259068E-04  0.200E-02    9.38       1.0  T
   5    -50.7533226 -0.994350E-06  0.615E-03    9.38       3.2  T
   6    -50.7533226 -0.708745E-07  0.286E-03    9.38       6.9  T
   7    -50.7533227 -0.124339E-07  0.929E-04    9.38      21.1  T
speedup  1.04
cpu  time for SCC    0.01 s
wall time for SCC    0.01 s
speedup  1.00
cpu  time for grad    0.01 s
wall time for grad    0.01 s
 E :    -50.46427073  G :  0.025484    pred/act E change: -0.137D-02 -0.154D-02
Maxdispl :   0.1851   ||displ|| :   0.4183   Lambda : -0.291D-02
Largest |displ|/coords:  0.1851 (   4)  0.1705 (  11)  0.1161 (  26)
................................................................................
.............................. CYCLE   41 ......................................
................................................................................
   1    -50.7622012 -0.507622E+02  0.228E-01    9.60       0.0  T
   2    -50.7622403 -0.390790E-04  0.166E-01    9.60       1.0  T
   3    -50.7622570 -0.167645E-04  0.421E-02    9.60       1.0  T
   4    -50.7622611 -0.410977E-05  0.105E-02    9.60       1.9  T
   5    -50.7622613 -0.149799E-06  0.270E-03    9.60       7.3  T
   6    -50.7622613 -0.117132E-07  0.153E-03    9.60      12.8  T
speedup  1.05
cpu  time for SCC    0.01 s
wall time for SCC    0.01 s
speedup  1.01
cpu  time for grad    0.01 s
wall time for grad    0.01 s
 E :    -50.46375704  G :  0.051483    pred/act E change: -0.184D-02  0.514D-03
Maxdispl :   0.1048   ||displ|| :   0.3705   Lambda : -0.753D-02
Largest |displ|/coords:  0.1048 (   4)  0.1028 (   5)  0.0995 (  28)
................................................................................
.............................. CYCLE   42 ......................................
................................................................................
   1    -50.7437457 -0.507437E+02  0.314E-01    9.06       0.0  T
   2    -50.7438212 -0.754647E-04  0.230E-01    9.06       1.0  T
   3    -50.7438552 -0.340117E-04  0.632E-02    9.02       1.0  T
   4    -50.7438616 -0.647936E-05  0.174E-02    9.02       1.1  T
   5    -50.7438622 -0.596600E-06  0.422E-03    9.02       4.7  T
   6    -50.7438623 -0.196687E-07  0.242E-03    9.02       8.1  T
speedup  0.88
cpu  time for SCC    0.00 s
wall time for SCC    0.01 s
speedup  0.99
cpu  time for grad    0.01 s
wall time for grad    0.01 s
 E :    -50.46376702  G :  0.046352    pred/act E change: -0.171D-02 -0.998D-05
Maxdispl :   0.1043   ||displ|| :   0.2096   Lambda : -0.477D-02
Largest |displ|/coords:  0.1043 (  20)  0.0751 (  21)  0.0575 (  24)
................................................................................
.............................. CYCLE   43 ......................................
................................................................................
   1    -50.7520943 -0.507521E+02  0.181E-01    9.23       0.0  T
   2    -50.7521136 -0.193083E-04  0.131E-01    9.24       1.0  T
   3    -50.7521240 -0.104536E-04  0.305E-02    9.25       1.0  T
   4    -50.7521257 -0.170614E-05  0.885E-03    9.25       2.2  T
   5    -50.7521258 -0.974699E-07  0.226E-03    9.25       8.7  T
   6    -50.7521258 -0.554663E-08  0.127E-03    9.25      15.5  T
speedup  1.02
cpu  time for SCC    0.01 s
wall time for SCC    0.01 s
speedup  0.99
cpu  time for grad    0.01 s
wall time for grad    0.01 s
 E :    -50.46600967  G :  0.016523    pred/act E change: -0.428D-02 -0.224D-02
Maxdispl :   0.1825   ||displ|| :   0.2876   Lambda : -0.147D-02
Largest |displ|/coords:  0.1825 (  11)  0.1331 (   2)  0.0751 (  29)
................................................................................
.............................. CYCLE   44 ......................................
................................................................................
   1    -50.7601534 -0.507602E+02  0.189E-01    9.52       0.0  T
   2    -50.7601795 -0.261022E-04  0.139E-01    9.52       1.0  T
   3    -50.7601889 -0.941827E-05  0.320E-02    9.51       1.0  T
   4    -50.7601926 -0.361769E-05  0.782E-03    9.51       2.5  T
   5    -50.7601926 -0.834382E-07  0.211E-03    9.52       9.3  T
   6    -50.7601927 -0.872935E-08  0.107E-03    9.52      18.3  T
speedup  0.86
cpu  time for SCC    0.01 s
wall time for SCC    0.01 s
speedup  0.98
cpu  time for grad    0.01 s
wall time for grad    0.01 s
 E :    -50.46631567  G :  0.025595    pred/act E change: -0.249D-02 -0.306D-03
Maxdispl :   0.0776   ||displ|| :   0.1645   Lambda : -0.927D-03
Largest |displ|/coords:  0.0776 (   1)  0.0637 (   7)  0.0603 (   9)
................................................................................
.............................. CYCLE   45 ......................................
................................................................................
   1    -50.7573493 -0.507573E+02  0.121E-01    9.33       0.0  T
   2    -50.7573583 -0.902742E-05  0.887E-02    9.32       1.0  T
   3    -50.7573633 -0.499726E-05  0.202E-02    9.31       1.0  T
   4    -50.7573642 -0.850537E-06  0.719E-03    9.31       2.7  T
   5    -50.7573642 -0.731903E-07  0.144E-03    9.31      13.6  T
   6    -50.7573642 -0.309269E-08  0.877E-04    9.31      22.4  T
speedup  0.89
cpu  time for SCC    0.00 s
wall time for SCC    0.01 s
speedup  1.01
cpu  time for grad    0.01 s
wall time for grad    0.01 s
 E :    -50.46690788  G :  0.013834    pred/act E change: -0.795D-03 -0.592D-03
Maxdispl :   0.1503   ||displ|| :   0.2584   Lambda : -0.102D-02
Largest |displ|/coords:  0.1503 (   1)  0.0952 (   5)  0.0950 (  11)
................................................................................
.............................. CYCLE   46 ......................................
................................................................................
   1    -50.7509689 -0.507510E+02  0.165E-01    9.15       0.0  T
   2    -50.7509872 -0.182407E-04  0.120E-01    9.14       1.0  T
   3    -50.7509944 -0.723691E-05  0.320E-02    9.13       1.0  T
   4    -50.7509962 -0.181343E-05  0.115E-02    9.13       1.7  T
   5    -50.7509963 -0.958877E-07  0.172E-03    9.13      11.4  T
   6    -50.7509963 -0.577687E-08  0.109E-03    9.13      18.0  T
speedup  0.88
cpu  time for SCC    0.01 s
wall time for SCC    0.01 s
speedup  0.99
cpu  time for grad    0.01 s
wall time for grad    0.01 s
 E :    -50.46724153  G :  0.015484    pred/act E change: -0.476D-03 -0.334D-03
Maxdispl :   0.1010   ||displ|| :   0.2170   Lambda : -0.824D-03
Largest |displ|/coords:  0.1010 (   2)  0.0798 (  29)  0.0663 (  20)
................................................................................
.............................. CYCLE   47 ......................................
................................................................................
   1    -50.7541554 -0.507542E+02  0.146E-01    9.15       0.0  T
   2    -50.7541807 -0.253178E-04  0.105E-01    9.15       1.0  T
   3    -50.7541890 -0.831742E-05  0.283E-02    9.14       1.0  T
   4    -50.7541915 -0.249335E-05  0.771E-03    9.14       2.5  T
   5    -50.7541916 -0.661746E-07  0.171E-03    9.14      11.5  T
   6    -50.7541916 -0.636022E-08  0.850E-04    9.14      23.1  T
speedup  1.02
cpu  time for SCC    0.01 s
wall time for SCC    0.01 s
speedup  0.98
cpu  time for grad    0.01 s
wall time for grad    0.01 s
 E :    -50.46756583  G :  0.015504    pred/act E change: -0.545D-03 -0.324D-03
Maxdispl :   0.1725   ||displ|| :   0.2823   Lambda : -0.753D-03
Largest |displ|/coords:  0.1725 (   1)  0.1208 (   9)  0.1009 (  11)
................................................................................
.............................. CYCLE   48 ......................................
................................................................................
   1    -50.7578851 -0.507579E+02  0.138E-01    9.16       0.0  T
   2    -50.7578932 -0.810888E-05  0.102E-01    9.15       1.0  T
   3    -50.7578971 -0.397692E-05  0.192E-02    9.14       1.0  T
   4    -50.7578982 -0.106843E-05  0.843E-03    9.14       2.3  T
   5    -50.7578983 -0.493709E-07  0.152E-03    9.14      12.9  T
   6    -50.7578983 -0.414401E-08  0.914E-04    9.14      21.4  T
speedup  1.05
cpu  time for SCC    0.01 s
wall time for SCC    0.01 s
speedup  1.06
cpu  time for grad    0.01 s
wall time for grad    0.01 s
 E :    -50.46783001  G :  0.011539    pred/act E change: -0.431D-03 -0.264D-03
Maxdispl :   0.0641   ||displ|| :   0.1237   Lambda : -0.361D-03
Largest |displ|/coords:  0.0641 (  11)  0.0570 (   8)  0.0361 (  10)
................................................................................
.............................. CYCLE   49 ......................................
................................................................................
   1    -50.7561303 -0.507561E+02  0.794E-02    9.15       0.0  T
   2    -50.7561354 -0.505860E-05  0.583E-02    9.16       1.0  T
   3    -50.7561376 -0.227144E-05  0.142E-02    9.18       1.4  T
   4    -50.7561382 -0.590277E-06  0.354E-03    9.18       5.5  T
   5    -50.7561382 -0.248446E-07  0.107E-03    9.18      18.3  T
   6    -50.7561383 -0.217130E-08  0.633E-04    9.18      31.0  T
speedup  0.86
cpu  time for SCC    0.00 s
wall time for SCC    0.01 s
speedup  0.98
cpu  time for grad    0.01 s
wall time for grad    0.01 s
 E :    -50.46802391  G :  0.008082    pred/act E change: -0.406D-03 -0.194D-03
Maxdispl :   0.0500   ||displ|| :   0.1289   Lambda : -0.250D-03
Largest |displ|/coords:  0.0500 (  20)  0.0479 (   1)  0.0392 (  10)
................................................................................
.............................. CYCLE   50 ......................................
................................................................................
   1    -50.7579795 -0.507580E+02  0.796E-02    9.22       0.0  T
   2    -50.7579819 -0.231644E-05  0.594E-02    9.22       1.0  T
   3    -50.7579833 -0.147180E-05  0.968E-03    9.22       2.0  T
   4    -50.7579836 -0.301587E-06  0.482E-03    9.22       4.1  T
   5    -50.7579836 -0.228379E-07  0.781E-04    9.22      25.1  T
   6    -50.7579836 -0.724619E-09  0.516E-04    9.22      38.0  T
speedup  1.03
cpu  time for SCC    0.01 s
wall time for SCC    0.01 s
speedup  0.99
cpu  time for grad    0.01 s
wall time for grad    0.01 s
 E :    -50.46816606  G :  0.006902    pred/act E change: -0.183D-03 -0.142D-03
Maxdispl :   0.0797   ||displ|| :   0.1984   Lambda : -0.185D-03
Largest |displ|/coords:  0.0797 (   9)  0.0662 (  11)  0.0623 (  20)
................................................................................
.............................. CYCLE   51 ......................................
................................................................................
   1    -50.7575795 -0.507576E+02  0.112E-01    9.19       0.0  T
   2    -50.7575832 -0.365884E-05  0.838E-02    9.20       1.0  T
   3    -50.7575853 -0.217654E-05  0.137E-02    9.20       1.4  T
   4    -50.7575859 -0.558815E-06  0.554E-03    9.20       3.5  T
   5    -50.7575859 -0.283095E-07  0.102E-03    9.20      19.2  T
   6    -50.7575859 -0.117307E-08  0.649E-04    9.20      30.2  T
speedup  1.05
cpu  time for SCC    0.01 s
wall time for SCC    0.01 s
speedup  0.99
cpu  time for grad    0.01 s
wall time for grad    0.01 s
 E :    -50.46830139  G :  0.007731    pred/act E change: -0.127D-03 -0.135D-03
Maxdispl :   0.0850   ||displ|| :   0.2145   Lambda : -0.194D-03
Largest |displ|/coords:  0.0850 (   9)  0.0723 (  20)  0.0690 (   1)
................................................................................
.............................. CYCLE   52 ......................................
................................................................................
   1    -50.7586978 -0.507587E+02  0.108E-01    9.22       0.0  T
   2    -50.7587009 -0.315980E-05  0.814E-02    9.22       1.0  T
   3    -50.7587032 -0.228476E-05  0.114E-02    9.23       1.7  T
   4    -50.7587037 -0.460389E-06  0.528E-03    9.23       3.7  T
   5    -50.7587037 -0.263377E-07  0.103E-03    9.23      19.1  T
   6    -50.7587037 -0.139897E-08  0.640E-04    9.23      30.6  T
speedup  1.00
cpu  time for SCC    0.01 s
wall time for SCC    0.01 s
speedup  1.04
cpu  time for grad    0.01 s
wall time for grad    0.01 s
 E :    -50.46842210  G :  0.006028    pred/act E change: -0.961D-04 -0.121D-03
Maxdispl :   0.0399   ||displ|| :   0.1045   Lambda : -0.648D-04
Largest |displ|/coords:  0.0399 (   9)  0.0396 (   1)  0.0330 (  10)

generating ANC from model Hessian ...
 Shifting diagonal of input Hessian by   4.767028744575403E-003
 Lowest  eigenvalues of input Hessian
   -0.000000   -0.000000   -0.000000    0.000000    0.000000    0.000000
    0.005000    0.005582    0.005784    0.006288    0.007432    0.007994
    0.008658    0.009066    0.009688    0.010650    0.010986    0.011902
 Highest eigenvalues
    1.400308    1.414569    1.453190    2.585728    3.406766    3.715331
 
cpu  time for ANC gen    0.03 s
wall time for ANC gen    0.03 s
................................................................................
.............................. CYCLE   53 ......................................
................................................................................
   1    -50.7583799 -0.507584E+02  0.601E-02    9.23       0.0  T
   2    -50.7583808 -0.863291E-06  0.452E-02    9.23       1.0  T
   3    -50.7583815 -0.674461E-06  0.551E-03    9.23       3.6  T
   4    -50.7583816 -0.119832E-06  0.234E-03    9.23       8.4  T
   5    -50.7583816 -0.543089E-08  0.553E-04    9.23      35.4  T
   6    -50.7583816 -0.467118E-09  0.339E-04    9.23      57.9  T
speedup  0.98
cpu  time for SCC    0.01 s
wall time for SCC    0.01 s
speedup  0.98
cpu  time for grad    0.01 s
wall time for grad    0.02 s
 E :    -50.46846843  G :  0.005676    pred/act E change:  0.000D+00 -0.463D-04
Maxdispl :   0.0330   ||displ|| :   0.0705   Lambda : -0.877D-04
Largest |displ|/coords:  0.0330 (   2)  0.0242 (   5)  0.0207 (   1)
................................................................................
.............................. CYCLE   54 ......................................
................................................................................
   1    -50.7586813 -0.507587E+02  0.495E-02    9.24       0.0  T
   2    -50.7586825 -0.117441E-05  0.370E-02    9.24       1.0  T
   3    -50.7586831 -0.545690E-06  0.652E-03    9.25       3.0  T
   4    -50.7586833 -0.200006E-06  0.177E-03    9.25      11.1  T
   5    -50.7586833 -0.535061E-08  0.522E-04    9.25      37.6  T
speedup  0.96
cpu  time for SCC    0.00 s
wall time for SCC    0.01 s
speedup  1.02
cpu  time for grad    0.01 s
wall time for grad    0.01 s
 E :    -50.46852484  G :  0.003693    pred/act E change:  0.000D+00 -0.564D-04
Maxdispl :   0.0553   ||displ|| :   0.1127   Lambda : -0.889D-04
Largest |displ|/coords:  0.0553 (   7)  0.0519 (   5)  0.0348 (   8)
................................................................................
.............................. CYCLE   55 ......................................
................................................................................
   1    -50.7588239 -0.507588E+02  0.739E-02    9.26       0.0  T
   2    -50.7588261 -0.223742E-05  0.548E-02    9.26       1.0  T
   3    -50.7588269 -0.806827E-06  0.868E-03    9.27       2.3  T
   4    -50.7588273 -0.404476E-06  0.230E-03    9.27       8.5  T
   5    -50.7588273 -0.833257E-08  0.690E-04    9.27      28.4  T
   6    -50.7588273 -0.548532E-09  0.375E-04    9.27      52.3  T
speedup  0.83
cpu  time for SCC    0.01 s
wall time for SCC    0.01 s
speedup  0.93
cpu  time for grad    0.01 s
wall time for grad    0.02 s
 E :    -50.46856510  G :  0.002211    pred/act E change: -0.441D-04 -0.403D-04
Maxdispl :   0.0302   ||displ|| :   0.0742   Lambda : -0.433D-04
Largest |displ|/coords:  0.0302 (   5)  0.0289 (  11)  0.0276 (   2)
................................................................................
.............................. CYCLE   56 ......................................
................................................................................
   1    -50.7585274 -0.507585E+02  0.566E-02    9.26       0.0  T
   2    -50.7585281 -0.705013E-06  0.428E-02    9.26       1.0  T
   3    -50.7585289 -0.742863E-06  0.475E-03    9.27       4.1  T
   4    -50.7585289 -0.623862E-07  0.148E-03    9.27      13.2  T
   5    -50.7585289 -0.230445E-08  0.449E-04    9.27      43.6  T
   6    -50.7585289 -0.233570E-09  0.237E-04    9.27      82.9  T
speedup  1.03
cpu  time for SCC    0.01 s
wall time for SCC    0.01 s
speedup  1.01
cpu  time for grad    0.01 s
wall time for grad    0.01 s
 E :    -50.46858171  G :  0.001649    pred/act E change: -0.450D-04 -0.166D-04
Maxdispl :   0.0239   ||displ|| :   0.0452   Lambda : -0.227D-04
Largest |displ|/coords:  0.0239 (   7)  0.0198 (   5)  0.0144 (   2)
................................................................................
.............................. CYCLE   57 ......................................
................................................................................
   1    -50.7583762 -0.507584E+02  0.279E-02    9.27       0.0  T
   2    -50.7583763 -0.105388E-06  0.210E-02    9.27       1.0  T
   3    -50.7583763 -0.831558E-07  0.179E-03    9.27      11.0  T
   4    -50.7583764 -0.160376E-07  0.596E-04    9.27      32.9  T
   5    -50.7583764 -0.523066E-09  0.240E-04    9.27      81.8  T
speedup  1.04
cpu  time for SCC    0.00 s
wall time for SCC    0.00 s
speedup  1.01
cpu  time for grad    0.01 s
wall time for grad    0.01 s
 E :    -50.46859428  G :  0.001491    pred/act E change: -0.217D-04 -0.126D-04
Maxdispl :   0.0197   ||displ|| :   0.0391   Lambda : -0.132D-04
Largest |displ|/coords:  0.0197 (   7)  0.0184 (  11)  0.0117 (   2)
................................................................................
.............................. CYCLE   58 ......................................
................................................................................
   1    -50.7583534 -0.507584E+02  0.249E-02    9.27       0.0  T
   2    -50.7583535 -0.112108E-06  0.188E-02    9.27       1.0  T
   3    -50.7583536 -0.123982E-06  0.178E-03    9.27      11.0  T
   4    -50.7583536 -0.986873E-08  0.612E-04    9.27      32.1  T
   5    -50.7583536 -0.509466E-09  0.226E-04    9.27      86.7  T
speedup  1.00
cpu  time for SCC    0.00 s
wall time for SCC    0.01 s
speedup  1.00
cpu  time for grad    0.01 s
wall time for grad    0.01 s
 E :    -50.46860304  G :  0.001345    pred/act E change: -0.114D-04 -0.876D-05
Maxdispl :   0.0324   ||displ|| :   0.0630   Lambda : -0.106D-04
Largest |displ|/coords:  0.0324 (  11)  0.0301 (   7)  0.0209 (   5)
................................................................................
.............................. CYCLE   59 ......................................
................................................................................
   1    -50.7582441 -0.507582E+02  0.384E-02    9.27       0.0  T
   2    -50.7582443 -0.218947E-06  0.289E-02    9.27       1.0  T
   3    -50.7582446 -0.276385E-06  0.269E-03    9.27       7.3  T
   4    -50.7582446 -0.118062E-07  0.968E-04    9.27      20.3  T
   5    -50.7582446 -0.133833E-08  0.315E-04    9.27      62.2  T
speedup  1.00
cpu  time for SCC    0.00 s
wall time for SCC    0.01 s
speedup  1.00
cpu  time for grad    0.01 s
wall time for grad    0.01 s
 E :    -50.46861041  G :  0.001352    pred/act E change: -0.659D-05 -0.736D-05
Maxdispl :   0.0299   ||displ|| :   0.0567   Lambda : -0.688D-05
Largest |displ|/coords:  0.0299 (  11)  0.0266 (   7)  0.0177 (   2)
................................................................................
.............................. CYCLE   60 ......................................
................................................................................
   1    -50.7581853 -0.507582E+02  0.364E-02    9.27       0.0  T
   2    -50.7581855 -0.212591E-06  0.274E-02    9.27       1.0  T
   3    -50.7581858 -0.268236E-06  0.303E-03    9.27       6.5  T
   4    -50.7581858 -0.102316E-07  0.876E-04    9.27      22.4  T
   5    -50.7581858 -0.140591E-08  0.294E-04    9.27      66.8  T
speedup  0.98
cpu  time for SCC    0.00 s
wall time for SCC    0.01 s
speedup  1.04
cpu  time for grad    0.01 s
wall time for grad    0.01 s
 E :    -50.46861497  G :  0.001125    pred/act E change: -0.531D-05 -0.457D-05
Maxdispl :   0.0174   ||displ|| :   0.0304   Lambda : -0.342D-05
Largest |displ|/coords:  0.0174 (  11)  0.0144 (   7)  0.0093 (   6)
................................................................................
.............................. CYCLE   61 ......................................
................................................................................
   1    -50.7583333 -0.507583E+02  0.201E-02    9.27       0.0  T
   2    -50.7583334 -0.775512E-07  0.150E-02    9.27       1.3  T
   3    -50.7583335 -0.776291E-07  0.211E-03    9.27       9.3  T
   4    -50.7583335 -0.645340E-08  0.857E-04    9.27      22.9  T
   5    -50.7583335 -0.735859E-09  0.145E-04    9.27     134.8  T
speedup  1.13
cpu  time for SCC    0.01 s
wall time for SCC    0.01 s
speedup  1.04
cpu  time for grad    0.01 s
wall time for grad    0.01 s
 E :    -50.46861734  G :  0.000795    pred/act E change: -0.345D-05 -0.237D-05
Maxdispl :   0.0134   ||displ|| :   0.0233   Lambda : -0.234D-05
Largest |displ|/coords:  0.0134 (  11)  0.0112 (   7)  0.0070 (   5)
................................................................................
.............................. CYCLE   62 ......................................
................................................................................
   1    -50.7584720 -0.507585E+02  0.172E-02    9.28       0.0  T
   2    -50.7584721 -0.629470E-07  0.128E-02    9.28       1.5  T
   3    -50.7584721 -0.586259E-07  0.211E-03    9.28       9.3  T
   4    -50.7584722 -0.503086E-08  0.743E-04    9.28      26.4  T
   5    -50.7584722 -0.691166E-09  0.127E-04    9.28     154.8  T
speedup  0.96
cpu  time for SCC    0.00 s
wall time for SCC    0.01 s
speedup  0.98
cpu  time for grad    0.01 s
wall time for grad    0.01 s
 E :    -50.46861891  G :  0.000530    pred/act E change: -0.171D-05 -0.157D-05
Maxdispl :   0.0041   ||displ|| :   0.0113   Lambda : -0.137D-05
Largest |displ|/coords:  0.0041 (   4)  0.0040 (  11)  0.0035 (   7)
................................................................................
.............................. CYCLE   63 ......................................
................................................................................
   1    -50.7586501 -0.507587E+02  0.856E-03    9.28       0.0  T
   2    -50.7586501 -0.272849E-07  0.619E-03    9.28       3.2  T
   3    -50.7586501 -0.146312E-07  0.130E-03    9.28      15.1  T
   4    -50.7586501 -0.282351E-08  0.585E-04    9.28      33.5  T
   5    -50.7586501 -0.212665E-09  0.673E-05    9.28     291.5  T
speedup  1.02
cpu  time for SCC    0.01 s
wall time for SCC    0.00 s
speedup  1.00
cpu  time for grad    0.01 s
wall time for grad    0.01 s
 E :    -50.46861979  G :  0.000442    pred/act E change: -0.117D-05 -0.874D-06
Maxdispl :   0.0050   ||displ|| :   0.0118   Lambda : -0.928D-06
Largest |displ|/coords:  0.0050 (   5)  0.0046 (   3)  0.0045 (  11)
................................................................................
.............................. CYCLE   64 ......................................
................................................................................
   1    -50.7586676 -0.507587E+02  0.941E-03    9.28       0.0  T
   2    -50.7586676 -0.177593E-07  0.688E-03    9.28       2.9  T
   3    -50.7586676 -0.138335E-07  0.126E-03    9.28      15.6  T
   4    -50.7586676 -0.146481E-08  0.462E-04    9.28      42.5  T
   5    -50.7586676 -0.210790E-09  0.610E-05    9.28     321.3  T
speedup  1.02
cpu  time for SCC    0.00 s
wall time for SCC    0.00 s
speedup  1.05
cpu  time for grad    0.01 s
wall time for grad    0.01 s
 E :    -50.46862041  G :  0.000441    pred/act E change: -0.653D-06 -0.624D-06
Maxdispl :   0.0047   ||displ|| :   0.0104   Lambda : -0.809D-06
Largest |displ|/coords:  0.0047 (   3)  0.0036 (   2)  0.0033 (   1)
................................................................................
.............................. CYCLE   65 ......................................
................................................................................
   1    -50.7587013 -0.507587E+02  0.718E-03    9.28       0.0  T
   2    -50.7587013 -0.134439E-07  0.528E-03    9.28       3.7  T
   3    -50.7587013 -0.698951E-08  0.991E-04    9.28      19.8  T
   4    -50.7587013 -0.174861E-08  0.413E-04    9.28      47.5  T
speedup  0.93
[...]
................................................................................
.............................. CYCLE   67 ......................................
................................................................................
   1    -50.7585649 -0.507586E+02  0.162E-02    9.27       0.0  T
   2    -50.7585650 -0.481217E-07  0.121E-02    9.27       1.6  T
   3    -50.7585650 -0.232742E-07  0.184E-03    9.27      10.7  T
   4    -50.7585650 -0.832671E-08  0.687E-04    9.27      28.6  T
   5    -50.7585650 -0.223082E-09  0.884E-05    9.27     221.8  T
speedup  1.02
cpu  time for SCC    0.00 s
wall time for SCC    0.00 s
speedup  1.01
cpu  time for grad    0.01 s
wall time for grad    0.01 s
 E :    -50.46862275  G :  0.000658    pred/act E change: -0.452D-06 -0.106D-05
Maxdispl :   0.0100   ||displ|| :   0.0232   Lambda : -0.161D-05
Largest |displ|/coords:  0.0100 (  38)  0.0081 (   5)  0.0073 (  37)
................................................................................
.............................. CYCLE   68 ......................................
................................................................................
   1    -50.7584878 -0.507585E+02  0.193E-02    9.27       0.0  T
   2    -50.7584879 -0.657757E-07  0.144E-02    9.27       1.4  T
   3    -50.7584879 -0.300161E-07  0.211E-03    9.27       9.3  T
   4    -50.7584880 -0.121813E-07  0.708E-04    9.27      27.7  T
   5    -50.7584880 -0.229775E-09  0.103E-04    9.27     190.5  T
speedup  1.06
cpu  time for SCC    0.01 s
wall time for SCC    0.00 s
speedup  1.01
cpu  time for grad    0.01 s
wall time for grad    0.01 s
 E :    -50.46862396  G :  0.000769    pred/act E change: -0.745D-06 -0.121D-05
Maxdispl :   0.0138   ||displ|| :   0.0308   Lambda : -0.219D-05
Largest |displ|/coords:  0.0138 (  38)  0.0101 (   7)  0.0099 (  37)
................................................................................
.............................. CYCLE   69 ......................................
................................................................................
   1    -50.7584664 -0.507585E+02  0.259E-02    9.26       0.0  T
   2    -50.7584665 -0.130765E-06  0.194E-02    9.26       1.0  T
   3    -50.7584665 -0.497504E-07  0.295E-03    9.26       6.6  T
   4    -50.7584666 -0.255510E-07  0.873E-04    9.26      22.5  T
   5    -50.7584666 -0.388169E-09  0.141E-04    9.26     138.9  T
speedup  0.96
cpu  time for SCC    0.01 s
wall time for SCC    0.01 s
speedup  0.99
cpu  time for grad    0.01 s
wall time for grad    0.01 s
 E :    -50.46862549  G :  0.000807    pred/act E change: -0.806D-06 -0.153D-05
Maxdispl :   0.0100   ||displ|| :   0.0233   Lambda : -0.166D-05
Largest |displ|/coords:  0.0100 (  38)  0.0075 (   3)  0.0072 (  37)
................................................................................
.............................. CYCLE   70 ......................................
................................................................................
   1    -50.7585305 -0.507585E+02  0.189E-02    9.27       0.0  T
   2    -50.7585306 -0.815217E-07  0.141E-02    9.27       1.4  T
   3    -50.7585306 -0.275750E-07  0.229E-03    9.27       8.6  T
   4    -50.7585307 -0.159287E-07  0.641E-04    9.27      30.6  T
   5    -50.7585307 -0.276508E-09  0.101E-04    9.27     194.1  T
speedup  1.00
cpu  time for SCC    0.00 s
wall time for SCC    0.01 s
speedup  1.00
cpu  time for grad    0.01 s
wall time for grad    0.01 s
 E :    -50.46862665  G :  0.000634    pred/act E change: -0.110D-05 -0.117D-05
Maxdispl :   0.0085   ||displ|| :   0.0183   Lambda : -0.114D-05
Largest |displ|/coords:  0.0085 (   3)  0.0077 (  38)  0.0054 (  28)
................................................................................
.............................. CYCLE   71 ......................................
................................................................................
   1    -50.7586244 -0.507586E+02  0.143E-02    9.27       0.0  T
   2    -50.7586245 -0.569161E-07  0.107E-02    9.27       1.8  T
   3    -50.7586245 -0.182758E-07  0.184E-03    9.27      10.7  T
   4    -50.7586245 -0.107097E-07  0.662E-04    9.27      29.6  T
   5    -50.7586245 -0.271612E-09  0.739E-05    9.27     265.3  T
speedup  0.98
cpu  time for SCC    0.00 s
wall time for SCC    0.01 s
speedup  0.99
cpu  time for grad    0.01 s
wall time for grad    0.01 s
 E :    -50.46862744  G :  0.000406    pred/act E change: -0.829D-06 -0.789D-06
Maxdispl :   0.0059   ||displ|| :   0.0125   Lambda : -0.644D-06
Largest |displ|/coords:  0.0059 (   3)  0.0053 (  38)  0.0037 (  28)
................................................................................
.............................. CYCLE   72 ......................................
................................................................................
   1    -50.7586673 -0.507587E+02  0.104E-02    9.27       0.0  T
   2    -50.7586673 -0.301999E-07  0.775E-03    9.27       2.5  T
   3    -50.7586673 -0.119675E-07  0.133E-03    9.27      14.7  T
   4    -50.7586673 -0.529090E-08  0.596E-04    9.27      32.9  T
   5    -50.7586673 -0.165720E-09  0.524E-05    9.27     374.4  T
speedup  0.96
cpu  time for SCC    0.00 s
wall time for SCC    0.01 s
speedup  0.99
cpu  time for grad    0.01 s
wall time for grad    0.01 s
 E :    -50.46862789  G :  0.000269    pred/act E change: -0.573D-06 -0.448D-06
Maxdispl :   0.0033   ||displ|| :   0.0083   Lambda : -0.376D-06
Largest |displ|/coords:  0.0033 (  38)  0.0031 (   3)  0.0031 (   4)
................................................................................
.............................. CYCLE   73 ......................................
................................................................................
   1    -50.7586616 -0.507587E+02  0.690E-03    9.27       0.0  T
   2    -50.7586616 -0.129452E-07  0.515E-03    9.27       3.8  T
   3    -50.7586616 -0.656933E-08  0.874E-04    9.27      22.4  T
   4    -50.7586616 -0.202712E-08  0.424E-04    9.27      46.2  T
speedup  0.95
cpu  time for SCC    0.00 s
wall time for SCC    0.00 s
speedup  0.98
cpu  time for grad    0.01 s
wall time for grad    0.01 s
 E :    -50.46862815  G :  0.000198    pred/act E change: -0.322D-06 -0.256D-06
Maxdispl :   0.0024   ||displ|| :   0.0047   Lambda : -0.170D-06
Largest |displ|/coords:  0.0024 (  11)  0.0019 (   4)  0.0014 (   6)
................................................................................
.............................. CYCLE   74 ......................................
................................................................................
   1    -50.7586265 -0.507586E+02  0.368E-03    9.27       0.0  T
   2    -50.7586265 -0.293045E-08  0.274E-03    9.27       7.1  T
   3    -50.7586265 -0.246133E-08  0.424E-04    9.27      46.2  T
   4    -50.7586265 -0.305363E-09  0.130E-04    9.27     150.7  T
speedup  0.95
cpu  time for SCC    0.00 s
wall time for SCC    0.00 s
speedup  0.96
cpu  time for grad    0.01 s
wall time for grad    0.01 s
 E :    -50.46862828  G :  0.000156    pred/act E change: -0.188D-06 -0.129D-06
Maxdispl :   0.0026   ||displ|| :   0.0073   Lambda : -0.164D-06
Largest |displ|/coords:  0.0026 (  38)  0.0026 (   6)  0.0025 (  11)
................................................................................
.............................. CYCLE   75 ......................................
................................................................................
   1    -50.7585637 -0.507586E+02  0.670E-03    9.27       0.0  T
   2    -50.7585637 -0.784565E-08  0.501E-03    9.27       3.9  T
   3    -50.7585637 -0.678319E-08  0.698E-04    9.27      28.1  T
   4    -50.7585637 -0.858641E-09  0.292E-04    9.27      67.1  T
speedup  0.95
cpu  time for SCC    0.00 s
wall time for SCC    0.00 s
speedup  0.97
cpu  time for grad    0.01 s
wall time for grad    0.01 s
 E :    -50.46862838  G :  0.000185    pred/act E change: -0.848D-07 -0.103D-06
Maxdispl :   0.0038   ||displ|| :   0.0069   Lambda : -0.106D-06
Largest |displ|/coords:  0.0038 (  11)  0.0030 (   9)  0.0025 (   5)
................................................................................
.............................. CYCLE   76 ......................................
................................................................................
   1    -50.7585662 -0.507586E+02  0.497E-03    9.27       0.0  T
   2    -50.7585662 -0.412496E-08  0.373E-03    9.27       5.3  T
   3    -50.7585662 -0.295547E-08  0.488E-04    9.27      40.2  T
   4    -50.7585662 -0.600728E-09  0.178E-04    9.27     110.3  T
speedup  0.98
cpu  time for SCC    0.00 s
wall time for SCC    0.00 s
speedup  0.99
cpu  time for grad    0.01 s
wall time for grad    0.01 s
 E :    -50.46862844  G :  0.000171    pred/act E change: -0.822D-07 -0.641D-07
Maxdispl :   0.0024   ||displ|| :   0.0054   Lambda : -0.975D-07
Largest |displ|/coords:  0.0024 (   6)  0.0019 (   1)  0.0019 (   9)

   *** GEOMETRY OPTIMIZATION CONVERGED AFTER 76 ITERATIONS ***

------------------------------------------------------------------------
 total energy gain (kcal):     -0.1004
------------------------------------------------------------------------
================
 final structure:
================
$coord
        0.28940944732855       -2.07519326657931       -3.69105212796287      S 
        1.21311527992883       -3.07513515810142       -1.26317191872901      O 
       -2.16910547157844       -0.95386542572522       -3.41463968869030      O 
        2.16385405412214       -0.49471806021827       -4.90680240608524      O 
       -0.01548924929013       -4.47200087523555       -5.47157528110910      O 
        1.63478791920040       -4.59391791074578       -6.17425785804293      H 
        1.99379293468631        2.07223103684711       -3.28406992706152      H 
        1.13136609724035        0.78056413316479        4.97075996458695      O 
        2.03385644298281        0.91826725003675        6.53242375716960      H 
        2.00086568134852        3.55741947784071       -2.15062533257952      O 
        2.18579543852052        5.00584660984517       -3.22344701363338      H 
       -5.11343513238499        0.61056923344816        0.35702591830404      O 
       -3.49011469204651       -1.28240809099496        1.72342021016857      H 
       -4.49908375510098        0.17819934104877       -1.32666080325392      H 
        4.20198678440365        0.21025348976574        1.18419069761646      O 
        3.39581380404370       -1.16194085662258        0.24497988165481      H 
        3.93659127927407        1.69205039436643        0.14037351317563      H 
        2.43739944689791        0.59551821432689        3.60896822815699      H 
       -1.61260137434256        4.00180308632229        1.62149769238705      O 
       -4.18062988864084        2.15965094348830        0.80505730193896      H 
       -0.74527001554680        3.22106457407268        3.02692361401895      H 
       -0.43435985345866        3.94053203773953        0.21219883029426      H 
       -1.98188263515131       -2.46832509348219        2.48411753736210      N 
       -0.76164635924291       -2.87572650790375        0.94839705116724      H 
       -2.65725719713465       -4.08038776107839        3.26620331459632      H 
       -0.95775900497773       -1.41035085343109        3.77976482561791      H 
$end
 
 Bond Distances (Angstroems)
 ---------------------------
S1-O2=1.4730         S1-O3=1.4374         S1-O4=1.4482         S1-O5=1.5882         O2-S1=1.4730         O3-S1=1.4374         
O4-S1=1.4482         O5-S1=1.5882         O5-H6=0.9513         H6-O5=0.9513         H7-O10=0.9887        O8-H9=0.9572         
O8-H18=1.0033        H9-O8=0.9572         O10-H7=0.9887        O10-H11=0.9588       H11-O10=0.9588       O12-H14=0.9756       
O12-H20=0.9858       H13-N23=1.0922       H14-O12=0.9756       O15-H16=0.9779       O15-H17=0.9694       H16-O15=0.9779       
H17-O15=0.9694       H18-O8=1.0033        O19-H21=0.9667       O19-H22=0.9726       H20-O12=0.9858       H21-O19=0.9667       
H22-O19=0.9726       N23-H13=1.0922       N23-H24=1.0601       N23-H25=1.0133       N23-H26=1.0379       H24-N23=1.0601       
H25-N23=1.0133       H26-N23=1.0379       
 N  H  Rav=1.0509 sigma=0.0290  Rmin=1.0133  Rmax=1.0922     4
 O  H  Rav=0.9734 sigma=0.0145  Rmin=0.9513  Rmax=1.0033    11
 S  O  Rav=1.4867 sigma=0.0600  Rmin=1.4374  Rmax=1.5882     4
 
 selected bond angles (degree)
 --------------------
O3-S1-O2=111.09                O4-S1-O2=111.57                O4-S1-O3=115.26                O5-S1-O2=105.32                
O5-S1-O3=107.34                O5-S1-O4=105.50                H6-O5-S1=101.12                H18-O8-H9=106.49               
H11-O10-H7=106.06              
 
 selected dihedral angles (degree)
 ---------------------------------
H6-O5-S1-O2=272.36            H6-O5-S1-O3=153.90            H6-O5-S1-O4= 30.50            
 
 CMA Distance (Angstroems)
 ---------------------------
R(CMA):  3.2502

========================================================================
 FINAL SINGLEPOINT CALCULATION ON OPTIMIZED GEOMETRY
========================================================================

 Ncao       : 65
 Nao        : 64
 Nshell     : 38
 Nel        : 80
 T(el)      :   300.0
 intcut     :    25.0
 scfconv/Eh :  0.100E-05
   qconv/e  :  0.100E-03
 intneglect :  0.100E-07
 broydamp   :      0.250
 iter      E             dE          RMSdq      gap      omega  full diag
   1    -50.7585662 -0.507586E+02  0.631E-05    9.27       0.0  T
   2    -50.7585662 -0.169109E-11  0.404E-05    9.27     485.1  T
   3    -50.7585662 -0.852651E-12  0.560E-06    9.27    3502.6  T
speedup  1.03
cpu  time for SCC    0.00 s
wall time for SCC    0.00 s

   *** convergence criteria satisfied after 3 iterations ***

          eigenvalues
 #    :          28         29         30         31         32         33         34         35
 occ. :        2.000      2.000      2.000      2.000      2.000      2.000      2.000      2.000
 eps  :       -13.346    -13.302    -12.504    -12.399    -12.283    -12.168    -12.135    -11.983
 #    :          36         37         38         39         40         41         42         43
 occ. :        2.000      2.000      2.000      2.000      2.000      0.000      0.000      0.000
 eps  :       -11.950    -11.922    -11.867    -11.701    -11.624     -2.354     -0.958     -0.383
 #    :          44         45         46         47         48         49         50         51
 occ. :        0.000      0.000      0.000      0.000      0.000      0.000      0.000      0.000
 eps  :         0.900      1.029      1.220      2.138      2.893      4.132      4.441      5.089


   #   Z            q   n(s)   n(p)   n(d)      C6AA      α(0)
   1  16 S      1.661  1.584  1.797  0.958    89.668    15.938
   2   8 O     -0.753  1.770  4.983  0.000    30.200     7.368
   3   8 O     -0.712  1.755  4.958  0.000    29.046     7.226
   4   8 O     -0.739  1.774  4.964  0.000    29.784     7.317
   5   8 O     -0.590  1.752  4.838  0.000    24.914     6.738
   6   1 H      0.344  0.656  0.000  0.000     0.593     1.204
   7   1 H      0.327  0.673  0.000  0.000     0.644     1.261
   8   8 O     -0.635  1.748  4.887  0.000    26.055     6.889
   9   1 H      0.282  0.718  0.000  0.000     0.777     1.384
  10   8 O     -0.633  1.743  4.889  0.000    25.982     6.879
  11   1 H      0.292  0.708  0.000  0.000     0.746     1.357
  12   8 O     -0.606  1.756  4.850  0.000    25.311     6.791
  13   1 H      0.304  0.696  0.000  0.000     0.702     1.312
  14   1 H      0.331  0.669  0.000  0.000     0.635     1.252
  15   8 O     -0.621  1.753  4.868  0.000    25.696     6.842
  16   1 H      0.320  0.680  0.000  0.000     0.665     1.281
  17   1 H      0.320  0.680  0.000  0.000     0.664     1.280
  18   1 H      0.342  0.658  0.000  0.000     0.609     1.226
  19   8 O     -0.625  1.756  4.870  0.000    25.805     6.856
  20   1 H      0.336  0.664  0.000  0.000     0.622     1.239
  21   1 H      0.309  0.691  0.000  0.000     0.695     1.309
  22   1 H      0.317  0.683  0.000  0.000     0.672     1.288
  23   7 N     -0.356  1.281  4.075  0.000    29.145     8.018
  24   1 H      0.286  0.714  0.000  0.000     0.756     1.362
  25   1 H      0.221  0.779  0.000  0.000     1.006     1.571
  26   1 H      0.279  0.721  0.000  0.000     0.780     1.384

 Mol. C6AA /au·bohr⁶  :       5446.848285
 Mol. C8AA /au·bohr⁸  :     117932.641772
 Mol. α(0) /au        :        106.571301

 
 Wiberg/Mayer (AO) data. WBOs > 0.1 written file <wbo>
 largest (>0.05) Wiberg bond orders for each atom
           total WBO             WBO to atom ...
     1  S   4.876    O    3 1.393    O    4 1.323    O    2 1.232    O    5 0.890
     2  O   1.739    S    1 1.232    O    3 0.112    H   24 0.106    O    4 0.103    O    5 0.069
     3  O   1.741    S    1 1.393    O    4 0.112    O    2 0.112    O    5 0.066
     4  O   1.734    S    1 1.323    O    3 0.112    O    2 0.103    H    7 0.078    O    5 0.076
     5  O   1.971    S    1 0.890    H    6 0.865    O    4 0.076    O    2 0.069    O    3 0.066
     6  H   0.881    O    5 0.865
     7  H   0.893    O   10 0.806    O    4 0.078
     8  O   1.868    H    9 0.911    H   18 0.777    H   26 0.064
     9  H   0.920    O    8 0.911
    10  O   1.853    H   11 0.907    H    7 0.806
    11  H   0.915    O   10 0.907
    12  O   1.977    H   14 0.849    H   20 0.822    H   13 0.172    N   23 0.078
    13  H   0.908    N   23 0.731    O   12 0.172
    14  H   0.890    O   12 0.849
    15  O   1.906    H   17 0.865    H   16 0.844    H   18 0.104
    16  H   0.898    O   15 0.844
    17  H   0.898    O   15 0.865
    18  H   0.883    O    8 0.777    O   15 0.104
    19  O   1.866    H   21 0.877    H   22 0.857    H   20 0.063
    20  H   0.887    O   12 0.822    O   19 0.063
    21  H   0.905    O   19 0.877
    22  H   0.899    O   19 0.857
    23  N   3.511    H   25 0.948    H   26 0.854    H   24 0.805    H   13 0.731    O   12 0.078
    24  H   0.918    N   23 0.805    O    2 0.106
    25  H   0.951    N   23 0.948
    26  H   0.922    N   23 0.854    O    8 0.064
 MOs/occ written to file <molden.input>
 
molecular dipole:
                 x           y           z       tot (Debye)
 q only:       -0.050      -0.606       1.921
   full:        0.647      -0.865       1.161       4.031
molecular quadrupole (traceless):
                xx          xy          yy          xz          yz          zz
 q only:       -8.340       5.528       3.765      -4.303      -8.096       4.575
  q+dip:      -13.967       6.398       4.263      -4.482      -7.833       9.704
   full:      -14.513       6.523       4.359      -4.652      -7.504      10.154

SCC energy    :     -50.7585662
rep           :       0.2895686
ES            :       0.2634697
AES           :      -0.0744987
AXC           :      -0.0082394
disp          :      -0.0194176
XB            :       0.0000000
fix           :       0.0000000
total E       :     -50.4686284
atomizationE  :       4.9989326     3136.88
(atE without considering molecular charge,
 total energy contains solvation terms)
H-L gap (eV)  :          9.2701
optimized geometry written to: xtbopt.xyz


------------------------------------------------------------------------
 * finished run on 2019/09/16 at 12:33:04.864     
------------------------------------------------------------------------
 total:
 * wall-time:     0 d,  0 h,  0 min,  2.076 sec
 *  cpu-time:     0 d,  0 h,  0 min,  1.944 sec
 * ratio c/w:     0.936 speedup
 SCF:
 * wall-time:     0 d,  0 h,  0 min,  0.160 sec
 *  cpu-time:     0 d,  0 h,  0 min,  0.156 sec
 * ratio c/w:     0.974 speedup
 ANC optimizer:
 * wall-time:     0 d,  0 h,  0 min,  1.784 sec
 *  cpu-time:     0 d,  0 h,  0 min,  1.761 sec
 * ratio c/w:     0.987 speedup

