      -----------------------------------------------------------      
     |                   =====================                   |     
     |                           x T B                           |     
     |                   =====================                   |     
     |                         S. Grimme                         |     
     |          Mulliken Center for Theoretical Chemistry        |     
     |                    University of Bonn                     |     
     |                 Version 6.0.1 (SAW181210)                 |     
      -----------------------------------------------------------      

   This program is distributed in the hope that it will be useful,
   but WITHOUT ANY WARRANTY; without even the implied warranty of
   MERCHANTABILITY or FITNESS FOR A PARTICULAR PURPOSE.
   
   FOR NON-COMMERCIAL, ACADEMIA USE ONLY.
   
   Cite this work as:
   S. Grimme, C. Bannwarth, P. Shushkov, J. Comput. Theory Chem., 2017,
   13, 1989-2009.
   C. Bannwarth, S. Ehlert and S. Grimme., ChemRxiv, 2018, preprint.
   http://doi.org/10.26434/chemrxiv.7246238.v1
   
   for sTDA-xTB:
   S. Grimme and C. Bannwarth, J. Chem. Phys., 2016, 145, 054103.
   
   in the mass-spec context:
   V. Asgeirsson, C. Bauer and S. Grimme, Chem. Sci., 2017, 8, 4879.
   
   if GBSA is used:
   P. Shushkov, F. März and S. Grimme, unpublished.
   
   for ANC optimizer:
   S. Grimme, unpublished.
   Rational Function algorithm used in ANCopt:
   F. Eckert, P. Pulay, H.-J. Werner, J. Comput. Chem., 1997, 18, 1473.
   
   with help from (in alphabetical order)
   C. Bannwarth, F. Bohle, G. Brandenburg, E. Caldeweyher, M. Checinski,
   S. Dohm, S. Ehlert, S. Ehrlich, F. März, H. Neugebauer, J. Pisarek,
   P. Pracht, P. Shushkov, and S. Spicher.
   
 * started run on 2019/09/16 at 11:34:39.130     
========================================================================
 # omp threads = 1
========================================================================
number of atoms            : 26
number of electrons        : 80
charge                     : 0
spin                       : .0
first test random number   : .2383

########################################################################
# WARNING! Please study the warnings concerning your input carefully
#  - XTBPATH is not set, using XTBHOME instead
#  - the use of '-opt' is discouraged, please use '--opt' next time
#  - the use of '-chrg' is discouraged, please use '--chrg' next time
#  - the use of '-uhf' is discouraged, please use '--uhf' next time
########################################################################

           ------------------------------------------------- 
          |                 G F N 2 - x T B                 |
          | Geometry, Frequencies, Noncovalent interactions |
          |            JCTC 2018 parametrisation            |
           ------------------------------------------------- 
      method parameters     
 k(s)        :  1.8500
 k(p)        :  2.2300
 k(d)        :  2.2300
 k(f)        :  2.0000
 kEN (H0ij)  : -2.0000
 D4 a1       :  0.5200
 D4 a2       :  5.0000
 D4 s6       :  1.0000
 D4 s8       :  2.7000
 D4 s9       :  5.0000
 alphaj      :  2.0000


            Z     q(EN)     CN     RAES       Cart. coordinates
     1  S   6.0    0.61    4.51    4.58     1.54181     0.93945     0.47084
     2  O   6.0   -0.31    1.17    1.80     1.91015     1.98624    -2.11695
     3  O   6.0   -0.33    1.24    1.80     2.90403    -1.51474     0.69321
     4  O   6.0   -0.27    2.11    1.84    -1.16762     0.53928     0.93055
     5  O   6.0   -0.25    2.10    1.84     2.54439     2.72774     2.34417
     6  H   1.0    0.16    1.29    1.49     1.21168     3.24565     3.46074
     7  H   1.0    0.16    1.28    1.49    -1.82337    -0.62884    -0.29280
     8  O   6.0   -0.29    2.03    1.83     0.93023    -1.10444    -6.09967
     9  H   1.0    0.17    1.02    1.43     1.42967     0.38122    -5.17339
    10  H   1.0    0.16    1.02    1.43     2.24170    -2.32859    -5.78968
    11  O   6.0   -0.29    2.03    1.83    -1.29851     4.23417     5.20978
    12  H   1.0    0.15    1.05    1.44    -2.89296     4.58914     4.40583
    13  H   1.0    0.14    0.97    1.43    -1.49141     4.79608     6.93073
    14  O   6.0   -0.29    2.03    1.83    -2.57858    -2.50033    -2.80323
    15  H   1.0    0.16    1.04    1.43    -1.52499    -1.99057    -4.19775
    16  H   1.0    0.15    0.97    1.43    -3.17301    -4.16666    -3.23289
    17  O   6.0   -0.28    2.00    1.83     4.19052    -4.14594    -3.65363
    18  H   1.0    0.16    0.99    1.43     4.44331    -5.75256    -2.83543
    19  H   1.0    0.17    1.03    1.43     4.01708    -2.93909    -2.30157
    20  O   6.0   -0.28    1.95    1.82     4.31790    -6.41832     1.11614
    21  H   1.0    0.15    0.97    1.43     5.50189    -6.49904     2.49681
    22  H   1.0    0.17    1.03    1.43     3.73139    -4.69505     1.08499
    23  N   5.0   -0.22    3.01    1.93    -5.79782     5.22762     2.67627
    24  H   1.0    0.10    0.99    1.43    -7.31218     5.98335     3.59640
    25  H   1.0    0.10    0.99    1.43    -6.43820     3.60423     1.86043
    26  H   1.0    0.10    0.99    1.43    -5.41709     6.43000     1.22011

  Z AO/shell   Hii/eV     exponent
  1     Wed Apr 25 08:07:45 CEST 2018   EN: 2.200 GM2: 0.406  GM3: 0.0800  RAES: 1.40
     1s    -10.707211    1.230000
  7     Wed Apr 25 08:07:45 CEST 2018   EN: 3.040 GM2: 0.461  GM3:-0.0640  RAES: 1.90
     2s    -16.686243    2.339881
     2p    -12.523956    2.014332
  8     Wed Apr 25 08:07:45 CEST 2018   EN: 3.440 GM2: 0.452  GM3:-0.0517  RAES: 1.80
     2s    -20.229985    2.439742
     2p    -15.503117    2.137023
 16     Tue Apr 24 11:44:34 CEST 2018   EN: 2.580 GM2: 0.340  GM3:-0.0502  RAES: 3.10
     3s    -20.029654    1.981333
     3p    -11.377694    2.025643
     3d     -0.420282    1.702555
 no old-style atom pair restraining (fixing) potential

molecular fragmentation (1/2 indicates fragments):
11111112222222222222222222
# atoms in fragment 1/2:     7    19
 fragment masses (1/2) :       98.07      107.11
CMA distance (Bohr)    :   2.561
constraining FC (au)   :  0.0500
           ------------------------------------------------- 
          |        Self-Consistent Charge Iterations        |
           ------------------------------------------------- 

 Ncao       : 65
 Nao        : 64
 Nshell     : 38
 Nel        : 80
 T(el)      :   300.0
 intcut     :    25.0
 scfconv/Eh :  0.100E-05
   qconv/e  :  0.100E-03
 intneglect :  0.100E-07
 broydamp   :      0.250
 iter      E             dE          RMSdq      gap      omega  full diag
   1    -50.6229096 -0.506229E+02  0.702E+00   10.30       0.0  T
   2    -50.6792206 -0.563110E-01  0.504E+00    9.82       1.0  T
   3    -50.7190600 -0.398394E-01  0.141E+00    7.96       1.0  T
   4    -50.7252368 -0.617676E-02  0.584E-01    8.23       1.0  T
   5    -50.7259017 -0.664877E-03  0.357E-01    8.16       1.0  T
   6    -50.7265360 -0.634296E-03  0.163E-01    8.24       1.0  T
   7    -50.7267044 -0.168440E-03  0.621E-02    8.23       1.0  T
   8    -50.7267250 -0.206236E-04  0.373E-02    8.22       1.0  T
   9    -50.7267335 -0.845609E-05  0.154E-02    8.24       1.3  T
  10    -50.7267352 -0.167972E-05  0.277E-03    8.24       7.1  T
  11    -50.7267352 -0.245082E-07  0.132E-03    8.24      14.9  T
  12    -50.7267352 -0.658122E-08  0.592E-04    8.24      33.1  T
  13    -50.7267352 -0.194364E-08  0.155E-04    8.24     126.3  T
speedup  1.00
cpu  time for SCC    0.01 s
wall time for SCC    0.01 s

   *** convergence criteria satisfied after 13 iterations ***

          eigenvalues
 #    :          28         29         30         31         32         33         34         35
 occ. :        2.000      2.000      2.000      2.000      2.000      2.000      2.000      2.000
 eps  :       -13.076    -12.789    -12.759    -12.648    -12.423    -12.203    -11.979    -11.951
 #    :          36         37         38         39         40         41         42         43
 occ. :        2.000      2.000      2.000      2.000      2.000      0.000      0.000      0.000
 eps  :       -11.923    -11.674    -11.241    -11.058    -10.904     -2.663     -1.326     -0.339
 #    :          44         45         46         47         48         49         50         51
 occ. :        0.000      0.000      0.000      0.000      0.000      0.000      0.000      0.000
 eps  :         0.227      0.539      1.773      2.095      2.659      4.171      4.348      4.396


   #   Z            q   n(s)   n(p)   n(d)      C6AA      α(0)
   1  16 S      1.714  1.573  1.773  0.940    88.455    15.829
   2   8 O     -0.715  1.775  4.940  0.000    29.125     7.236
   3   8 O     -0.736  1.770  4.966  0.000    29.701     7.307
   4   8 O     -0.574  1.715  4.860  0.000    24.553     6.689
   5   8 O     -0.551  1.716  4.835  0.000    24.010     6.615
   6   1 H      0.411  0.589  0.000  0.000     0.458     1.059
   7   1 H      0.421  0.579  0.000  0.000     0.441     1.039
   8   8 O     -0.626  1.743  4.882  0.000    25.808     6.856
   9   1 H      0.311  0.689  0.000  0.000     0.690     1.304
  10   1 H      0.325  0.675  0.000  0.000     0.652     1.268
  11   8 O     -0.620  1.739  4.881  0.000    25.669     6.838
  12   1 H      0.325  0.675  0.000  0.000     0.650     1.267
  13   1 H      0.296  0.704  0.000  0.000     0.734     1.346
  14   8 O     -0.642  1.744  4.898  0.000    26.225     6.912
  15   1 H      0.339  0.661  0.000  0.000     0.615     1.232
  16   1 H      0.298  0.702  0.000  0.000     0.728     1.341
  17   8 O     -0.618  1.738  4.880  0.000    25.625     6.832
  18   1 H      0.306  0.694  0.000  0.000     0.704     1.318
  19   1 H      0.307  0.693  0.000  0.000     0.700     1.314
  20   8 O     -0.603  1.741  4.862  0.000    25.255     6.783
  21   1 H      0.271  0.729  0.000  0.000     0.814     1.417
  22   1 H      0.320  0.680  0.000  0.000     0.664     1.280
  23   7 N     -0.440  1.391  4.048  0.000    31.521     8.338
  24   1 H      0.157  0.843  0.000  0.000     1.353     1.822
  25   1 H      0.164  0.836  0.000  0.000     1.307     1.791
  26   1 H      0.161  0.839  0.000  0.000     1.326     1.804

 Mol. C6AA /au·bohr⁶  :       5456.100646
 Mol. C8AA /au·bohr⁸  :     117655.163400
 Mol. α(0) /au        :        106.836344

 
 Wiberg/Mayer (AO) data. WBOs > 0.1 written file <wbo>
 largest (>0.05) Wiberg bond orders for each atom
           total WBO             WBO to atom ...
     1  S   4.814    O    2 1.351    O    3 1.309    O    5 1.069    O    4 1.040
     2  O   1.702    S    1 1.351    O    3 0.131    O    4 0.091    O    5 0.080
     3  O   1.690    S    1 1.309    O    2 0.131    O    4 0.087    O    5 0.077
     4  O   2.030    S    1 1.040    H    7 0.733    O    2 0.091    O    3 0.087
     5  O   2.055    S    1 1.069    H    6 0.744    O    2 0.080    O    3 0.077
     6  H   0.831    O    5 0.744    O   11 0.063
     7  H   0.823    O    4 0.733    O   14 0.066
     8  O   1.874    H    9 0.873    H   10 0.858    H   15 0.071
     9  H   0.903    O    8 0.873
    10  H   0.895    O    8 0.858
    11  O   1.851    H   13 0.905    H   12 0.832    H    6 0.063
    12  H   0.894    O   11 0.832    N   23 0.059
    13  H   0.912    O   11 0.905
    14  O   1.837    H   16 0.902    H   15 0.812    H    7 0.066
    15  H   0.885    O   14 0.812    O    8 0.071
    16  H   0.911    O   14 0.902
    17  O   1.835    H   18 0.886    H   19 0.872
    18  H   0.907    O   17 0.886
    19  H   0.906    O   17 0.872
    20  O   1.826    H   21 0.924    H   22 0.860
    21  H   0.926    O   20 0.924
    22  H   0.898    O   20 0.860
    23  N   3.002    H   24 0.972    H   26 0.972    H   25 0.971    H   12 0.059
    24  H   0.975    N   23 0.972
    25  H   0.973    N   23 0.971
    26  H   0.974    N   23 0.972
 MOs/occ written to file <molden.input>
 
molecular dipole:
                 x           y           z       tot (Debye)
 q only:       -2.100       1.370       2.211
   full:       -2.629       1.745       2.807      10.735
molecular quadrupole (traceless):
                xx          xy          yy          xz          yz          zz
 q only:        3.089      -5.593       0.563       1.647       8.416      -3.652
  q+dip:        7.455      -9.689       0.354       3.242       7.635      -7.809
   full:        7.209      -9.598       0.559       3.291       8.337      -7.767

SCC energy    :     -50.7267352
rep           :       0.3158065
ES            :       0.2458249
AES           :      -0.0484420
AXC           :      -0.0068412
disp          :      -0.0163065
XB            :       0.0000000
fix           :       0.0000000
total E       :     -50.4107879
atomizationE  :       4.9410921     3100.58
(atE without considering molecular charge,
 total energy contains solvation terms)
H-L gap (eV)  :          8.2418
           ------------------------------------------------- 
          |                 ===============                 |
          |                   A N C O P T                   |
          |                 ===============                 |
          |          Approximate Normal Coordinate          |
          |           Rational Function Optimizer           |
           ------------------------------------------------- 
dumping coords to <xtbopt.coord> and <xtbopt.log>
 optlevel               2
 Maxcycle             520
 Maxmicro              25
 Econv         1.000000000000000E-007
 Gconv         2.000000000000000E-004
 Maxdispl       1.00000000000000     
 Hlow          5.000000000000000E-003
 S6             20.0000000000000     
 Nvar               72

generating ANC from model Hessian ...
 Shifting diagonal of input Hessian by   5.131126581528665E-003
 Lowest  eigenvalues of input Hessian
    0.005000    0.005069   -0.000000   -0.000000   -0.000000    0.000000
    0.000000    0.000000    0.005145    0.005253    0.005293    0.005711
    0.005829    0.005959    0.006174    0.006283    0.006560    0.007486
 Highest eigenvalues
    1.422497    1.457532    1.558106    3.214802    3.411559    3.463298
 
cpu  time for ANC gen    0.01 s
wall time for ANC gen    0.01 s
................................................................................
.............................. CYCLE    1 ......................................
................................................................................
   1    -50.7267352 -0.507267E+02  0.711E-05    8.24       0.0  T
   2    -50.7267352 -0.135572E-10  0.549E-05    8.24     357.1  T
   3    -50.7267352 -0.999734E-11  0.338E-05    8.24     580.3  T
speedup  0.71
cpu  time for SCC    0.00 s
wall time for SCC    0.00 s
speedup  0.93
cpu  time for grad    0.01 s
wall time for grad    0.01 s
 E :    -50.41078791  G :  0.185203    pred/act E change:  0.000D+00  0.370D-07
Maxdispl :   0.1097   ||displ|| :   0.2951   Lambda : -0.158D-01
Largest |displ|/coords:  0.1097 (  29)  0.1020 (  13)  0.0927 (  30)
................................................................................
.............................. CYCLE    2 ......................................
................................................................................
   1    -50.7271436 -0.507271E+02  0.356E-01    8.32       0.0  T
   2    -50.7273233 -0.179756E-03  0.275E-01    8.36       1.0  T
   3    -50.7273799 -0.565882E-04  0.113E-01    8.44       1.0  T
   4    -50.7273967 -0.167930E-04  0.215E-02    8.45       1.0  T
   5    -50.7273977 -0.954999E-06  0.473E-03    8.45       4.1  T
   6    -50.7273977 -0.233700E-07  0.247E-03    8.44       8.0  T
speedup  0.96
cpu  time for SCC    0.00 s
wall time for SCC    0.01 s
speedup  0.97
cpu  time for grad    0.01 s
wall time for grad    0.01 s
 E :    -50.42306739  G :  0.119175    pred/act E change:  0.000D+00 -0.123D-01
Maxdispl :   0.1074   ||displ|| :   0.2553   Lambda : -0.852D-02
Largest |displ|/coords:  0.1074 (  13)  0.0784 (  23)  0.0762 (  14)
................................................................................
.............................. CYCLE    3 ......................................
................................................................................
   1    -50.7315206 -0.507315E+02  0.245E-01    8.47       0.0  T
   2    -50.7316936 -0.173007E-03  0.192E-01    8.51       1.0  T
   3    -50.7317387 -0.450988E-04  0.109E-01    8.55       1.0  T
   4    -50.7317440 -0.526112E-05  0.191E-02    8.58       1.0  T
   5    -50.7317445 -0.490339E-06  0.324E-03    8.57       6.1  T
   6    -50.7317445 -0.135827E-07  0.166E-03    8.57      11.8  T
speedup  0.96
cpu  time for SCC    0.00 s
wall time for SCC    0.01 s
speedup  0.96
cpu  time for grad    0.01 s
wall time for grad    0.01 s
 E :    -50.42966421  G :  0.064225    pred/act E change: -0.858D-02 -0.660D-02
Maxdispl :   0.0832   ||displ|| :   0.2456   Lambda : -0.380D-02
Largest |displ|/coords:  0.0832 (  23)  0.0787 (  13)  0.0718 (  29)
................................................................................
.............................. CYCLE    4 ......................................
................................................................................
   1    -50.7321609 -0.507322E+02  0.218E-01    8.51       0.0  T
   2    -50.7322580 -0.971216E-04  0.170E-01    8.54       1.0  T
   3    -50.7322838 -0.257443E-04  0.785E-02    8.58       1.0  T
   4    -50.7322901 -0.631145E-05  0.164E-02    8.59       1.2  T
   5    -50.7322904 -0.329718E-06  0.268E-03    8.59       7.3  T
   6    -50.7322904 -0.745200E-08  0.152E-03    8.59      12.9  T
speedup  1.15
cpu  time for SCC    0.01 s
wall time for SCC    0.01 s
speedup  1.04
cpu  time for grad    0.01 s
wall time for grad    0.01 s
 E :    -50.43244571  G :  0.032045    pred/act E change: -0.454D-02 -0.278D-02
Maxdispl :   0.1220   ||displ|| :   0.3114   Lambda : -0.263D-02
Largest |displ|/coords:  0.1220 (   5)  0.0911 (  32)  0.0903 (  13)
................................................................................
.............................. CYCLE    5 ......................................
................................................................................
   1    -50.7334734 -0.507335E+02  0.273E-01    8.44       0.0  T
   2    -50.7336046 -0.131232E-03  0.209E-01    8.47       1.0  T
   3    -50.7336401 -0.354622E-04  0.834E-02    8.52       1.0  T
   4    -50.7336508 -0.107519E-04  0.214E-02    8.53       1.0  T
   5    -50.7336514 -0.518109E-06  0.322E-03    8.53       6.1  T
   6    -50.7336514 -0.112918E-07  0.201E-03    8.53       9.8  T
speedup  0.94
cpu  time for SCC    0.00 s
wall time for SCC    0.01 s
speedup  1.03
cpu  time for grad    0.01 s
wall time for grad    0.01 s
 E :    -50.43343629  G :  0.023893    pred/act E change: -0.202D-02 -0.991D-03
Maxdispl :   0.1486   ||displ|| :   0.4070   Lambda : -0.237D-02
Largest |displ|/coords:  0.1486 (  12)  0.1238 (   5)  0.1216 (  10)
................................................................................
.............................. CYCLE    6 ......................................
................................................................................
   1    -50.7207861 -0.507208E+02  0.493E-01    8.35       0.0  T
   2    -50.7209186 -0.132501E-03  0.370E-01    8.36       1.0  T
   3    -50.7209941 -0.755049E-04  0.670E-02    8.37       1.0  T
   4    -50.7210137 -0.196112E-04  0.194E-02    8.38       1.0  T
   5    -50.7210144 -0.662678E-06  0.594E-03    8.38       3.3  T
   6    -50.7210144 -0.596119E-07  0.370E-03    8.38       5.3  T
speedup  0.94
cpu  time for SCC    0.00 s
wall time for SCC    0.01 s
speedup  1.03
cpu  time for grad    0.01 s
wall time for grad    0.01 s
 E :    -50.43277258  G :  0.061911    pred/act E change: -0.144D-02  0.664D-03
Maxdispl :   0.1598   ||displ|| :   0.4510   Lambda : -0.882D-02
Largest |displ|/coords:  0.1598 (  13)  0.1540 (  14)  0.1420 (  10)
................................................................................
.............................. CYCLE    7 ......................................
................................................................................
   1    -50.7384758 -0.507385E+02  0.639E-01    8.43       0.0  T
   2    -50.7387603 -0.284470E-03  0.480E-01    8.43       1.0  T
   3    -50.7389286 -0.168377E-03  0.994E-02    8.43       1.0  T
   4    -50.7389670 -0.383316E-04  0.304E-02    8.41       1.0  T
   5    -50.7389692 -0.220908E-05  0.946E-03    8.41       2.1  T
   6    -50.7389692 -0.538640E-07  0.498E-03    8.41       3.9  T
   7    -50.7389693 -0.580503E-07  0.107E-03    8.41      18.3  T
speedup  1.00
cpu  time for SCC    0.01 s
wall time for SCC    0.01 s
speedup  0.98
cpu  time for grad    0.01 s
wall time for grad    0.01 s
 E :    -50.43226585  G :  0.048902    pred/act E change: -0.138D-02  0.507D-03
Maxdispl :   0.1022   ||displ|| :   0.2295   Lambda : -0.292D-02
Largest |displ|/coords:  0.1022 (  11)  0.0999 (  13)  0.0620 (  12)
................................................................................
.............................. CYCLE    8 ......................................
................................................................................
   1    -50.7310294 -0.507310E+02  0.360E-01    8.47       0.0  T
   2    -50.7310724 -0.430700E-04  0.272E-01    8.46       1.0  T
   3    -50.7311017 -0.292804E-04  0.374E-02    8.45       1.0  T
   4    -50.7311079 -0.620649E-05  0.995E-03    8.46       2.0  T
   5    -50.7311082 -0.250218E-06  0.312E-03    8.46       6.3  T
   6    -50.7311082 -0.607558E-08  0.182E-03    8.46      10.8  T
speedup  0.94
cpu  time for SCC    0.01 s
wall time for SCC    0.01 s
speedup  0.95
cpu  time for grad    0.01 s
wall time for grad    0.01 s
 E :    -50.43390114  G :  0.025666    pred/act E change: -0.530D-02 -0.164D-02
Maxdispl :   0.1611   ||displ|| :   0.3746   Lambda : -0.302D-02
Largest |displ|/coords:  0.1611 (   5)  0.1228 (  14)  0.1049 (  18)
................................................................................
.............................. CYCLE    9 ......................................
................................................................................
   1    -50.7250916 -0.507251E+02  0.459E-01    8.35       0.0  T
   2    -50.7252548 -0.163180E-03  0.342E-01    8.36       1.0  T
   3    -50.7253336 -0.787848E-04  0.758E-02    8.38       1.0  T
   4    -50.7253548 -0.212318E-04  0.234E-02    8.38       1.0  T
   5    -50.7253562 -0.131174E-05  0.626E-03    8.38       3.1  T
   6    -50.7253562 -0.597483E-07  0.389E-03    8.38       5.0  T
   7    -50.7253562 -0.248804E-07  0.102E-03    8.38      19.3  T
speedup  1.00
cpu  time for SCC    0.01 s
wall time for SCC    0.01 s
speedup  1.05
cpu  time for grad    0.01 s
wall time for grad    0.01 s
 E :    -50.43242252  G :  0.059638    pred/act E change: -0.154D-02  0.148D-02
Maxdispl :   0.1880   ||displ|| :   0.4640   Lambda : -0.115D-01
Largest |displ|/coords:  0.1880 (  12)  0.1524 (  24)  0.1423 (   8)
................................................................................
.............................. CYCLE   10 ......................................
................................................................................
   1    -50.7258039 -0.507258E+02  0.739E-01    8.38       0.0  T
   2    -50.7261800 -0.376124E-03  0.552E-01    8.39       1.0  T
   3    -50.7263931 -0.213090E-03  0.114E-01    8.39       1.0  T
   4    -50.7264411 -0.479261E-04  0.325E-02    8.38       1.0  T
   5    -50.7264438 -0.276406E-05  0.105E-02    8.38       1.9  T
   6    -50.7264439 -0.808190E-07  0.620E-03    8.38       3.2  T
   7    -50.7264440 -0.680574E-07  0.150E-03    8.38      13.0  T
   8    -50.7264440 -0.472480E-08  0.479E-04    8.38      41.0  T
speedup  1.03
cpu  time for SCC    0.01 s
wall time for SCC    0.01 s
speedup  0.99
cpu  time for grad    0.01 s
wall time for grad    0.01 s
 E :    -50.43067680  G :  0.074979    pred/act E change: -0.172D-02  0.175D-02
Maxdispl :   0.2721   ||displ|| :   0.4756   Lambda : -0.145D-01
Largest |displ|/coords:  0.2721 (  12)  0.2039 (   8)  0.1269 (  13)
................................................................................
.............................. CYCLE   11 ......................................
................................................................................
   1    -50.7334802 -0.507335E+02  0.791E-01    8.45       0.0  T
   2    -50.7338192 -0.339040E-03  0.596E-01    8.46       1.0  T
   3    -50.7340377 -0.218413E-03  0.110E-01    8.47       1.0  T
   4    -50.7340847 -0.470531E-04  0.243E-02    8.47       1.0  T
   5    -50.7340862 -0.149596E-05  0.111E-02    8.47       1.8  T
   6    -50.7340863 -0.531870E-07  0.578E-03    8.47       3.4  T
   7    -50.7340863 -0.745010E-07  0.105E-03    8.47      18.7  T
speedup  1.00
cpu  time for SCC    0.01 s
wall time for SCC    0.01 s
speedup  1.05
cpu  time for grad    0.01 s
wall time for grad    0.01 s
 E :    -50.43291243  G :  0.048732    pred/act E change: -0.698D-02 -0.224D-02
Maxdispl :   0.0955   ||displ|| :   0.1878   Lambda : -0.204D-02
Largest |displ|/coords:  0.0955 (   5)  0.0673 (   6)  0.0552 (  20)
................................................................................
.............................. CYCLE   12 ......................................
................................................................................
   1    -50.7333310 -0.507333E+02  0.222E-01    8.43       0.0  T
   2    -50.7333465 -0.154768E-04  0.167E-01    8.43       1.0  T
   3    -50.7333582 -0.116806E-04  0.223E-02    8.42       1.0  T
   4    -50.7333602 -0.202894E-05  0.481E-03    8.43       4.1  T
   5    -50.7333602 -0.254197E-07  0.237E-03    8.43       8.3  T
speedup  0.91
cpu  time for SCC    0.00 s
wall time for SCC    0.00 s
speedup  1.01
cpu  time for grad    0.01 s
wall time for grad    0.01 s
 E :    -50.43421721  G :  0.023843    pred/act E change: -0.891D-02 -0.130D-02
Maxdispl :   0.1339   ||displ|| :   0.2742   Lambda : -0.145D-02
Largest |displ|/coords:  0.1339 (  11)  0.1208 (   5)  0.1015 (   4)
................................................................................
.............................. CYCLE   13 ......................................
................................................................................
   1    -50.7264429 -0.507264E+02  0.281E-01    8.37       0.0  T
   2    -50.7264704 -0.275617E-04  0.212E-01    8.38       1.0  T
   3    -50.7264912 -0.208012E-04  0.306E-02    8.40       1.0  T
   4    -50.7264948 -0.360051E-05  0.719E-03    8.39       2.7  T
   5    -50.7264949 -0.742050E-07  0.338E-03    8.39       5.8  T
   6    -50.7264949 -0.130575E-07  0.168E-03    8.39      11.7  T
speedup  1.13
cpu  time for SCC    0.01 s
wall time for SCC    0.01 s
speedup  1.02
cpu  time for grad    0.01 s
wall time for grad    0.01 s
 E :    -50.43492059  G :  0.020702    pred/act E change: -0.105D-02 -0.703D-03
Maxdispl :   0.1277   ||displ|| :   0.1929   Lambda : -0.559D-03
Largest |displ|/coords:  0.1277 (   5)  0.0530 (   1)  0.0495 (  11)
................................................................................
.............................. CYCLE   14 ......................................
................................................................................
   1    -50.7280239 -0.507280E+02  0.137E-01    8.40       0.0  T
   2    -50.7280305 -0.662617E-05  0.103E-01    8.40       1.0  T
   3    -50.7280357 -0.524181E-05  0.147E-02    8.39       1.3  T
   4    -50.7280366 -0.911713E-06  0.379E-03    8.40       5.2  T
   5    -50.7280367 -0.237927E-07  0.164E-03    8.40      12.0  T
speedup  1.16
cpu  time for SCC    0.00 s
wall time for SCC    0.00 s
speedup  1.03
cpu  time for grad    0.01 s
wall time for grad    0.01 s
 E :    -50.43523729  G :  0.023408    pred/act E change: -0.781D-03 -0.317D-03
Maxdispl :   0.1615   ||displ|| :   0.2559   Lambda : -0.687D-03
Largest |displ|/coords:  0.1615 (   5)  0.1119 (   4)  0.0732 (  11)
................................................................................
.............................. CYCLE   15 ......................................
................................................................................
   1    -50.7291679 -0.507292E+02  0.118E-01    8.40       0.0  T
   2    -50.7291704 -0.248306E-05  0.890E-02    8.41       1.0  T
   3    -50.7291728 -0.249087E-05  0.846E-03    8.42       2.3  T
   4    -50.7291730 -0.189710E-06  0.269E-03    8.41       7.3  T
   5    -50.7291730 -0.803310E-08  0.109E-03    8.41      18.0  T
speedup  1.16
cpu  time for SCC    0.00 s
wall time for SCC    0.00 s
speedup  1.03
cpu  time for grad    0.01 s
wall time for grad    0.01 s
 E :    -50.43577504  G :  0.017217    pred/act E change: -0.290D-03 -0.538D-03
Maxdispl :   0.3513   ||displ|| :   0.6098   Lambda : -0.139D-02
Largest |displ|/coords:  0.3513 (   5)  0.2467 (   4)  0.1638 (  11)
................................................................................
.............................. CYCLE   16 ......................................
................................................................................
   1    -50.7281800 -0.507282E+02  0.318E-01    8.41       0.0  T
   2    -50.7281927 -0.126944E-04  0.239E-01    8.42       1.0  T
   3    -50.7282067 -0.139175E-04  0.193E-02    8.44       1.0  T
   4    -50.7282076 -0.996378E-06  0.681E-03    8.44       2.9  T
   5    -50.7282077 -0.355891E-07  0.332E-03    8.44       5.9  T
   6    -50.7282077 -0.229362E-07  0.112E-03    8.44      17.4  T
   7    -50.7282077 -0.290194E-08  0.370E-04    8.44      53.1  T
speedup  0.98
cpu  time for SCC    0.01 s
wall time for SCC    0.01 s
speedup  1.03
cpu  time for grad    0.01 s
wall time for grad    0.01 s
 E :    -50.43687548  G :  0.018135    pred/act E change: -0.366D-03 -0.110D-02
Maxdispl :   0.3874   ||displ|| :   0.6531   Lambda : -0.168D-02
Largest |displ|/coords:  0.3874 (   5)  0.2873 (   4)  0.1814 (   8)
................................................................................
.............................. CYCLE   17 ......................................
................................................................................
   1    -50.7278479 -0.507278E+02  0.346E-01    8.45       0.0  T
   2    -50.7278731 -0.252064E-04  0.260E-01    8.46       1.0  T
   3    -50.7278966 -0.234902E-04  0.275E-02    8.49       1.0  T
   4    -50.7278993 -0.275245E-05  0.109E-02    8.49       1.8  T
   5    -50.7278994 -0.122685E-06  0.387E-03    8.48       5.1  T
   6    -50.7278995 -0.162869E-07  0.189E-03    8.48      10.4  T
   7    -50.7278995 -0.850397E-08  0.518E-04    8.49      37.9  T
speedup  1.13
cpu  time for SCC    0.01 s
wall time for SCC    0.01 s
speedup  1.02
cpu  time for grad    0.01 s
wall time for grad    0.01 s
 E :    -50.43804942  G :  0.020124    pred/act E change: -0.956D-03 -0.117D-02
Maxdispl :   0.3452   ||displ|| :   0.6078   Lambda : -0.165D-02
Largest |displ|/coords:  0.3452 (   5)  0.2910 (   4)  0.1733 (  11)
................................................................................
.............................. CYCLE   18 ......................................
................................................................................
   1    -50.7249737 -0.507250E+02  0.310E-01    8.52       0.0  T
   2    -50.7250159 -0.422035E-04  0.232E-01    8.53       1.0  T
   3    -50.7250471 -0.311759E-04  0.358E-02    8.56       1.0  T
   4    -50.7250530 -0.588675E-05  0.108E-02    8.55       1.8  T
   5    -50.7250531 -0.147549E-06  0.485E-03    8.55       4.0  T
   6    -50.7250532 -0.321317E-07  0.246E-03    8.55       8.0  T
speedup  0.94
cpu  time for SCC    0.01 s
wall time for SCC    0.01 s
speedup  0.94
cpu  time for grad    0.01 s
wall time for grad    0.01 s
 E :    -50.43855526  G :  0.033858    pred/act E change: -0.120D-02 -0.506D-03
Maxdispl :   0.1817   ||displ|| :   0.3168   Lambda : -0.209D-02
Largest |displ|/coords:  0.1817 (   5)  0.0887 (   4)  0.0795 (   8)
................................................................................
.............................. CYCLE   19 ......................................
................................................................................
   1    -50.7389812 -0.507390E+02  0.173E-01    8.65       0.0  T
   2    -50.7390135 -0.322503E-04  0.127E-01    8.65       1.0  T
   3    -50.7390346 -0.211262E-04  0.311E-02    8.65       1.0  T
   4    -50.7390376 -0.299691E-05  0.819E-03    8.65       2.4  T
   5    -50.7390377 -0.116033E-06  0.335E-03    8.65       5.9  T
   6    -50.7390377 -0.978500E-08  0.170E-03    8.65      11.5  T
speedup  0.98
cpu  time for SCC    0.00 s
wall time for SCC    0.01 s
speedup  0.93
cpu  time for grad    0.01 s
wall time for grad    0.01 s
 E :    -50.43889792  G :  0.032825    pred/act E change: -0.113D-02 -0.343D-03
Maxdispl :   0.1672   ||displ|| :   0.4334   Lambda : -0.357D-02
Largest |displ|/coords:  0.1672 (   4)  0.1592 (  11)  0.1543 (   5)
................................................................................
.............................. CYCLE   20 ......................................
................................................................................
   1    -50.7189096 -0.507189E+02  0.413E-01    8.58       0.0  T
   2    -50.7190957 -0.186070E-03  0.302E-01    8.58       1.0  T
   3    -50.7191928 -0.971429E-04  0.769E-02    8.58       1.0  T
   4    -50.7192125 -0.196285E-04  0.171E-02    8.59       1.1  T
   5    -50.7192130 -0.514364E-06  0.736E-03    8.59       2.7  T
   6    -50.7192131 -0.114926E-06  0.436E-03    8.59       4.5  T
   7    -50.7192131 -0.317632E-07  0.917E-04    8.59      21.4  T
speedup  1.00
cpu  time for SCC    0.01 s
wall time for SCC    0.01 s
speedup  0.96
cpu  time for grad    0.01 s
wall time for grad    0.01 s
 E :    -50.43721202  G :  0.065485    pred/act E change: -0.115D-02  0.169D-02
Maxdispl :   0.1433   ||displ|| :   0.3524   Lambda : -0.116D-01
Largest |displ|/coords:  0.1433 (   6)  0.1228 (  11)  0.1201 (  13)
................................................................................
.............................. CYCLE   21 ......................................
................................................................................
   1    -50.7371228 -0.507371E+02  0.465E-01    8.59       0.0  T
   2    -50.7373876 -0.264732E-03  0.341E-01    8.62       1.0  T
   3    -50.7375653 -0.177728E-03  0.893E-02    8.66       1.0  T
   4    -50.7375895 -0.242397E-04  0.216E-02    8.64       1.0  T
   5    -50.7375904 -0.833052E-06  0.101E-02    8.64       1.9  T
   6    -50.7375904 -0.516269E-07  0.477E-03    8.64       4.1  T
   7    -50.7375905 -0.605896E-07  0.104E-03    8.64      18.8  T
speedup  0.98
cpu  time for SCC    0.01 s
wall time for SCC    0.01 s
speedup  0.96
cpu  time for grad    0.01 s
wall time for grad    0.01 s
 E :    -50.43684470  G :  0.082958    pred/act E change: -0.212D-02  0.367D-03
Maxdispl :   0.0962   ||displ|| :   0.2877   Lambda : -0.121D-01
Largest |displ|/coords:  0.0962 (   6)  0.0925 (  18)  0.0830 (  13)
................................................................................
.............................. CYCLE   22 ......................................
................................................................................
   1    -50.7241024 -0.507241E+02  0.397E-01    8.62       0.0  T
   2    -50.7243281 -0.225687E-03  0.289E-01    8.60       1.0  T
   3    -50.7244606 -0.132549E-03  0.828E-02    8.56       1.0  T
   4    -50.7244803 -0.196709E-04  0.208E-02    8.57       1.0  T
   5    -50.7244811 -0.831086E-06  0.840E-03    8.58       2.3  T
   6    -50.7244813 -0.133641E-06  0.477E-03    8.58       4.1  T
   7    -50.7244813 -0.293259E-07  0.106E-03    8.58      18.6  T
speedup  0.98
cpu  time for SCC    0.01 s
wall time for SCC    0.01 s
speedup  0.95
cpu  time for grad    0.01 s
wall time for grad    0.01 s
 E :    -50.43852166  G :  0.051501    pred/act E change: -0.651D-02 -0.168D-02
Maxdispl :   0.0863   ||displ|| :   0.2114   Lambda : -0.461D-02
Largest |displ|/coords:  0.0863 (   4)  0.0768 (   7)  0.0522 (  15)
................................................................................
.............................. CYCLE   23 ......................................
................................................................................
   1    -50.7298569 -0.507299E+02  0.241E-01    8.59       0.0  T
   2    -50.7299318 -0.748767E-04  0.177E-01    8.60       1.0  T
   3    -50.7299809 -0.491117E-04  0.482E-02    8.63       1.0  T
   4    -50.7299878 -0.696630E-05  0.126E-02    8.62       1.6  T
   5    -50.7299881 -0.312466E-06  0.526E-03    8.62       3.7  T
   6    -50.7299882 -0.181255E-07  0.258E-03    8.62       7.6  T
speedup  0.96
cpu  time for SCC    0.01 s
wall time for SCC    0.01 s
speedup  1.02
cpu  time for grad    0.01 s
wall time for grad    0.01 s
 E :    -50.44013279  G :  0.021539    pred/act E change: -0.656D-02 -0.161D-02
Maxdispl :   0.1068   ||displ|| :   0.1773   Lambda : -0.824D-03
Largest |displ|/coords:  0.1068 (   1)  0.0612 (   9)  0.0563 (  19)
................................................................................
.............................. CYCLE   24 ......................................
................................................................................
   1    -50.7344243 -0.507344E+02  0.111E-01    8.65       0.0  T
   2    -50.7344353 -0.110197E-04  0.806E-02    8.65       1.0  T
   3    -50.7344409 -0.557534E-05  0.186E-02    8.64       1.1  T
   4    -50.7344423 -0.134304E-05  0.446E-03    8.65       4.4  T
   5    -50.7344423 -0.360684E-07  0.187E-03    8.65      10.5  T
speedup  1.11
cpu  time for SCC    0.00 s
wall time for SCC    0.00 s
speedup  1.00
cpu  time for grad    0.01 s
wall time for grad    0.01 s
 E :    -50.44032118  G :  0.018110    pred/act E change: -0.241D-02 -0.188D-03
Maxdispl :   0.1385   ||displ|| :   0.3007   Lambda : -0.116D-02
Largest |displ|/coords:  0.1385 (   1)  0.1285 (   4)  0.1103 (   9)
................................................................................
.............................. CYCLE   25 ......................................
................................................................................
   1    -50.7270140 -0.507270E+02  0.195E-01    8.65       0.0  T
   2    -50.7270357 -0.216918E-04  0.143E-01    8.65       1.0  T
   3    -50.7270467 -0.109866E-04  0.246E-02    8.63       1.0  T
   4    -50.7270494 -0.270951E-05  0.676E-03    8.64       2.9  T
   5    -50.7270495 -0.600342E-07  0.289E-03    8.64       6.8  T
   6    -50.7270495 -0.100509E-07  0.121E-03    8.64      16.2  T
speedup  0.94
cpu  time for SCC    0.00 s
wall time for SCC    0.01 s
speedup  1.01
cpu  time for grad    0.01 s
wall time for grad    0.01 s
 E :    -50.44023696  G :  0.030692    pred/act E change: -0.425D-03  0.842D-04
Maxdispl :   0.0873   ||displ|| :   0.1451   Lambda : -0.128D-02
Largest |displ|/coords:  0.0873 (   4)  0.0485 (   7)  0.0456 (   9)

generating ANC from model Hessian ...
 Shifting diagonal of input Hessian by   5.118502646942770E-003
 Lowest  eigenvalues of input Hessian
    0.005000   -0.000000   -0.000000   -0.000000    0.000000    0.000000
    0.000000    0.005285    0.005317    0.005493    0.005811    0.005873
    0.006086    0.006265    0.006373    0.006714    0.006975    0.008389
 Highest eigenvalues
    1.380570    1.383180    1.388546    2.754450    3.340296    3.692369
 
cpu  time for ANC gen    0.01 s
wall time for ANC gen    0.01 s
................................................................................
.............................. CYCLE   26 ......................................
................................................................................
   1    -50.7276034 -0.507276E+02  0.130E-01    8.62       0.0  T
   2    -50.7276169 -0.135421E-04  0.965E-02    8.63       1.0  T
   3    -50.7276248 -0.792832E-05  0.212E-02    8.64       1.0  T
   4    -50.7276265 -0.167390E-05  0.526E-03    8.63       3.7  T
   5    -50.7276266 -0.575424E-07  0.225E-03    8.63       8.7  T
   6    -50.7276266 -0.394135E-08  0.113E-03    8.63      17.4  T
   7    -50.7276266 -0.201506E-08  0.278E-04    8.63      70.6  T
   8    -50.7276266 -0.239325E-09  0.854E-05    8.63     229.6  T
speedup  1.00
cpu  time for SCC    0.01 s
wall time for SCC    0.01 s
speedup  0.99
cpu  time for grad    0.01 s
wall time for grad    0.02 s
 E :    -50.44088461  G :  0.014284    pred/act E change:  0.000D+00 -0.648D-03
Maxdispl :   0.1223   ||displ|| :   0.2466   Lambda : -0.727D-03
Largest |displ|/coords:  0.1223 (   4)  0.1136 (   9)  0.0800 (   7)
................................................................................
.............................. CYCLE   27 ......................................
................................................................................
   1    -50.7299525 -0.507300E+02  0.191E-01    8.62       0.0  T
   2    -50.7299571 -0.464330E-05  0.144E-01    8.61       1.0  T
   3    -50.7299623 -0.513746E-05  0.114E-02    8.61       1.7  T
   4    -50.7299627 -0.424001E-06  0.422E-03    8.61       4.6  T
   5    -50.7299627 -0.204739E-07  0.188E-03    8.61      10.5  T
   6    -50.7299627 -0.508247E-08  0.807E-04    8.61      24.3  T
speedup  0.96
cpu  time for SCC    0.00 s
wall time for SCC    0.01 s
speedup  1.01
cpu  time for grad    0.01 s
wall time for grad    0.01 s
 E :    -50.44144214  G :  0.007146    pred/act E change:  0.000D+00 -0.558D-03
Maxdispl :   0.2899   ||displ|| :   0.5196   Lambda : -0.102D-02
Largest |displ|/coords:  0.2899 (   4)  0.1931 (   3)  0.1928 (   9)
................................................................................
.............................. CYCLE   28 ......................................
................................................................................
   1    -50.7307140 -0.507307E+02  0.291E-01    8.59       0.0  T
   2    -50.7307270 -0.129930E-04  0.219E-01    8.60       1.0  T
   3    -50.7307406 -0.136085E-04  0.196E-02    8.61       1.0  T
   4    -50.7307419 -0.132625E-05  0.730E-03    8.61       2.7  T
   5    -50.7307420 -0.638548E-07  0.338E-03    8.61       5.8  T
   6    -50.7307420 -0.181115E-07  0.143E-03    8.61      13.7  T
   7    -50.7307420 -0.694647E-08  0.372E-04    8.61      52.8  T
speedup  0.98
cpu  time for SCC    0.01 s
wall time for SCC    0.01 s
speedup  1.02
cpu  time for grad    0.01 s
wall time for grad    0.01 s
 E :    -50.44224339  G :  0.010023    pred/act E change: -0.386D-03 -0.801D-03
Maxdispl :   0.4432   ||displ|| :   0.7529   Lambda : -0.121D-02
Largest |displ|/coords:  0.4432 (   4)  0.3351 (   3)  0.2296 (   9)
................................................................................
.............................. CYCLE   29 ......................................
................................................................................
   1    -50.7249583 -0.507250E+02  0.390E-01    8.53       0.0  T
   2    -50.7249770 -0.187538E-04  0.294E-01    8.53       1.0  T
   3    -50.7249991 -0.220392E-04  0.230E-02    8.53       1.0  T
   4    -50.7250005 -0.145017E-05  0.100E-02    8.53       2.0  T
   5    -50.7250006 -0.125587E-06  0.407E-03    8.53       4.8  T
   6    -50.7250007 -0.239483E-07  0.174E-03    8.53      11.3  T
   7    -50.7250007 -0.102039E-07  0.470E-04    8.53      41.7  T
speedup  0.98
cpu  time for SCC    0.01 s
wall time for SCC    0.01 s
speedup  0.94
cpu  time for grad    0.01 s
wall time for grad    0.01 s
 E :    -50.44316685  G :  0.023109    pred/act E change: -0.647D-03 -0.923D-03
Maxdispl :   0.3168   ||displ|| :   0.6374   Lambda : -0.153D-02
Largest |displ|/coords:  0.3168 (   4)  0.2867 (   3)  0.2725 (  11)
................................................................................
.............................. CYCLE   30 ......................................
................................................................................
   1    -50.7276798 -0.507277E+02  0.193E-01    8.52       0.0  T
   2    -50.7276871 -0.734469E-05  0.144E-01    8.53       1.0  T
   3    -50.7276934 -0.628381E-05  0.172E-02    8.53       1.1  T
   4    -50.7276942 -0.821438E-06  0.579E-03    8.53       3.4  T
   5    -50.7276943 -0.566533E-07  0.226E-03    8.53       8.7  T
speedup  0.89
cpu  time for SCC    0.00 s
wall time for SCC    0.00 s
speedup  0.99
cpu  time for grad    0.01 s
wall time for grad    0.01 s
 E :    -50.44452443  G :  0.017928    pred/act E change: -0.950D-03 -0.136D-02
Maxdispl :   0.3411   ||displ|| :   0.7425   Lambda : -0.217D-02
Largest |displ|/coords:  0.3411 (  11)  0.3342 (   4)  0.3214 (   3)
................................................................................
.............................. CYCLE   31 ......................................
................................................................................
   1    -50.7359703 -0.507360E+02  0.192E-01    8.60       0.0  T
   2    -50.7359866 -0.163608E-04  0.143E-01    8.59       1.0  T
   3    -50.7359975 -0.109051E-04  0.251E-02    8.59       1.0  T
   4    -50.7359996 -0.207675E-05  0.804E-03    8.60       2.4  T
   5    -50.7359997 -0.122631E-06  0.270E-03    8.60       7.3  T
   6    -50.7359998 -0.665661E-08  0.154E-03    8.60      12.7  T
speedup  1.11
cpu  time for SCC    0.01 s
wall time for SCC    0.01 s
speedup  0.99
cpu  time for grad    0.01 s
wall time for grad    0.01 s
 E :    -50.44595127  G :  0.014348    pred/act E change: -0.108D-02 -0.143D-02
Maxdispl :   0.3707   ||displ|| :   0.7371   Lambda : -0.184D-02
Largest |displ|/coords:  0.3707 (   4)  0.3404 (   3)  0.3341 (  11)
................................................................................
.............................. CYCLE   32 ......................................
................................................................................
   1    -50.7266577 -0.507267E+02  0.327E-01    8.57       0.0  T
   2    -50.7266949 -0.371549E-04  0.247E-01    8.57       1.0  T
   3    -50.7267298 -0.349316E-04  0.334E-02    8.56       1.0  T
   4    -50.7267345 -0.465794E-05  0.104E-02    8.57       1.9  T
   5    -50.7267346 -0.121842E-06  0.533E-03    8.57       3.7  T
   6    -50.7267346 -0.446090E-07  0.182E-03    8.57      10.8  T
   7    -50.7267346 -0.105748E-07  0.530E-04    8.57      37.0  T
speedup  0.95
cpu  time for SCC    0.01 s
wall time for SCC    0.01 s
speedup  0.99
cpu  time for grad    0.01 s
wall time for grad    0.01 s
 E :    -50.44535396  G :  0.031757    pred/act E change: -0.168D-02  0.597D-03
Maxdispl :   0.2632   ||displ|| :   0.4384   Lambda : -0.370D-02
Largest |displ|/coords:  0.2632 (   4)  0.2195 (  11)  0.1114 (   9)
................................................................................
.............................. CYCLE   33 ......................................
................................................................................
   1    -50.7355121 -0.507355E+02  0.246E-01    8.66       0.0  T
   2    -50.7355341 -0.220330E-04  0.186E-01    8.66       1.0  T
   3    -50.7355516 -0.174956E-04  0.256E-02    8.67       1.0  T
   4    -50.7355544 -0.277701E-05  0.850E-03    8.67       2.3  T
   5    -50.7355545 -0.126668E-06  0.335E-03    8.67       5.9  T
   6    -50.7355545 -0.111440E-07  0.176E-03    8.67      11.2  T
speedup  0.94
cpu  time for SCC    0.00 s
wall time for SCC    0.01 s
speedup  1.00
cpu  time for grad    0.01 s
wall time for grad    0.01 s
 E :    -50.44659645  G :  0.030459    pred/act E change: -0.142D-02 -0.124D-02
Maxdispl :   0.1387   ||displ|| :   0.3176   Lambda : -0.228D-02
Largest |displ|/coords:  0.1387 (   6)  0.1351 (  10)  0.1094 (  12)
................................................................................
.............................. CYCLE   34 ......................................
................................................................................
   1    -50.7327382 -0.507327E+02  0.358E-01    8.59       0.0  T
   2    -50.7328059 -0.676694E-04  0.270E-01    8.60       1.0  T
   3    -50.7328547 -0.488555E-04  0.458E-02    8.61       1.0  T
   4    -50.7328643 -0.959830E-05  0.115E-02    8.61       1.7  T
   5    -50.7328644 -0.130741E-06  0.565E-03    8.61       3.5  T
   6    -50.7328645 -0.330719E-07  0.210E-03    8.61       9.4  T
speedup  0.96
cpu  time for SCC    0.00 s
wall time for SCC    0.01 s
speedup  1.01
cpu  time for grad    0.01 s
wall time for grad    0.01 s
 E :    -50.44549856  G :  0.044028    pred/act E change: -0.220D-02  0.110D-02
Maxdispl :   0.1231   ||displ|| :   0.2703   Lambda : -0.319D-02
Largest |displ|/coords:  0.1231 (   7)  0.1044 (   9)  0.0956 (  13)
................................................................................
.............................. CYCLE   35 ......................................
................................................................................
   1    -50.7358328 -0.507358E+02  0.236E-01    8.68       0.0  T
   2    -50.7358679 -0.350698E-04  0.176E-01    8.67       1.0  T
   3    -50.7358946 -0.267643E-04  0.334E-02    8.66       1.0  T
   4    -50.7358991 -0.447382E-05  0.837E-03    8.67       2.3  T
   5    -50.7358992 -0.666030E-07  0.445E-03    8.67       4.4  T
   6    -50.7358992 -0.203205E-07  0.127E-03    8.67      15.5  T
speedup  1.15
cpu  time for SCC    0.01 s
wall time for SCC    0.01 s
speedup  1.01
cpu  time for grad    0.01 s
wall time for grad    0.01 s
 E :    -50.44670159  G :  0.021242    pred/act E change: -0.125D-02 -0.120D-02
Maxdispl :   0.2096   ||displ|| :   0.5354   Lambda : -0.241D-02
Largest |displ|/coords:  0.2096 (  12)  0.1900 (   3)  0.1855 (   2)
................................................................................
.............................. CYCLE   36 ......................................
................................................................................
   1    -50.7290321 -0.507290E+02  0.534E-01    8.63       0.0  T
   2    -50.7291063 -0.741537E-04  0.406E-01    8.62       1.0  T
   3    -50.7291734 -0.671841E-04  0.435E-02    8.60       1.0  T
   4    -50.7291824 -0.894327E-05  0.108E-02    8.60       1.8  T
   5    -50.7291825 -0.823519E-07  0.598E-03    8.60       3.3  T
   6    -50.7291825 -0.554296E-07  0.190E-03    8.61      10.3  T
speedup  0.94
cpu  time for SCC    0.00 s
wall time for SCC    0.01 s
speedup  1.00
cpu  time for grad    0.01 s
wall time for grad    0.01 s
 E :    -50.44502517  G :  0.056305    pred/act E change: -0.171D-02  0.168D-02
Maxdispl :   0.1845   ||displ|| :   0.5114   Lambda : -0.947D-02
Largest |displ|/coords:  0.1845 (  12)  0.1701 (   4)  0.1552 (  17)
................................................................................
.............................. CYCLE   37 ......................................
................................................................................
   1    -50.7368432 -0.507368E+02  0.666E-01    8.63       0.0  T
   2    -50.7370121 -0.168959E-03  0.507E-01    8.63       1.0  T
   3    -50.7371396 -0.127451E-03  0.694E-02    8.64       1.0  T
   4    -50.7371652 -0.256003E-04  0.156E-02    8.64       1.3  T
   5    -50.7371654 -0.208181E-06  0.892E-03    8.64       2.2  T
   6    -50.7371654 -0.665272E-07  0.249E-03    8.64       7.9  T
   7    -50.7371655 -0.144104E-07  0.787E-04    8.64      24.9  T
speedup  1.00
cpu  time for SCC    0.01 s
wall time for SCC    0.01 s
speedup  1.01
cpu  time for grad    0.01 s
wall time for grad    0.01 s
 E :    -50.44591494  G :  0.044820    pred/act E change: -0.155D-02 -0.890D-03
Maxdispl :   0.0510   ||displ|| :   0.1812   Lambda : -0.221D-02
Largest |displ|/coords:  0.0510 (   7)  0.0494 (   4)  0.0491 (  24)
................................................................................
.............................. CYCLE   38 ......................................
................................................................................
   1    -50.7316374 -0.507316E+02  0.169E-01    8.62       0.0  T
   2    -50.7316519 -0.144252E-04  0.127E-01    8.63       1.0  T
   3    -50.7316612 -0.932417E-05  0.210E-02    8.62       1.0  T
   4    -50.7316631 -0.191925E-05  0.449E-03    8.62       4.4  T
   5    -50.7316631 -0.192560E-07  0.212E-03    8.62       9.3  T
speedup  0.89
cpu  time for SCC    0.00 s
wall time for SCC    0.00 s
speedup  0.98
cpu  time for grad    0.01 s
wall time for grad    0.01 s
 E :    -50.44694793  G :  0.014745    pred/act E change: -0.597D-02 -0.103D-02
Maxdispl :   0.1719   ||displ|| :   0.3695   Lambda : -0.177D-02
Largest |displ|/coords:  0.1719 (  10)  0.1425 (   4)  0.1095 (   9)
................................................................................
.............................. CYCLE   39 ......................................
................................................................................
   1    -50.7321240 -0.507321E+02  0.442E-01    8.72       0.0  T
   2    -50.7321752 -0.511854E-04  0.338E-01    8.72       1.0  T
   3    -50.7322407 -0.654840E-04  0.319E-02    8.72       1.0  T
   4    -50.7322439 -0.318895E-05  0.135E-02    8.72       1.5  T
   5    -50.7322440 -0.153297E-06  0.541E-03    8.72       3.6  T
   6    -50.7322441 -0.402652E-07  0.210E-03    8.72       9.4  T
   7    -50.7322441 -0.146384E-07  0.553E-04    8.72      35.4  T
speedup  1.17
cpu  time for SCC    0.01 s
wall time for SCC    0.01 s
speedup  1.01
cpu  time for grad    0.01 s
wall time for grad    0.01 s
 E :    -50.44551534  G :  0.043174    pred/act E change: -0.114D-02  0.143D-02
Maxdispl :   0.0945   ||displ|| :   0.2417   Lambda : -0.322D-02
Largest |displ|/coords:  0.0945 (   4)  0.0936 (  13)  0.0729 (  15)
................................................................................
.............................. CYCLE   40 ......................................
................................................................................
   1    -50.7369007 -0.507369E+02  0.246E-01    8.68       0.0  T
   2    -50.7369200 -0.192415E-04  0.187E-01    8.68       1.0  T
   3    -50.7369432 -0.231892E-04  0.212E-02    8.69       1.0  T
   4    -50.7369446 -0.142405E-05  0.863E-03    8.68       2.3  T
   5    -50.7369447 -0.716824E-07  0.317E-03    8.68       6.2  T
   6    -50.7369447 -0.128511E-07  0.145E-03    8.68      13.6  T
speedup  0.94
cpu  time for SCC    0.01 s
wall time for SCC    0.01 s
speedup  0.99
cpu  time for grad    0.01 s
wall time for grad    0.01 s
 E :    -50.44725752  G :  0.010550    pred/act E change: -0.100D-02 -0.174D-02
Maxdispl :   0.0843   ||displ|| :   0.1731   Lambda : -0.589D-03
Largest |displ|/coords:  0.0843 (  11)  0.0629 (   8)  0.0498 (  18)
................................................................................
.............................. CYCLE   41 ......................................
................................................................................
   1    -50.7284810 -0.507285E+02  0.139E-01    8.62       0.0  T
   2    -50.7284892 -0.818927E-05  0.104E-01    8.62       1.0  T
   3    -50.7284961 -0.688963E-05  0.162E-02    8.62       1.2  T
   4    -50.7284971 -0.102566E-05  0.552E-03    8.62       3.6  T
   5    -50.7284972 -0.359847E-07  0.229E-03    8.62       8.6  T
   6    -50.7284972 -0.654348E-08  0.987E-04    8.62      19.9  T
speedup  0.96
cpu  time for SCC    0.00 s
wall time for SCC    0.01 s
speedup  1.00
cpu  time for grad    0.01 s
wall time for grad    0.01 s
 E :    -50.44723666  G :  0.017331    pred/act E change: -0.170D-02  0.209D-04
Maxdispl :   0.0385   ||displ|| :   0.1050   Lambda : -0.496D-03
Largest |displ|/coords:  0.0385 (   7)  0.0359 (  13)  0.0342 (   8)
................................................................................
.............................. CYCLE   42 ......................................
................................................................................
   1    -50.7330037 -0.507330E+02  0.945E-02    8.66       0.0  T
   2    -50.7330064 -0.275279E-05  0.716E-02    8.66       1.0  T
   3    -50.7330092 -0.277480E-05  0.874E-03    8.65       2.2  T
   4    -50.7330095 -0.285466E-06  0.305E-03    8.66       6.4  T
   5    -50.7330095 -0.102305E-07  0.120E-03    8.66      16.4  T
   6    -50.7330095 -0.174506E-08  0.530E-04    8.66      37.0  T
speedup  1.15
cpu  time for SCC    0.01 s
wall time for SCC    0.01 s
speedup  1.08
cpu  time for grad    0.01 s
wall time for grad    0.01 s
 E :    -50.44751132  G :  0.007272    pred/act E change: -0.303D-03 -0.275D-03
Maxdispl :   0.0399   ||displ|| :   0.0931   Lambda : -0.122D-03
Largest |displ|/coords:  0.0399 (   2)  0.0384 (  10)  0.0378 (   3)
................................................................................
.............................. CYCLE   43 ......................................
................................................................................
   1    -50.7335668 -0.507336E+02  0.722E-02    8.65       0.0  T
   2    -50.7335677 -0.879936E-06  0.546E-02    8.65       1.0  T
   3    -50.7335687 -0.997774E-06  0.504E-03    8.65       3.9  T
   4    -50.7335688 -0.725228E-07  0.194E-03    8.65      10.1  T
   5    -50.7335688 -0.450854E-08  0.745E-04    8.65      26.3  T
speedup  0.89
cpu  time for SCC    0.00 s
wall time for SCC    0.00 s
speedup  0.98
cpu  time for grad    0.01 s
wall time for grad    0.01 s
 E :    -50.44760123  G :  0.007801    pred/act E change: -0.251D-03 -0.899D-04
Maxdispl :   0.1215   ||displ|| :   0.2896   Lambda : -0.359D-03
Largest |displ|/coords:  0.1215 (   2)  0.1091 (  10)  0.1075 (   3)
................................................................................
.............................. CYCLE   44 ......................................
................................................................................
   1    -50.7326735 -0.507327E+02  0.221E-01    8.65       0.0  T
   2    -50.7326807 -0.725215E-05  0.167E-01    8.65       1.0  T
   3    -50.7326875 -0.679545E-05  0.155E-02    8.65       1.3  T
   4    -50.7326884 -0.923290E-06  0.545E-03    8.65       3.6  T
   5    -50.7326885 -0.348349E-07  0.234E-03    8.65       8.4  T
   6    -50.7326885 -0.705037E-08  0.127E-03    8.65      15.5  T
speedup  1.11
cpu  time for SCC    0.01 s
wall time for SCC    0.01 s
speedup  1.06
cpu  time for grad    0.01 s
wall time for grad    0.01 s
 E :    -50.44783360  G :  0.009098    pred/act E change: -0.613D-04 -0.232D-03
Maxdispl :   0.0976   ||displ|| :   0.2541   Lambda : -0.275D-03
Largest |displ|/coords:  0.0976 (   1)  0.0892 (  10)  0.0877 (   2)
................................................................................
.............................. CYCLE   45 ......................................
................................................................................
   1    -50.7311050 -0.507311E+02  0.184E-01    8.62       0.0  T
   2    -50.7311128 -0.781968E-05  0.138E-01    8.62       1.0  T
   3    -50.7311186 -0.581767E-05  0.152E-02    8.63       1.3  T
   4    -50.7311199 -0.127211E-05  0.491E-03    8.63       4.0  T
   5    -50.7311199 -0.344634E-07  0.232E-03    8.63       8.5  T
   6    -50.7311199 -0.659614E-08  0.124E-03    8.63      15.8  T
speedup  0.96
cpu  time for SCC    0.00 s
wall time for SCC    0.01 s
speedup  0.98
cpu  time for grad    0.01 s
wall time for grad    0.01 s
 E :    -50.44801615  G :  0.009708    pred/act E change: -0.194D-03 -0.183D-03
Maxdispl :   0.1288   ||displ|| :   0.3115   Lambda : -0.313D-03
Largest |displ|/coords:  0.1288 (   3)  0.1190 (   1)  0.1008 (  14)
................................................................................
.............................. CYCLE   46 ......................................
................................................................................
   1    -50.7272319 -0.507272E+02  0.191E-01    8.56       0.0  T
   2    -50.7272431 -0.111821E-04  0.144E-01    8.56       1.0  T
   3    -50.7272506 -0.748967E-05  0.182E-02    8.57       1.1  T
   4    -50.7272523 -0.175669E-05  0.568E-03    8.57       3.5  T
   5    -50.7272524 -0.520860E-07  0.250E-03    8.57       7.9  T
   6    -50.7272524 -0.727773E-08  0.138E-03    8.57      14.2  T
speedup  0.96
cpu  time for SCC    0.00 s
wall time for SCC    0.01 s
speedup  1.00
cpu  time for grad    0.01 s
wall time for grad    0.01 s
 E :    -50.44810883  G :  0.012490    pred/act E change: -0.146D-03 -0.927D-04
Maxdispl :   0.1160   ||displ|| :   0.2835   Lambda : -0.385D-03
Largest |displ|/coords:  0.1160 (   3)  0.1091 (   1)  0.0940 (   2)
................................................................................
.............................. CYCLE   47 ......................................
................................................................................
   1    -50.7248112 -0.507248E+02  0.212E-01    8.55       0.0  T
   2    -50.7248266 -0.154535E-04  0.160E-01    8.55       1.0  T
   3    -50.7248368 -0.101900E-04  0.212E-02    8.55       1.0  T
   4    -50.7248393 -0.248765E-05  0.678E-03    8.56       2.9  T
   5    -50.7248394 -0.986145E-07  0.264E-03    8.56       7.4  T
   6    -50.7248394 -0.602450E-08  0.160E-03    8.56      12.3  T
speedup  0.93
cpu  time for SCC    0.00 s
wall time for SCC    0.01 s
speedup  0.98
cpu  time for grad    0.01 s
wall time for grad    0.01 s
 E :    -50.44820247  G :  0.020329    pred/act E change: -0.172D-03 -0.936D-04
Maxdispl :   0.0879   ||displ|| :   0.2328   Lambda : -0.856D-03
Largest |displ|/coords:  0.0879 (   8)  0.0864 (   5)  0.0707 (  10)
................................................................................
.............................. CYCLE   48 ......................................
................................................................................
   1    -50.7372811 -0.507373E+02  0.181E-01    8.68       0.0  T
   2    -50.7372934 -0.123005E-04  0.135E-01    8.67       1.0  T
   3    -50.7373030 -0.952764E-05  0.211E-02    8.66       1.0  T
   4    -50.7373045 -0.155921E-05  0.655E-03    8.67       3.0  T
   5    -50.7373046 -0.666839E-07  0.257E-03    8.67       7.6  T
   6    -50.7373046 -0.926079E-08  0.125E-03    8.67      15.7  T
speedup  0.94
cpu  time for SCC    0.01 s
wall time for SCC    0.01 s
speedup  1.00
cpu  time for grad    0.01 s
wall time for grad    0.01 s
 E :    -50.44813676  G :  0.021413    pred/act E change: -0.208D-03  0.657D-04
Maxdispl :   0.0828   ||displ|| :   0.1540   Lambda : -0.759D-03
Largest |displ|/coords:  0.0828 (   8)  0.0666 (   3)  0.0526 (  10)
................................................................................
.............................. CYCLE   49 ......................................
................................................................................
   1    -50.7307948 -0.507308E+02  0.105E-01    8.63       0.0  T
   2    -50.7307987 -0.388429E-05  0.781E-02    8.64       1.0  T
   3    -50.7308013 -0.258929E-05  0.111E-02    8.65       1.8  T
   4    -50.7308018 -0.553446E-06  0.379E-03    8.64       5.2  T
   5    -50.7308018 -0.161566E-07  0.137E-03    8.64      14.3  T
speedup  0.93
cpu  time for SCC    0.00 s
wall time for SCC    0.00 s
speedup  0.99
cpu  time for grad    0.01 s
wall time for grad    0.01 s
 E :    -50.44856602  G :  0.007221    pred/act E change: -0.451D-03 -0.429D-03
Maxdispl :   0.1420   ||displ|| :   0.2775   Lambda : -0.297D-03
Largest |displ|/coords:  0.1420 (   3)  0.1024 (   1)  0.0944 (  10)
................................................................................
.............................. CYCLE   50 ......................................
................................................................................
   1    -50.7266718 -0.507267E+02  0.168E-01    8.58       0.0  T
   2    -50.7266811 -0.926822E-05  0.126E-01    8.59       1.0  T
   3    -50.7266879 -0.687400E-05  0.163E-02    8.59       1.2  T
   4    -50.7266893 -0.140427E-05  0.564E-03    8.59       3.5  T
   5    -50.7266894 -0.527920E-07  0.221E-03    8.59       8.9  T
   6    -50.7266894 -0.641682E-08  0.126E-03    8.59      15.6  T
speedup  1.13
cpu  time for SCC    0.01 s
wall time for SCC    0.01 s
speedup  1.00
cpu  time for grad    0.01 s
wall time for grad    0.01 s
 E :    -50.44868451  G :  0.012244    pred/act E change: -0.388D-03 -0.118D-03
Maxdispl :   0.1266   ||displ|| :   0.2031   Lambda : -0.228D-03
Largest |displ|/coords:  0.1266 (   3)  0.0955 (   1)  0.0657 (   9)
................................................................................
.............................. CYCLE   51 ......................................
................................................................................
   1    -50.7266614 -0.507267E+02  0.103E-01    8.59       0.0  T
   2    -50.7266646 -0.319545E-05  0.779E-02    8.59       1.0  T
   3    -50.7266671 -0.248113E-05  0.984E-03    8.59       2.0  T
   4    -50.7266675 -0.457529E-06  0.352E-03    8.59       5.6  T
   5    -50.7266676 -0.206897E-07  0.112E-03    8.59      17.5  T
   6    -50.7266676 -0.157151E-08  0.654E-04    8.59      30.0  T
speedup  0.96
cpu  time for SCC    0.00 s
wall time for SCC    0.01 s
speedup  1.00
cpu  time for grad    0.01 s
wall time for grad    0.01 s
 E :    -50.44885999  G :  0.010905    pred/act E change: -0.160D-03 -0.175D-03
Maxdispl :   0.2454   ||displ|| :   0.4193   Lambda : -0.578D-03
Largest |displ|/coords:  0.2454 (   3)  0.1761 (   2)  0.1589 (   1)
................................................................................
.............................. CYCLE   52 ......................................
................................................................................
   1    -50.7319025 -0.507319E+02  0.181E-01    8.67       0.0  T
   2    -50.7319129 -0.104896E-04  0.136E-01    8.66       1.0  T
   3    -50.7319205 -0.759183E-05  0.223E-02    8.66       1.0  T
   4    -50.7319219 -0.139091E-05  0.716E-03    8.66       2.7  T
   5    -50.7319220 -0.685649E-07  0.187E-03    8.66      10.5  T
   6    -50.7319220 -0.360662E-08  0.110E-03    8.66      17.8  T
speedup  1.15
cpu  time for SCC    0.01 s
wall time for SCC    0.01 s
speedup  1.06
cpu  time for grad    0.01 s
wall time for grad    0.01 s
 E :    -50.44920260  G :  0.008464    pred/act E change: -0.119D-03 -0.343D-03
Maxdispl :   0.3975   ||displ|| :   0.6486   Lambda : -0.548D-03
Largest |displ|/coords:  0.3975 (   3)  0.2830 (   1)  0.2440 (   9)

generating ANC from model Hessian ...
 Shifting diagonal of input Hessian by   4.891277758346292E-003
 Lowest  eigenvalues of input Hessian
   -0.000000   -0.000000    0.000000    0.000000    0.000000    0.000000
    0.005000    0.005185    0.005313    0.005627    0.005966    0.006259
    0.006414    0.007047    0.007720    0.008106    0.008951    0.009540
 Highest eigenvalues
    1.389984    1.394820    1.409224    2.797061    3.280693    3.597062
 
cpu  time for ANC gen    0.01 s
wall time for ANC gen    0.02 s
................................................................................
.............................. CYCLE   53 ......................................
................................................................................
   1    -50.7261994 -0.507262E+02  0.325E-01    8.55       0.0  T
   2    -50.7262326 -0.331852E-04  0.245E-01    8.55       1.0  T
   3    -50.7262588 -0.262113E-04  0.316E-02    8.55       1.0  T
   4    -50.7262634 -0.458763E-05  0.108E-02    8.55       1.8  T
   5    -50.7262636 -0.221828E-06  0.377E-03    8.55       5.2  T
   6    -50.7262637 -0.167631E-07  0.221E-03    8.55       8.9  T
   7    -50.7262637 -0.116887E-07  0.586E-04    8.55      33.5  T
   8    -50.7262637 -0.789456E-09  0.195E-04    8.55     100.5  T
speedup  1.00
cpu  time for SCC    0.01 s
wall time for SCC    0.01 s
speedup  0.98
cpu  time for grad    0.01 s
wall time for grad    0.02 s
 E :    -50.44957453  G :  0.017517    pred/act E change:  0.000D+00 -0.372D-03
Maxdispl :   0.0771   ||displ|| :   0.1891   Lambda : -0.631D-03
Largest |displ|/coords:  0.0771 (   6)  0.0746 (  11)  0.0672 (   8)
................................................................................
.............................. CYCLE   54 ......................................
................................................................................
   1    -50.7282868 -0.507283E+02  0.116E-01    8.58       0.0  T
   2    -50.7282889 -0.207436E-05  0.869E-02    8.58       1.0  T
   3    -50.7282911 -0.221405E-05  0.958E-03    8.58       2.0  T
   4    -50.7282912 -0.150230E-06  0.314E-03    8.58       6.2  T
   5    -50.7282913 -0.125533E-07  0.109E-03    8.58      17.9  T
   6    -50.7282913 -0.120232E-08  0.568E-04    8.58      34.5  T
speedup  0.96
cpu  time for SCC    0.00 s
wall time for SCC    0.01 s
speedup  0.99
cpu  time for grad    0.01 s
wall time for grad    0.01 s
 E :    -50.45001475  G :  0.007205    pred/act E change:  0.000D+00 -0.440D-03
Maxdispl :   0.1498   ||displ|| :   0.3102   Lambda : -0.555D-03
Largest |displ|/coords:  0.1498 (   1)  0.1398 (   6)  0.1304 (   3)
................................................................................
.............................. CYCLE   55 ......................................
................................................................................
   1    -50.7304211 -0.507304E+02  0.162E-01    8.63       0.0  T
   2    -50.7304260 -0.490654E-05  0.122E-01    8.63       1.0  T
   3    -50.7304315 -0.550181E-05  0.147E-02    8.63       1.3  T
   4    -50.7304319 -0.340252E-06  0.514E-03    8.63       3.8  T
   5    -50.7304319 -0.318297E-07  0.162E-03    8.63      12.1  T
   6    -50.7304319 -0.248345E-08  0.943E-04    8.63      20.8  T
speedup  0.96
cpu  time for SCC    0.00 s
wall time for SCC    0.01 s
speedup  1.00
cpu  time for grad    0.01 s
wall time for grad    0.01 s
 E :    -50.45037503  G :  0.007669    pred/act E change: -0.327D-03 -0.360D-03
Maxdispl :   0.2035   ||displ|| :   0.4357   Lambda : -0.512D-03
Largest |displ|/coords:  0.2035 (   1)  0.1771 (   6)  0.1728 (   8)
................................................................................
.............................. CYCLE   56 ......................................
................................................................................
   1    -50.7303636 -0.507304E+02  0.198E-01    8.65       0.0  T
   2    -50.7303705 -0.694181E-05  0.149E-01    8.65       1.0  T
   3    -50.7303771 -0.656390E-05  0.171E-02    8.65       1.1  T
   4    -50.7303778 -0.749264E-06  0.691E-03    8.65       2.8  T
   5    -50.7303778 -0.440013E-07  0.193E-03    8.65      10.2  T
   6    -50.7303779 -0.371469E-08  0.113E-03    8.65      17.4  T
speedup  0.94
cpu  time for SCC    0.00 s
wall time for SCC    0.01 s
speedup  0.98
cpu  time for grad    0.01 s
wall time for grad    0.01 s
 E :    -50.45078868  G :  0.010969    pred/act E change: -0.304D-03 -0.414D-03
Maxdispl :   0.3380   ||displ|| :   0.6285   Lambda : -0.706D-03
Largest |displ|/coords:  0.3380 (   1)  0.2310 (   6)  0.2295 (   8)
................................................................................
.............................. CYCLE   57 ......................................
................................................................................
   1    -50.7282079 -0.507282E+02  0.270E-01    8.61       0.0  T
   2    -50.7282254 -0.174781E-04  0.203E-01    8.61       1.0  T
   3    -50.7282395 -0.141276E-04  0.277E-02    8.60       1.0  T
   4    -50.7282418 -0.225344E-05  0.102E-02    8.60       1.9  T
   5    -50.7282419 -0.112436E-06  0.284E-03    8.60       6.9  T
   6    -50.7282419 -0.846445E-08  0.167E-03    8.60      11.8  T
speedup  1.11
cpu  time for SCC    0.01 s
wall time for SCC    0.01 s
speedup  1.05
cpu  time for grad    0.01 s
wall time for grad    0.01 s
 E :    -50.45130768  G :  0.013782    pred/act E change: -0.304D-03 -0.519D-03
Maxdispl :   0.2980   ||displ|| :   0.4745   Lambda : -0.762D-03
Largest |displ|/coords:  0.2980 (   1)  0.1779 (   3)  0.1543 (  10)
................................................................................
.............................. CYCLE   58 ......................................
................................................................................
   1    -50.7304836 -0.507305E+02  0.182E-01    8.58       0.0  T
   2    -50.7304952 -0.115747E-04  0.136E-01    8.57       1.0  T
   3    -50.7305028 -0.764458E-05  0.228E-02    8.57       1.0  T
   4    -50.7305044 -0.159753E-05  0.779E-03    8.57       2.5  T
   5    -50.7305045 -0.889601E-07  0.221E-03    8.57       8.9  T
   6    -50.7305045 -0.468982E-08  0.128E-03    8.57      15.3  T
speedup  0.91
cpu  time for SCC    0.00 s
wall time for SCC    0.01 s
speedup  0.96
cpu  time for grad    0.01 s
wall time for grad    0.01 s
 E :    -50.45162272  G :  0.015746    pred/act E change: -0.493D-03 -0.315D-03
Maxdispl :   0.0696   ||displ|| :   0.1618   Lambda : -0.558D-03
Largest |displ|/coords:  0.0696 (  11)  0.0634 (   6)  0.0539 (   3)
................................................................................
.............................. CYCLE   59 ......................................
................................................................................
   1    -50.7308616 -0.507309E+02  0.992E-02    8.65       0.0  T
   2    -50.7308663 -0.464955E-05  0.735E-02    8.65       1.0  T
   3    -50.7308688 -0.253935E-05  0.168E-02    8.66       1.2  T
   4    -50.7308694 -0.570616E-06  0.382E-03    8.66       5.1  T
   5    -50.7308694 -0.355511E-07  0.123E-03    8.66      15.9  T
   6    -50.7308694 -0.101068E-08  0.695E-04    8.66      28.2  T
speedup  0.94
cpu  time for SCC    0.00 s
wall time for SCC    0.01 s
speedup  0.98
cpu  time for grad    0.01 s
wall time for grad    0.01 s
 E :    -50.45197788  G :  0.008812    pred/act E change: -0.467D-03 -0.355D-03
Maxdispl :   0.1594   ||displ|| :   0.2865   Lambda : -0.392D-03
Largest |displ|/coords:  0.1594 (   6)  0.1582 (   3)  0.1125 (   1)
................................................................................
.............................. CYCLE   60 ......................................
................................................................................
   1    -50.7279422 -0.507279E+02  0.131E-01    8.64       0.0  T
   2    -50.7279470 -0.479404E-05  0.971E-02    8.64       1.0  T
   3    -50.7279501 -0.311310E-05  0.164E-02    8.66       1.2  T
   4    -50.7279507 -0.627810E-06  0.473E-03    8.66       4.1  T
   5    -50.7279507 -0.283680E-07  0.149E-03    8.66      13.2  T
   6    -50.7279507 -0.248091E-08  0.794E-04    8.66      24.7  T
speedup  0.96
cpu  time for SCC    0.00 s
wall time for SCC    0.01 s
speedup  0.99
cpu  time for grad    0.01 s
wall time for grad    0.01 s
 E :    -50.45222950  G :  0.009354    pred/act E change: -0.286D-03 -0.252D-03
Maxdispl :   0.2041   ||displ|| :   0.2947   Lambda : -0.463D-03
Largest |displ|/coords:  0.2041 (   3)  0.0953 (   2)  0.0834 (  10)
................................................................................
.............................. CYCLE   61 ......................................
................................................................................
   1    -50.7307994 -0.507308E+02  0.130E-01    8.68       0.0  T
   2    -50.7308047 -0.530246E-05  0.938E-02    8.68       1.0  T
   3    -50.7308078 -0.303527E-05  0.229E-02    8.69       1.0  T
   4    -50.7308084 -0.572923E-06  0.532E-03    8.70       3.7  T
   5    -50.7308084 -0.389003E-07  0.136E-03    8.70      14.4  T
   6    -50.7308084 -0.256927E-08  0.794E-04    8.70      24.7  T
speedup  1.13
cpu  time for SCC    0.01 s
wall time for SCC    0.01 s
speedup  1.06
cpu  time for grad    0.01 s
wall time for grad    0.01 s
 E :    -50.45245890  G :  0.009725    pred/act E change: -0.212D-03 -0.229D-03
Maxdispl :   0.2638   ||displ|| :   0.3889   Lambda : -0.391D-03
Largest |displ|/coords:  0.2638 (   3)  0.1785 (   6)  0.1446 (   1)
................................................................................
.............................. CYCLE   62 ......................................
................................................................................
   1    -50.7275799 -0.507276E+02  0.147E-01    8.63       0.0  T
   2    -50.7275845 -0.454838E-05  0.110E-01    8.63       1.0  T
   3    -50.7275883 -0.386611E-05  0.145E-02    8.63       1.4  T
   4    -50.7275889 -0.604240E-06  0.499E-03    8.63       3.9  T
   5    -50.7275890 -0.307694E-07  0.156E-03    8.63      12.6  T
   6    -50.7275890 -0.264772E-08  0.873E-04    8.63      22.5  T
speedup  0.93
cpu  time for SCC    0.01 s
wall time for SCC    0.01 s
speedup  0.98
cpu  time for grad    0.01 s
wall time for grad    0.01 s
 E :    -50.45271941  G :  0.011108    pred/act E change: -0.251D-03 -0.261D-03
Maxdispl :   0.2344   ||displ|| :   0.3150   Lambda : -0.427D-03
Largest |displ|/coords:  0.2344 (   3)  0.1136 (   6)  0.0732 (   7)
................................................................................
.............................. CYCLE   63 ......................................
................................................................................
   1    -50.7270723 -0.507271E+02  0.139E-01    8.58       0.0  T
   2    -50.7270792 -0.686387E-05  0.104E-01    8.59       1.0  T
   3    -50.7270835 -0.437357E-05  0.154E-02    8.59       1.3  T
   4    -50.7270845 -0.961312E-06  0.444E-03    8.59       4.4  T
   5    -50.7270845 -0.275048E-07  0.175E-03    8.59      11.2  T
   6    -50.7270845 -0.310007E-08  0.862E-04    8.59      22.8  T
speedup  0.96
cpu  time for SCC    0.00 s
wall time for SCC    0.01 s
speedup  0.98
cpu  time for grad    0.01 s
wall time for grad    0.01 s
 E :    -50.45297591  G :  0.011575    pred/act E change: -0.225D-03 -0.256D-03
Maxdispl :   0.2904   ||displ|| :   0.3553   Lambda : -0.519D-03
Largest |displ|/coords:  0.2904 (   3)  0.0751 (   6)  0.0628 (  11)
................................................................................
.............................. CYCLE   64 ......................................
................................................................................
   1    -50.7304434 -0.507304E+02  0.150E-01    8.65       0.0  T
   2    -50.7304510 -0.761863E-05  0.113E-01    8.63       1.0  T
   3    -50.7304566 -0.559286E-05  0.160E-02    8.61       1.2  T
   4    -50.7304578 -0.120755E-05  0.556E-03    8.62       3.5  T
   5    -50.7304579 -0.438343E-07  0.177E-03    8.62      11.1  T
   6    -50.7304579 -0.266191E-08  0.937E-04    8.62      20.9  T
speedup  0.96
cpu  time for SCC    0.00 s
wall time for SCC    0.01 s
speedup  0.98
cpu  time for grad    0.01 s
wall time for grad    0.01 s
 E :    -50.45317962  G :  0.011814    pred/act E change: -0.235D-03 -0.204D-03
Maxdispl :   0.3494   ||displ|| :   0.4622   Lambda : -0.593D-03
Largest |displ|/coords:  0.3494 (   3)  0.1690 (   6)  0.0999 (   2)
................................................................................
.............................. CYCLE   65 ......................................
................................................................................
   1    -50.7272701 -0.507273E+02  0.190E-01    8.60       0.0  T
   2    -50.7272794 -0.934348E-05  0.141E-01    8.60       1.0  T
   3    -50.7272854 -0.596064E-05  0.185E-02    8.61       1.1  T
[...]
Largest |displ|/coords:  0.0151 (   1)  0.0095 (   2)  0.0067 (  12)
................................................................................
.............................. CYCLE  136 ......................................
................................................................................
   1    -50.7321970 -0.507322E+02  0.148E-02    8.65       0.0  T
   2    -50.7321971 -0.685417E-07  0.109E-02    8.65       1.8  T
   3    -50.7321971 -0.520646E-07  0.192E-03    8.65      10.2  T
   4    -50.7321971 -0.834734E-08  0.557E-04    8.65      35.2  T
   5    -50.7321971 -0.502688E-09  0.181E-04    8.65     108.3  T
speedup  1.11
cpu  time for SCC    0.00 s
wall time for SCC    0.00 s
speedup  1.00
cpu  time for grad    0.01 s
wall time for grad    0.01 s
 E :    -50.46135019  G :  0.001029    pred/act E change: -0.282D-05 -0.224D-05
Maxdispl :   0.0344   ||displ|| :   0.0449   Lambda : -0.253D-05
Largest |displ|/coords:  0.0344 (   1)  0.0254 (   2)  0.0057 (  42)
................................................................................
.............................. CYCLE  137 ......................................
................................................................................
   1    -50.7319878 -0.507320E+02  0.192E-02    8.65       0.0  T
   2    -50.7319879 -0.656512E-07  0.142E-02    8.65       1.4  T
   3    -50.7319879 -0.586906E-07  0.140E-03    8.66      14.1  T
   4    -50.7319880 -0.596363E-08  0.511E-04    8.66      38.4  T
   5    -50.7319880 -0.256691E-09  0.152E-04    8.66     128.9  T
speedup  1.11
cpu  time for SCC    0.00 s
wall time for SCC    0.00 s
speedup  1.07
cpu  time for grad    0.01 s
wall time for grad    0.01 s
 E :    -50.46135161  G :  0.000828    pred/act E change: -0.228D-05 -0.143D-05
Maxdispl :   0.0060   ||displ|| :   0.0104   Lambda : -0.148D-05
Largest |displ|/coords:  0.0060 (   2)  0.0041 (   7)  0.0036 (   8)
................................................................................
.............................. CYCLE  138 ......................................
................................................................................
   1    -50.7319556 -0.507320E+02  0.539E-03    8.66       0.0  T
   2    -50.7319556 -0.103304E-07  0.400E-03    8.66       4.9  T
   3    -50.7319556 -0.557486E-08  0.617E-04    8.65      31.8  T
   4    -50.7319556 -0.152296E-08  0.192E-04    8.65     102.3  T
speedup  0.81
cpu  time for SCC    0.00 s
wall time for SCC    0.00 s
speedup  0.98
cpu  time for grad    0.01 s
wall time for grad    0.01 s
 E :    -50.46135264  G :  0.000718    pred/act E change: -0.127D-05 -0.102D-05
Maxdispl :   0.0047   ||displ|| :   0.0100   Lambda : -0.133D-05
Largest |displ|/coords:  0.0047 (   2)  0.0042 (   1)  0.0033 (   7)
................................................................................
.............................. CYCLE  139 ......................................
................................................................................
   1    -50.7319777 -0.507320E+02  0.665E-03    8.65       0.0  T
   2    -50.7319777 -0.149949E-07  0.493E-03    8.65       4.0  T
   3    -50.7319777 -0.952974E-08  0.657E-04    8.65      29.8  T
   4    -50.7319777 -0.207116E-08  0.205E-04    8.65      95.9  T
speedup  0.83
cpu  time for SCC    0.00 s
wall time for SCC    0.00 s
speedup  0.98
cpu  time for grad    0.01 s
wall time for grad    0.01 s
 E :    -50.46135354  G :  0.000549    pred/act E change: -0.738D-06 -0.902D-06
Maxdispl :   0.0117   ||displ|| :   0.0179   Lambda : -0.109D-05
Largest |displ|/coords:  0.0117 (   1)  0.0077 (   2)  0.0050 (   7)
................................................................................
.............................. CYCLE  140 ......................................
................................................................................
   1    -50.7319953 -0.507320E+02  0.103E-02    8.65       0.0  T
   2    -50.7319953 -0.178487E-07  0.760E-03    8.65       2.6  T
   3    -50.7319953 -0.169430E-07  0.696E-04    8.65      28.2  T
   4    -50.7319953 -0.134398E-08  0.264E-04    8.65      74.4  T
speedup  1.11
cpu  time for SCC    0.00 s
wall time for SCC    0.00 s
speedup  0.99
cpu  time for grad    0.01 s
wall time for grad    0.01 s
 E :    -50.46135434  G :  0.000628    pred/act E change: -0.663D-06 -0.800D-06
Maxdispl :   0.0168   ||displ|| :   0.0265   Lambda : -0.120D-05
Largest |displ|/coords:  0.0168 (   1)  0.0154 (   2)  0.0067 (   7)
................................................................................
.............................. CYCLE  141 ......................................
................................................................................
   1    -50.7320049 -0.507320E+02  0.141E-02    8.65       0.0  T
   2    -50.7320050 -0.332720E-07  0.104E-02    8.65       1.9  T
   3    -50.7320050 -0.301577E-07  0.968E-04    8.65      20.3  T
   4    -50.7320050 -0.266552E-08  0.347E-04    8.65      56.4  T
speedup  1.11
cpu  time for SCC    0.00 s
wall time for SCC    0.00 s
speedup  0.98
cpu  time for grad    0.01 s
wall time for grad    0.01 s
 E :    -50.46135519  G :  0.000526    pred/act E change: -0.547D-06 -0.849D-06
Maxdispl :   0.0118   ||displ|| :   0.0190   Lambda : -0.881D-06
Largest |displ|/coords:  0.0118 (   2)  0.0103 (   1)  0.0058 (   7)
................................................................................
.............................. CYCLE  142 ......................................
................................................................................
   1    -50.7321004 -0.507321E+02  0.110E-02    8.66       0.0  T
   2    -50.7321004 -0.228424E-07  0.812E-03    8.66       2.4  T
   3    -50.7321004 -0.190313E-07  0.821E-04    8.66      23.9  T
   4    -50.7321004 -0.201441E-08  0.265E-04    8.66      73.9  T
speedup  1.11
cpu  time for SCC    0.00 s
wall time for SCC    0.00 s
speedup  0.99
cpu  time for grad    0.01 s
wall time for grad    0.01 s
 E :    -50.46135580  G :  0.000468    pred/act E change: -0.601D-06 -0.614D-06
Maxdispl :   0.0130   ||displ|| :   0.0190   Lambda : -0.536D-06
Largest |displ|/coords:  0.0130 (   2)  0.0108 (   1)  0.0042 (   7)
................................................................................
.............................. CYCLE  143 ......................................
................................................................................
   1    -50.7321127 -0.507321E+02  0.936E-03    8.66       0.0  T
   2    -50.7321127 -0.133997E-07  0.692E-03    8.66       2.8  T
   3    -50.7321127 -0.133458E-07  0.562E-04    8.66      34.9  T
   4    -50.7321127 -0.774833E-09  0.182E-04    8.66     107.8  T
speedup  1.11
cpu  time for SCC    0.00 s
wall time for SCC    0.00 s
speedup  0.99
cpu  time for grad    0.01 s
wall time for grad    0.01 s
 E :    -50.46135616  G :  0.000322    pred/act E change: -0.441D-06 -0.357D-06
Maxdispl :   0.0041   ||displ|| :   0.0067   Lambda : -0.277D-06
Largest |displ|/coords:  0.0041 (   2)  0.0026 (   4)  0.0024 (   6)
................................................................................
.............................. CYCLE  144 ......................................
................................................................................
   1    -50.7321831 -0.507322E+02  0.357E-03    8.66       0.0  T
   2    -50.7321831 -0.292919E-08  0.265E-03    8.66       7.4  T
   3    -50.7321831 -0.315555E-08  0.325E-04    8.66      60.4  T
   4    -50.7321831 -0.219131E-09  0.125E-04    8.66     157.5  T
speedup  1.08
cpu  time for SCC    0.00 s
wall time for SCC    0.00 s
speedup  0.98
cpu  time for grad    0.01 s
wall time for grad    0.01 s
 E :    -50.46135635  G :  0.000218    pred/act E change: -0.268D-06 -0.187D-06
Maxdispl :   0.0049   ||displ|| :   0.0081   Lambda : -0.157D-06
Largest |displ|/coords:  0.0049 (   2)  0.0044 (   1)  0.0019 (   4)
................................................................................
.............................. CYCLE  145 ......................................
................................................................................
   1    -50.7321668 -0.507322E+02  0.388E-03    8.65       0.0  T
   2    -50.7321668 -0.298398E-08  0.285E-03    8.65       6.9  T
   3    -50.7321668 -0.237731E-08  0.320E-04    8.65      61.3  T
   4    -50.7321668 -0.245500E-09  0.956E-05    8.65     205.2  T
speedup  1.08
cpu  time for SCC    0.00 s
wall time for SCC    0.00 s
speedup  1.07
cpu  time for grad    0.01 s
wall time for grad    0.01 s
 E :    -50.46135644  G :  0.000162    pred/act E change: -0.138D-06 -0.977D-07
Maxdispl :   0.0026   ||displ|| :   0.0041   Lambda : -0.833D-07
Largest |displ|/coords:  0.0026 (   6)  0.0025 (   1)  0.0008 (  13)

   *** GEOMETRY OPTIMIZATION CONVERGED AFTER 145 ITERATIONS ***

------------------------------------------------------------------------
 total energy gain (kcal):     -0.4539
------------------------------------------------------------------------
================
 final structure:
================
$coord
        1.02476558000833        0.58092295058285        1.54554467951535      S 
        1.09532104681104        2.45912300863270       -0.51361519390795      O 
        2.93381591733390       -1.36478298659779        1.14242852592842      O 
       -1.48467591800502       -0.54496730788646        1.71827461372878      O 
        1.64733168624559        1.94464283986413        4.02124168019095      O 
        0.83452414758233        3.66981043705001        3.81568561604914      H 
       -2.20462682237371       -2.09041960347911       -0.89478392748174      H 
        0.92109503993787        0.04883338316880       -4.52921609822884      O 
        0.99277917976498        1.28715625619173       -2.97590445154644      H 
        2.61357300441806       -0.90293263327672       -4.41070018752952      H 
       -0.57680444986487        6.00829152879531        2.80381435038763      O 
       -2.35410138040153        5.40070639966747        2.86849911750696      H 
       -0.02037267114530        5.69698343224256        1.09274993682342      H 
       -2.06650639624554       -2.99883545012452       -2.52137166899693      O 
       -0.48157863608176       -1.27362655017984       -3.94813541940086      H 
       -0.98227096760190       -4.44629991167607       -2.12522541322357      H 
        4.89294294937149       -2.38665240583277       -3.35857943510895      O 
        4.55546973898044       -4.17588155983289       -3.34914889522849      H 
        4.66925775035215       -1.84846962210207       -1.59785269074179      H 
        1.61481151681593       -5.88282140398680       -0.54682490080020      O 
        1.25001901176744       -7.08821185833551        0.75343136001499      H 
        2.11628193194047       -4.31733796791290        0.32289215510654      H 
       -4.93405272836837        3.47041014963096        2.70160484234243      N 
       -5.92785231078225        3.24444865852492        4.32007254186940      H 
       -3.94020652181878        1.84492688504946        2.39416171845265      H 
       -6.18893973648616        3.66498335080607        1.27095714432044      H 
$end
 
 Bond Distances (Angstroems)
 ---------------------------
S1-O2=1.4753         S1-O3=1.4581         S1-O4=1.4583         S1-O5=1.5315         O2-S1=1.4753         O3-S1=1.4581         
O4-S1=1.4583         O5-S1=1.5315         O5-H6=1.0150         H6-O5=1.0150         H7-O14=0.9886        O8-H9=1.0519         
O8-H10=1.0294        O8-H15=1.0655        H9-O8=1.0519         H10-O8=1.0294        O11-H12=0.9945       O11-H13=0.9663       
H12-O11=0.9945       H13-O11=0.9663       O14-H7=0.9886        O14-H16=0.9797       H15-O8=1.0655        H16-O14=0.9797       
O17-H18=0.9635       O17-H19=0.9815       H18-O17=0.9635       H19-O17=0.9815       O20-H21=0.9579       O20-H22=0.9841       
H21-O20=0.9579       H22-O20=0.9841       N23-H24=1.0121       N23-H25=1.0213       N23-H26=1.0123       H24-N23=1.0121       
H25-N23=1.0213       H26-N23=1.0123       
 N  H  Rav=1.0152 sigma=0.0043  Rmin=1.0121  Rmax=1.0213     3
 O  H  Rav=0.9982 sigma=0.0335  Rmin=0.9579  Rmax=1.0655    12
 S  O  Rav=1.4808 sigma=0.0301  Rmin=1.4581  Rmax=1.5315     4
 
 selected bond angles (degree)
 --------------------
O3-S1-O2=110.49                O4-S1-O2=110.16                O4-S1-O3=110.58                O5-S1-O2=107.99                
O5-S1-O3=107.99                O5-S1-O4=109.56                H6-O5-S1=103.94                H10-O8-H9=103.05               
H15-O8-H9=102.05               H15-O8-H10=105.50              
 
 selected dihedral angles (degree)
 ---------------------------------
H6-O5-S1-O2= 35.79            H6-O5-S1-O3=155.29            H6-O5-S1-O4=275.80            
 
 CMA Distance (Angstroems)
 ---------------------------
R(CMA):  1.5031

========================================================================
 FINAL SINGLEPOINT CALCULATION ON OPTIMIZED GEOMETRY
========================================================================

 Ncao       : 65
 Nao        : 64
 Nshell     : 38
 Nel        : 80
 T(el)      :   300.0
 intcut     :    25.0
 scfconv/Eh :  0.100E-05
   qconv/e  :  0.100E-03
 intneglect :  0.100E-07
 broydamp   :      0.250
 iter      E             dE          RMSdq      gap      omega  full diag
   1    -50.7321668 -0.507322E+02  0.303E-05    8.65       0.0  T
   2    -50.7321668 -0.149214E-11  0.192E-05    8.65    1023.6  T
   3    -50.7321668 -0.682121E-12  0.532E-06    8.65    3686.5  T
speedup  1.11
cpu  time for SCC    0.00 s
wall time for SCC    0.00 s

   *** convergence criteria satisfied after 3 iterations ***

          eigenvalues
 #    :          28         29         30         31         32         33         34         35
 occ. :        2.000      2.000      2.000      2.000      2.000      2.000      2.000      2.000
 eps  :       -13.817    -13.355    -12.801    -12.711    -12.694    -12.588    -12.522    -12.491
 #    :          36         37         38         39         40         41         42         43
 occ. :        2.000      2.000      2.000      2.000      2.000      0.000      0.000      0.000
 eps  :       -12.289    -12.161    -12.080    -11.975    -11.050     -2.396     -0.317     -0.095
 #    :          44         45         46         47         48         49         50         51
 occ. :        0.000      0.000      0.000      0.000      0.000      0.000      0.000      0.000
 eps  :         0.411      0.711      1.112      2.059      2.411      3.153      4.896      5.562


   #   Z            q   n(s)   n(p)   n(d)      C6AA      α(0)
   1  16 S      1.720  1.580  1.765  0.936    88.325    15.818
   2   8 O     -0.770  1.779  4.991  0.000    30.656     7.425
   3   8 O     -0.756  1.763  4.992  0.000    30.276     7.377
   4   8 O     -0.764  1.775  4.988  0.000    30.510     7.406
   5   8 O     -0.621  1.762  4.859  0.000    25.673     6.840
   6   1 H      0.386  0.614  0.000  0.000     0.505     1.113
   7   1 H      0.333  0.667  0.000  0.000     0.631     1.248
   8   8 O     -0.513  1.733  4.780  0.000    23.119     6.494
   9   1 H      0.383  0.617  0.000  0.000     0.514     1.124
  10   1 H      0.381  0.619  0.000  0.000     0.522     1.136
  11   8 O     -0.606  1.753  4.853  0.000    25.336     6.794
  12   1 H      0.324  0.676  0.000  0.000     0.654     1.270
  13   1 H      0.309  0.691  0.000  0.000     0.695     1.309
  14   8 O     -0.612  1.758  4.854  0.000    25.453     6.810
  15   1 H      0.383  0.617  0.000  0.000     0.515     1.126
  16   1 H      0.333  0.667  0.000  0.000     0.630     1.247
  17   8 O     -0.593  1.746  4.847  0.000    25.025     6.752
  18   1 H      0.317  0.683  0.000  0.000     0.672     1.288
  19   1 H      0.337  0.663  0.000  0.000     0.621     1.238
  20   8 O     -0.623  1.744  4.879  0.000    25.733     6.847
  21   1 H      0.288  0.712  0.000  0.000     0.759     1.369
  22   1 H      0.329  0.671  0.000  0.000     0.641     1.258
  23   7 N     -0.461  1.375  4.087  0.000    32.157     8.422
  24   1 H      0.155  0.845  0.000  0.000     1.366     1.831
  25   1 H      0.190  0.810  0.000  0.000     1.157     1.685
  26   1 H      0.156  0.844  0.000  0.000     1.364     1.830

 Mol. C6AA /au·bohr⁶  :       5492.333005
 Mol. C8AA /au·bohr⁸  :     118640.628877
 Mol. α(0) /au        :        107.055251

 
 Wiberg/Mayer (AO) data. WBOs > 0.1 written file <wbo>
 largest (>0.05) Wiberg bond orders for each atom
           total WBO             WBO to atom ...
     1  S   4.813    O    3 1.287    O    4 1.269    O    2 1.203    O    5 1.003
     2  O   1.727    S    1 1.203    H    9 0.165    O    4 0.103    O    3 0.099    O    5 0.074    O    8 0.052
     3  O   1.719    S    1 1.287    O    4 0.105    O    2 0.099    O    5 0.067    H   22 0.061
     4  O   1.709    S    1 1.269    O    3 0.105    O    2 0.103    O    5 0.081    H    7 0.069
     5  O   1.972    S    1 1.003    H    6 0.684    O    4 0.081    O    2 0.074    O    3 0.067    O   11 0.051
     6  H   0.851    O    5 0.684    O   11 0.149
     7  H   0.889    O   14 0.815    O    4 0.069
     8  O   2.236    H   10 0.715    H    9 0.679    H   15 0.652    O   14 0.069    O   17 0.053    O    2 0.052
     9  H   0.854    O    8 0.679    O    2 0.165
    10  H   0.855    O    8 0.715    O   17 0.137
    11  O   1.948    H   13 0.885    H   12 0.803    H    6 0.149    O    5 0.051
    12  H   0.895    O   11 0.803    N   23 0.090
    13  H   0.905    O   11 0.885
    14  O   1.983    H   16 0.835    H    7 0.815    H   15 0.198    O    8 0.069
    15  H   0.853    O    8 0.652    O   14 0.198
    16  H   0.889    O   14 0.835    O   20 0.051
    17  O   1.948    H   18 0.891    H   19 0.833    H   10 0.137    O    8 0.053
    18  H   0.900    O   17 0.891
    19  H   0.887    O   17 0.833
    20  O   1.855    H   21 0.913    H   22 0.825    H   16 0.051
    21  H   0.917    O   20 0.913
    22  H   0.892    O   20 0.825    O    3 0.061
    23  N   3.030    H   24 0.973    H   26 0.973    H   25 0.928    H   12 0.090
    24  H   0.976    N   23 0.973
    25  H   0.964    N   23 0.928
    26  H   0.976    N   23 0.973
 MOs/occ written to file <molden.input>
 
molecular dipole:
                 x           y           z       tot (Debye)
 q only:       -0.557      -0.580      -0.915
   full:       -0.792      -0.956      -0.076       3.161
molecular quadrupole (traceless):
                xx          xy          yy          xz          yz          zz
 q only:       -0.621      -6.215       2.363      -5.110      -1.508      -1.742
  q+dip:        3.520      -7.121       1.992      -4.834      -6.239      -5.512
   full:        2.889      -7.277       2.271      -4.923      -5.845      -5.160

SCC energy    :     -50.7321668
rep           :       0.2706095
ES            :       0.2432286
AES           :      -0.0717441
AXC           :      -0.0083032
disp          :      -0.0199983
XB            :       0.0000000
fix           :       0.0000000
total E       :     -50.4613564
atomizationE  :       4.9916606     3132.31
(atE without considering molecular charge,
 total energy contains solvation terms)
H-L gap (eV)  :          8.6539
optimized geometry written to: xtbopt.xyz


------------------------------------------------------------------------
 * finished run on 2019/09/16 at 11:34:42.265     
------------------------------------------------------------------------
 total:
 * wall-time:     0 d,  0 h,  0 min,  3.132 sec
 *  cpu-time:     0 d,  0 h,  0 min,  3.101 sec
 * ratio c/w:     0.990 speedup
 SCF:
 * wall-time:     0 d,  0 h,  0 min,  0.154 sec
 *  cpu-time:     0 d,  0 h,  0 min,  0.151 sec
 * ratio c/w:     0.978 speedup
 ANC optimizer:
 * wall-time:     0 d,  0 h,  0 min,  2.952 sec
 *  cpu-time:     0 d,  0 h,  0 min,  2.929 sec
 * ratio c/w:     0.992 speedup

