      -----------------------------------------------------------      
     |                   =====================                   |     
     |                           x T B                           |     
     |                   =====================                   |     
     |                         S. Grimme                         |     
     |          Mulliken Center for Theoretical Chemistry        |     
     |                    University of Bonn                     |     
     |                 Version 6.0.1 (SAW181210)                 |     
      -----------------------------------------------------------      

   This program is distributed in the hope that it will be useful,
   but WITHOUT ANY WARRANTY; without even the implied warranty of
   MERCHANTABILITY or FITNESS FOR A PARTICULAR PURPOSE.
   
   FOR NON-COMMERCIAL, ACADEMIA USE ONLY.
   
   Cite this work as:
   S. Grimme, C. Bannwarth, P. Shushkov, J. Comput. Theory Chem., 2017,
   13, 1989-2009.
   C. Bannwarth, S. Ehlert and S. Grimme., ChemRxiv, 2018, preprint.
   http://doi.org/10.26434/chemrxiv.7246238.v1
   
   for sTDA-xTB:
   S. Grimme and C. Bannwarth, J. Chem. Phys., 2016, 145, 054103.
   
   in the mass-spec context:
   V. Asgeirsson, C. Bauer and S. Grimme, Chem. Sci., 2017, 8, 4879.
   
   if GBSA is used:
   P. Shushkov, F. März and S. Grimme, unpublished.
   
   for ANC optimizer:
   S. Grimme, unpublished.
   Rational Function algorithm used in ANCopt:
   F. Eckert, P. Pulay, H.-J. Werner, J. Comput. Chem., 1997, 18, 1473.
   
   with help from (in alphabetical order)
   C. Bannwarth, F. Bohle, G. Brandenburg, E. Caldeweyher, M. Checinski,
   S. Dohm, S. Ehlert, S. Ehrlich, F. März, H. Neugebauer, J. Pisarek,
   P. Pracht, P. Shushkov, and S. Spicher.
   
 * started run on 2019/09/16 at 11:57:12.769     
========================================================================
 # omp threads = 1
========================================================================
number of atoms            : 26
number of electrons        : 80
charge                     : 0
spin                       : .0
first test random number   : .2545

########################################################################
# WARNING! Please study the warnings concerning your input carefully
#  - XTBPATH is not set, using XTBHOME instead
#  - the use of '-opt' is discouraged, please use '--opt' next time
#  - the use of '-chrg' is discouraged, please use '--chrg' next time
#  - the use of '-uhf' is discouraged, please use '--uhf' next time
########################################################################

           ------------------------------------------------- 
          |                 G F N 2 - x T B                 |
          | Geometry, Frequencies, Noncovalent interactions |
          |            JCTC 2018 parametrisation            |
           ------------------------------------------------- 
      method parameters     
 k(s)        :  1.8500
 k(p)        :  2.2300
 k(d)        :  2.2300
 k(f)        :  2.0000
 kEN (H0ij)  : -2.0000
 D4 a1       :  0.5200
 D4 a2       :  5.0000
 D4 s6       :  1.0000
 D4 s8       :  2.7000
 D4 s9       :  5.0000
 alphaj      :  2.0000


            Z     q(EN)     CN     RAES       Cart. coordinates
     1  S   6.0    0.61    4.51    4.58    -0.51916    -1.64363     0.01941
     2  O   6.0   -0.33    1.22    1.80     1.81811    -3.09375     0.62145
     3  O   6.0   -0.30    1.17    1.80    -0.85384    -1.52020    -2.77359
     4  O   6.0   -0.27    2.10    1.84    -0.30063     0.92984     1.04019
     5  O   6.0   -0.25    2.10    1.84    -2.71287    -2.90859     1.15961
     6  H   1.0    0.16    1.29    1.49    -3.52608    -1.77902     2.32316
     7  H   1.0    0.16    1.27    1.48     1.13221     1.75691     0.29586
     8  O   6.0   -0.29    2.03    1.83    -5.02058     0.34089     4.21158
     9  H   1.0    0.14    0.97    1.43    -5.25114     0.46026     6.01358
    10  H   1.0    0.15    1.05    1.44    -6.18903     1.53990     3.49623
    11  O   6.0   -0.27    1.95    1.82     6.48080    -1.08851     1.43127
    12  H   1.0    0.17    1.02    1.43     4.98141    -2.11699     1.52437
    13  H   1.0    0.16    1.01    1.43     5.97205     0.42648     0.55914
    14  O   6.0   -0.31    2.06    1.83     3.88824     2.59263    -1.38670
    15  H   1.0    0.16    1.05    1.44     3.86774     1.59494    -2.90945
    16  H   1.0    0.15    0.97    1.43     4.77900     4.11925    -1.82329
    17  O   6.0   -0.28    1.99    1.83     5.59888    -4.40028    -2.71400
    18  H   1.0    0.15    0.98    1.43     6.95047    -3.83093    -1.63527
    19  H   1.0    0.17    1.02    1.43     4.12451    -4.46028    -1.64759
    20  O   6.0   -0.29    2.04    1.83     3.50481    -0.50848    -5.26855
    21  H   1.0    0.16    1.02    1.43     4.45897    -2.01705    -4.91020
    22  H   1.0    0.17    1.02    1.43     1.76315    -0.96489    -4.99851
    23  N   5.0   -0.23    3.01    1.93    -8.38942     3.79535     2.11943
    24  H   1.0    0.10    0.99    1.43    -7.79722     5.62829     2.14615
    25  H   1.0    0.10    0.99    1.43   -10.17317     3.81126     2.84678
    26  H   1.0    0.10    0.99    1.43    -8.58721     3.33658     0.25892

  Z AO/shell   Hii/eV     exponent
  1     Wed Apr 25 08:07:45 CEST 2018   EN: 2.200 GM2: 0.406  GM3: 0.0800  RAES: 1.40
     1s    -10.707211    1.230000
  7     Wed Apr 25 08:07:45 CEST 2018   EN: 3.040 GM2: 0.461  GM3:-0.0640  RAES: 1.90
     2s    -16.686243    2.339881
     2p    -12.523956    2.014332
  8     Wed Apr 25 08:07:45 CEST 2018   EN: 3.440 GM2: 0.452  GM3:-0.0517  RAES: 1.80
     2s    -20.229985    2.439742
     2p    -15.503117    2.137023
 16     Tue Apr 24 11:44:34 CEST 2018   EN: 2.580 GM2: 0.340  GM3:-0.0502  RAES: 3.10
     3s    -20.029654    1.981333
     3p    -11.377694    2.025643
     3d     -0.420282    1.702555
 no old-style atom pair restraining (fixing) potential

molecular fragmentation (1/2 indicates fragments):
11111112222222222222222222
# atoms in fragment 1/2:     7    19
 fragment masses (1/2) :       98.07      107.11
CMA distance (Bohr)    :   2.361
constraining FC (au)   :  0.0500
           ------------------------------------------------- 
          |        Self-Consistent Charge Iterations        |
           ------------------------------------------------- 

 Ncao       : 65
 Nao        : 64
 Nshell     : 38
 Nel        : 80
 T(el)      :   300.0
 intcut     :    25.0
 scfconv/Eh :  0.100E-05
   qconv/e  :  0.100E-03
 intneglect :  0.100E-07
 broydamp   :      0.250
 iter      E             dE          RMSdq      gap      omega  full diag
   1    -50.6259929 -0.506260E+02  0.702E+00   10.40       0.0  T
   2    -50.6817987 -0.558058E-01  0.505E+00    9.95       1.0  T
   3    -50.7214503 -0.396516E-01  0.142E+00    7.89       1.0  T
   4    -50.7275260 -0.607569E-02  0.588E-01    8.17       1.0  T
   5    -50.7281915 -0.665447E-03  0.359E-01    8.11       1.0  T
   6    -50.7288368 -0.645335E-03  0.162E-01    8.19       1.0  T
   7    -50.7290060 -0.169182E-03  0.590E-02    8.18       1.0  T
   8    -50.7290242 -0.182500E-04  0.364E-02    8.18       1.0  T
   9    -50.7290324 -0.813309E-05  0.145E-02    8.19       1.4  T
  10    -50.7290338 -0.146466E-05  0.266E-03    8.20       7.4  T
  11    -50.7290339 -0.221542E-07  0.127E-03    8.19      15.4  T
  12    -50.7290339 -0.641850E-08  0.552E-04    8.20      35.5  T
  13    -50.7290339 -0.166374E-08  0.147E-04    8.19     133.5  T
speedup  1.03
cpu  time for SCC    0.01 s
wall time for SCC    0.01 s

   *** convergence criteria satisfied after 13 iterations ***

          eigenvalues
 #    :          28         29         30         31         32         33         34         35
 occ. :        2.000      2.000      2.000      2.000      2.000      2.000      2.000      2.000
 eps  :       -13.168    -12.912    -12.836    -12.746    -12.363    -12.279    -12.149    -12.093
 #    :          36         37         38         39         40         41         42         43
 occ. :        2.000      2.000      2.000      2.000      2.000      0.000      0.000      0.000
 eps  :       -11.923    -11.689    -11.235    -10.983    -10.831     -2.636     -1.409     -0.371
 #    :          44         45         46         47         48         49         50         51
 occ. :        0.000      0.000      0.000      0.000      0.000      0.000      0.000      0.000
 eps  :         0.085      0.543      1.292      2.026      3.120      4.178      4.200      4.647


   #   Z            q   n(s)   n(p)   n(d)      C6AA      α(0)
   1  16 S      1.715  1.572  1.774  0.940    88.437    15.828
   2   8 O     -0.727  1.772  4.955  0.000    29.442     7.275
   3   8 O     -0.717  1.775  4.942  0.000    29.173     7.242
   4   8 O     -0.572  1.716  4.856  0.000    24.486     6.680
   5   8 O     -0.551  1.717  4.834  0.000    24.016     6.616
   6   1 H      0.410  0.590  0.000  0.000     0.459     1.060
   7   1 H      0.417  0.583  0.000  0.000     0.448     1.047
   8   8 O     -0.619  1.738  4.880  0.000    25.634     6.833
   9   1 H      0.297  0.703  0.000  0.000     0.731     1.343
  10   1 H      0.323  0.677  0.000  0.000     0.654     1.271
  11   8 O     -0.629  1.747  4.881  0.000    25.882     6.866
  12   1 H      0.304  0.696  0.000  0.000     0.709     1.322
  13   1 H      0.293  0.707  0.000  0.000     0.744     1.355
  14   8 O     -0.639  1.747  4.892  0.000    26.148     6.901
  15   1 H      0.345  0.655  0.000  0.000     0.600     1.216
  16   1 H      0.297  0.703  0.000  0.000     0.729     1.341
  17   8 O     -0.611  1.742  4.869  0.000    25.454     6.809
  18   1 H      0.305  0.695  0.000  0.000     0.706     1.320
  19   1 H      0.310  0.690  0.000  0.000     0.691     1.305
  20   8 O     -0.631  1.743  4.888  0.000    25.945     6.875
  21   1 H      0.325  0.675  0.000  0.000     0.651     1.268
  22   1 H      0.311  0.689  0.000  0.000     0.690     1.305
  23   7 N     -0.438  1.391  4.047  0.000    31.459     8.330
  24   1 H      0.160  0.840  0.000  0.000     1.335     1.810
  25   1 H      0.159  0.841  0.000  0.000     1.343     1.816
  26   1 H      0.162  0.838  0.000  0.000     1.321     1.801

 Mol. C6AA /au·bohr⁶  :       5456.287582
 Mol. C8AA /au·bohr⁸  :     117666.572834
 Mol. α(0) /au        :        106.833792

 
 Wiberg/Mayer (AO) data. WBOs > 0.1 written file <wbo>
 largest (>0.05) Wiberg bond orders for each atom
           total WBO             WBO to atom ...
     1  S   4.813    O    3 1.349    O    2 1.318    O    5 1.069    O    4 1.034
     2  O   1.700    S    1 1.318    O    3 0.133    O    4 0.087    O    5 0.077
     3  O   1.702    S    1 1.349    O    2 0.133    O    4 0.090    O    5 0.080
     4  O   2.032    S    1 1.034    H    7 0.746    O    3 0.090    O    2 0.087
     5  O   2.055    S    1 1.069    H    6 0.744    O    3 0.080    O    2 0.077
     6  H   0.831    O    5 0.744    O    8 0.064
     7  H   0.826    O    4 0.746    O   14 0.057
     8  O   1.854    H    9 0.905    H   10 0.834    H    6 0.064
     9  H   0.912    O    8 0.905
    10  H   0.895    O    8 0.834    N   23 0.058
    11  O   1.816    H   13 0.884    H   12 0.873
    12  H   0.907    O   11 0.873
    13  H   0.914    O   11 0.884
    14  O   1.862    H   16 0.903    H   15 0.801    H    7 0.057
    15  H   0.881    O   14 0.801    O   20 0.078
    16  H   0.911    O   14 0.903
    17  O   1.857    H   18 0.891    H   19 0.873
    18  H   0.907    O   17 0.891
    19  H   0.904    O   17 0.873
    20  O   1.875    H   22 0.872    H   21 0.849    H   15 0.078
    21  H   0.895    O   20 0.849
    22  H   0.904    O   20 0.872
    23  N   3.002    H   25 0.972    H   24 0.972    H   26 0.972    H   10 0.058
    24  H   0.974    N   23 0.972
    25  H   0.975    N   23 0.972
    26  H   0.974    N   23 0.972
 MOs/occ written to file <molden.input>
 
molecular dipole:
                 x           y           z       tot (Debye)
 q only:       -2.725       2.189       1.529
   full:       -3.649       2.837       1.846      12.650
molecular quadrupole (traceless):
                xx          xy          yy          xz          yz          zz
 q only:        7.781      -0.578      -1.378     -10.567      -2.185      -6.403
  q+dip:       11.031      -3.912      -0.926     -10.908      -3.478     -10.105
   full:       11.213      -3.388      -0.771     -11.383      -3.348     -10.442

SCC energy    :     -50.7290339
rep           :       0.3158086
ES            :       0.2471442
AES           :      -0.0486453
AXC           :      -0.0070376
disp          :      -0.0168477
XB            :       0.0000000
fix           :       0.0000000
total E       :     -50.4131304
atomizationE  :       4.9434345     3102.05
(atE without considering molecular charge,
 total energy contains solvation terms)
H-L gap (eV)  :          8.1949
           ------------------------------------------------- 
          |                 ===============                 |
          |                   A N C O P T                   |
          |                 ===============                 |
          |          Approximate Normal Coordinate          |
          |           Rational Function Optimizer           |
           ------------------------------------------------- 
dumping coords to <xtbopt.coord> and <xtbopt.log>
 optlevel               2
 Maxcycle             520
 Maxmicro              25
 Econv         1.000000000000000E-007
 Gconv         2.000000000000000E-004
 Maxdispl       1.00000000000000     
 Hlow          5.000000000000000E-003
 S6             20.0000000000000     
 Nvar               72

generating ANC from model Hessian ...
 Shifting diagonal of input Hessian by   5.115189231939993E-003
 Lowest  eigenvalues of input Hessian
    0.005000    0.005076   -0.000000   -0.000000    0.000000    0.000000
    0.000000    0.000000    0.005230    0.005425    0.005446    0.005746
    0.005983    0.006125    0.006671    0.006986    0.007652    0.007919
 Highest eigenvalues
    1.423230    1.456061    1.555435    3.213012    3.412648    3.462863
 
cpu  time for ANC gen    0.01 s
wall time for ANC gen    0.01 s
................................................................................
.............................. CYCLE    1 ......................................
................................................................................
   1    -50.7290339 -0.507290E+02  0.673E-05    8.19       0.0  T
   2    -50.7290339 -0.123705E-10  0.520E-05    8.19     376.9  T
   3    -50.7290339 -0.851941E-11  0.331E-05    8.20     593.1  T
speedup  1.07
cpu  time for SCC    0.00 s
wall time for SCC    0.00 s
speedup  1.03
cpu  time for grad    0.01 s
wall time for grad    0.01 s
 E :    -50.41313033  G :  0.187990    pred/act E change:  0.000D+00  0.347D-07
Maxdispl :   0.1119   ||displ|| :   0.2600   Lambda : -0.158D-01
Largest |displ|/coords:  0.1119 (  30)  0.1007 (  26)  0.0836 (  35)
................................................................................
.............................. CYCLE    2 ......................................
................................................................................
   1    -50.7292300 -0.507292E+02  0.278E-01    8.25       0.0  T
   2    -50.7294067 -0.176619E-03  0.217E-01    8.28       1.0  T
   3    -50.7294635 -0.568797E-04  0.111E-01    8.34       1.0  T
   4    -50.7294730 -0.950352E-05  0.217E-02    8.35       1.0  T
   5    -50.7294740 -0.939937E-06  0.419E-03    8.34       4.7  T
   6    -50.7294740 -0.192954E-07  0.247E-03    8.34       7.9  T
speedup  0.94
cpu  time for SCC    0.00 s
wall time for SCC    0.01 s
speedup  0.96
cpu  time for grad    0.01 s
wall time for grad    0.01 s
 E :    -50.42534624  G :  0.121253    pred/act E change:  0.000D+00 -0.122D-01
Maxdispl :   0.1034   ||displ|| :   0.2495   Lambda : -0.857D-02
Largest |displ|/coords:  0.1034 (  20)  0.0954 (  29)  0.0737 (  21)
................................................................................
.............................. CYCLE    3 ......................................
................................................................................
   1    -50.7332470 -0.507332E+02  0.262E-01    8.27       0.0  T
   2    -50.7334289 -0.181902E-03  0.204E-01    8.30       1.0  T
   3    -50.7334782 -0.493104E-04  0.114E-01    8.35       1.0  T
   4    -50.7334851 -0.687378E-05  0.193E-02    8.37       1.0  T
   5    -50.7334857 -0.630333E-06  0.324E-03    8.36       6.0  T
   6    -50.7334857 -0.134011E-07  0.179E-03    8.36      11.0  T
speedup  0.96
cpu  time for SCC    0.01 s
wall time for SCC    0.01 s
speedup  1.04
cpu  time for grad    0.01 s
wall time for grad    0.01 s
 E :    -50.43196300  G :  0.067053    pred/act E change: -0.843D-02 -0.662D-02
Maxdispl :   0.1167   ||displ|| :   0.2667   Lambda : -0.413D-02
Largest |displ|/coords:  0.1167 (  16)  0.0904 (  21)  0.0894 (  12)
................................................................................
.............................. CYCLE    4 ......................................
................................................................................
   1    -50.7342128 -0.507342E+02  0.260E-01    8.30       0.0  T
   2    -50.7343176 -0.104813E-03  0.202E-01    8.32       1.0  T
   3    -50.7343448 -0.272423E-04  0.810E-02    8.35       1.0  T
   4    -50.7343553 -0.105071E-04  0.176E-02    8.36       1.1  T
   5    -50.7343558 -0.439378E-06  0.280E-03    8.36       7.0  T
   6    -50.7343558 -0.827543E-08  0.167E-03    8.36      11.8  T
speedup  0.96
cpu  time for SCC    0.00 s
wall time for SCC    0.01 s
speedup  1.02
cpu  time for grad    0.01 s
wall time for grad    0.01 s
 E :    -50.43478083  G :  0.029250    pred/act E change: -0.455D-02 -0.282D-02
Maxdispl :   0.1932   ||displ|| :   0.4476   Lambda : -0.346D-02
Largest |displ|/coords:  0.1932 (  20)  0.1877 (   5)  0.1383 (  10)
................................................................................
.............................. CYCLE    5 ......................................
................................................................................
   1    -50.7249163 -0.507249E+02  0.537E-01    7.97       0.0  T
   2    -50.7251468 -0.230427E-03  0.410E-01    8.05       1.0  T
   3    -50.7252146 -0.678174E-04  0.106E-01    8.18       1.0  T
   4    -50.7252534 -0.387800E-04  0.271E-02    8.17       1.0  T
   5    -50.7252548 -0.138804E-05  0.461E-03    8.16       4.3  T
   6    -50.7252548 -0.160431E-07  0.278E-03    8.16       7.0  T
speedup  0.96
cpu  time for SCC    0.01 s
wall time for SCC    0.01 s
speedup  0.95
cpu  time for grad    0.01 s
wall time for grad    0.01 s
 E :    -50.43499896  G :  0.044292    pred/act E change: -0.221D-02 -0.218D-03
Maxdispl :   0.1353   ||displ|| :   0.2786   Lambda : -0.408D-02
Largest |displ|/coords:  0.1353 (  10)  0.1265 (   5)  0.0768 (  15)
................................................................................
.............................. CYCLE    6 ......................................
................................................................................
   1    -50.7316385 -0.507316E+02  0.416E-01    8.20       0.0  T
   2    -50.7317065 -0.679679E-04  0.315E-01    8.16       1.0  T
   3    -50.7317509 -0.444092E-04  0.463E-02    8.08       1.0  T
   4    -50.7317617 -0.108776E-04  0.727E-03    8.13       2.7  T
   5    -50.7317619 -0.105368E-06  0.403E-03    8.13       4.9  T
   6    -50.7317619 -0.584605E-08  0.201E-03    8.13       9.8  T
speedup  0.96
cpu  time for SCC    0.00 s
wall time for SCC    0.01 s
speedup  0.95
cpu  time for grad    0.01 s
wall time for grad    0.01 s
 E :    -50.43629293  G :  0.026958    pred/act E change: -0.207D-02 -0.129D-02
Maxdispl :   0.0616   ||displ|| :   0.1606   Lambda : -0.909D-03
Largest |displ|/coords:  0.0616 (  12)  0.0602 (   7)  0.0474 (   4)
................................................................................
.............................. CYCLE    7 ......................................
................................................................................
   1    -50.7282978 -0.507283E+02  0.218E-01    8.19       0.0  T
   2    -50.7283426 -0.447987E-04  0.166E-01    8.19       1.0  T
   3    -50.7283555 -0.128912E-04  0.495E-02    8.19       1.0  T
   4    -50.7283617 -0.622204E-05  0.101E-02    8.18       1.9  T
   5    -50.7283620 -0.310649E-06  0.222E-03    8.18       8.8  T
   6    -50.7283620 -0.286308E-08  0.135E-03    8.18      14.5  T
speedup  0.96
cpu  time for SCC    0.01 s
wall time for SCC    0.01 s
speedup  1.03
cpu  time for grad    0.01 s
wall time for grad    0.01 s
 E :    -50.43647046  G :  0.022590    pred/act E change: -0.220D-02 -0.178D-03
Maxdispl :   0.1669   ||displ|| :   0.2755   Lambda : -0.169D-02
Largest |displ|/coords:  0.1669 (  12)  0.1518 (   3)  0.0701 (   5)
................................................................................
.............................. CYCLE    8 ......................................
................................................................................
   1    -50.7320687 -0.507321E+02  0.410E-01    8.21       0.0  T
   2    -50.7321662 -0.975472E-04  0.310E-01    8.22       1.0  T
   3    -50.7322195 -0.532798E-04  0.640E-02    8.23       1.0  T
   4    -50.7322338 -0.142654E-04  0.168E-02    8.23       1.2  T
   5    -50.7322346 -0.832512E-06  0.474E-03    8.22       4.1  T
   6    -50.7322346 -0.922977E-08  0.272E-03    8.22       7.2  T
speedup  0.96
cpu  time for SCC    0.00 s
wall time for SCC    0.01 s
speedup  0.96
cpu  time for grad    0.01 s
wall time for grad    0.01 s
 E :    -50.43550317  G :  0.041644    pred/act E change: -0.466D-03  0.967D-03
Maxdispl :   0.1058   ||displ|| :   0.2210   Lambda : -0.264D-02
Largest |displ|/coords:  0.1058 (  12)  0.0728 (  20)  0.0690 (  35)
................................................................................
.............................. CYCLE    9 ......................................
................................................................................
   1    -50.7306913 -0.507307E+02  0.304E-01    8.11       0.0  T
   2    -50.7307459 -0.546040E-04  0.232E-01    8.12       1.0  T
   3    -50.7307711 -0.251961E-04  0.500E-02    8.13       1.0  T
   4    -50.7307808 -0.972372E-05  0.136E-02    8.13       1.4  T
   5    -50.7307811 -0.327804E-06  0.310E-03    8.14       6.3  T
   6    -50.7307811 -0.697539E-08  0.185E-03    8.13      10.6  T
speedup  0.96
cpu  time for SCC    0.01 s
wall time for SCC    0.01 s
speedup  0.96
cpu  time for grad    0.01 s
wall time for grad    0.01 s
 E :    -50.43692100  G :  0.016633    pred/act E change: -0.908D-03 -0.142D-02
Maxdispl :   0.1159   ||displ|| :   0.2418   Lambda : -0.121D-02
Largest |displ|/coords:  0.1159 (  12)  0.0836 (   7)  0.0817 (   4)
................................................................................
.............................. CYCLE   10 ......................................
................................................................................
   1    -50.7278151 -0.507278E+02  0.300E-01    8.14       0.0  T
   2    -50.7278857 -0.705151E-04  0.225E-01    8.15       1.0  T
   3    -50.7279210 -0.352974E-04  0.535E-02    8.18       1.0  T
   4    -50.7279303 -0.938031E-05  0.158E-02    8.18       1.2  T
   5    -50.7279309 -0.609527E-06  0.423E-03    8.18       4.6  T
   6    -50.7279310 -0.130870E-07  0.272E-03    8.18       7.2  T
   7    -50.7279310 -0.123654E-07  0.669E-04    8.18      29.3  T
speedup  0.98
cpu  time for SCC    0.01 s
wall time for SCC    0.01 s
speedup  1.04
cpu  time for grad    0.01 s
wall time for grad    0.01 s
 E :    -50.43655255  G :  0.037017    pred/act E change: -0.138D-02  0.368D-03
Maxdispl :   0.0948   ||displ|| :   0.1622   Lambda : -0.171D-02
Largest |displ|/coords:  0.0948 (   6)  0.0486 (  34)  0.0484 (  16)
................................................................................
.............................. CYCLE   11 ......................................
................................................................................
   1    -50.7278141 -0.507278E+02  0.189E-01    8.18       0.0  T
   2    -50.7278421 -0.280099E-04  0.142E-01    8.18       1.0  T
   3    -50.7278578 -0.157091E-04  0.322E-02    8.18       1.0  T
   4    -50.7278613 -0.350295E-05  0.102E-02    8.18       1.9  T
   5    -50.7278616 -0.246528E-06  0.317E-03    8.18       6.2  T
   6    -50.7278616 -0.896333E-08  0.188E-03    8.18      10.5  T
speedup  0.96
cpu  time for SCC    0.00 s
wall time for SCC    0.01 s
speedup  1.02
cpu  time for grad    0.01 s
wall time for grad    0.01 s
 E :    -50.43735375  G :  0.014297    pred/act E change: -0.641D-03 -0.801D-03
Maxdispl :   0.1065   ||displ|| :   0.1623   Lambda : -0.449D-03
Largest |displ|/coords:  0.1065 (   6)  0.0658 (   3)  0.0557 (   1)
................................................................................
.............................. CYCLE   12 ......................................
................................................................................
   1    -50.7304305 -0.507304E+02  0.143E-01    8.21       0.0  T
   2    -50.7304401 -0.962251E-05  0.108E-01    8.21       1.0  T
   3    -50.7304442 -0.404138E-05  0.194E-02    8.21       1.0  T
   4    -50.7304459 -0.176627E-05  0.657E-03    8.21       3.0  T
   5    -50.7304460 -0.686583E-07  0.170E-03    8.21      11.5  T
   6    -50.7304460 -0.214206E-08  0.987E-04    8.21      19.9  T
speedup  0.94
cpu  time for SCC    0.00 s
wall time for SCC    0.01 s
speedup  0.94
cpu  time for grad    0.01 s
wall time for grad    0.01 s
 E :    -50.43741715  G :  0.012004    pred/act E change: -0.875D-03 -0.634D-04
Maxdispl :   0.0696   ||displ|| :   0.1645   Lambda : -0.416D-03
Largest |displ|/coords:  0.0696 (   3)  0.0666 (   7)  0.0636 (  12)
................................................................................
.............................. CYCLE   13 ......................................
................................................................................
   1    -50.7284865 -0.507285E+02  0.140E-01    8.20       0.0  T
   2    -50.7284922 -0.572897E-05  0.106E-01    8.20       1.0  T
   3    -50.7284971 -0.483996E-05  0.144E-02    8.23       1.4  T
   4    -50.7284978 -0.756960E-06  0.423E-03    8.23       4.6  T
   5    -50.7284978 -0.327896E-07  0.155E-03    8.22      12.6  T
   6    -50.7284978 -0.232168E-08  0.919E-04    8.22      21.3  T
speedup  0.96
cpu  time for SCC    0.01 s
wall time for SCC    0.01 s
speedup  0.95
cpu  time for grad    0.01 s
wall time for grad    0.01 s
 E :    -50.43774807  G :  0.010369    pred/act E change: -0.230D-03 -0.331D-03
Maxdispl :   0.1806   ||displ|| :   0.3728   Lambda : -0.653D-03
Largest |displ|/coords:  0.1806 (   1)  0.1631 (   3)  0.1536 (   7)
................................................................................
.............................. CYCLE   14 ......................................
................................................................................
   1    -50.7273219 -0.507273E+02  0.247E-01    8.24       0.0  T
   2    -50.7273430 -0.211545E-04  0.187E-01    8.26       1.0  T
   3    -50.7273614 -0.184171E-04  0.291E-02    8.30       1.0  T
   4    -50.7273641 -0.270677E-05  0.961E-03    8.30       2.0  T
   5    -50.7273643 -0.145614E-06  0.319E-03    8.30       6.1  T
   6    -50.7273643 -0.116160E-07  0.194E-03    8.30      10.1  T
   7    -50.7273643 -0.801580E-08  0.406E-04    8.30      48.2  T
speedup  0.98
cpu  time for SCC    0.01 s
wall time for SCC    0.01 s
speedup  0.96
cpu  time for grad    0.01 s
wall time for grad    0.01 s
 E :    -50.43805939  G :  0.012727    pred/act E change: -0.214D-03 -0.311D-03
Maxdispl :   0.1783   ||displ|| :   0.4130   Lambda : -0.671D-03
Largest |displ|/coords:  0.1783 (   6)  0.1677 (   3)  0.1538 (   1)
................................................................................
.............................. CYCLE   15 ......................................
................................................................................
   1    -50.7178746 -0.507179E+02  0.306E-01    8.28       0.0  T
   2    -50.7179168 -0.422106E-04  0.229E-01    8.29       1.0  T
   3    -50.7179508 -0.340289E-04  0.369E-02    8.32       1.0  T
   4    -50.7179564 -0.554618E-05  0.102E-02    8.32       1.9  T
   5    -50.7179565 -0.156983E-06  0.497E-03    8.32       3.9  T
   6    -50.7179566 -0.406345E-07  0.237E-03    8.32       8.3  T
   7    -50.7179566 -0.144350E-07  0.561E-04    8.32      35.0  T
speedup  0.98
cpu  time for SCC    0.01 s
wall time for SCC    0.01 s
speedup  1.03
cpu  time for grad    0.01 s
wall time for grad    0.01 s
 E :    -50.43753397  G :  0.041810    pred/act E change: -0.372D-03  0.525D-03
Maxdispl :   0.0821   ||displ|| :   0.1442   Lambda : -0.208D-02
Largest |displ|/coords:  0.0821 (  12)  0.0557 (  16)  0.0499 (  21)
................................................................................
.............................. CYCLE   16 ......................................
................................................................................
   1    -50.7283080 -0.507283E+02  0.191E-01    8.39       0.0  T
   2    -50.7283480 -0.400063E-04  0.141E-01    8.38       1.0  T
   3    -50.7283717 -0.236359E-04  0.359E-02    8.37       1.0  T
   4    -50.7283758 -0.414192E-05  0.810E-03    8.37       2.4  T
   5    -50.7283760 -0.150360E-06  0.344E-03    8.37       5.7  T
   6    -50.7283760 -0.100129E-07  0.187E-03    8.37      10.5  T
speedup  0.78
cpu  time for SCC    0.00 s
wall time for SCC    0.01 s
speedup  0.96
cpu  time for grad    0.01 s
wall time for grad    0.01 s
 E :    -50.43840873  G :  0.011080    pred/act E change: -0.393D-03 -0.875D-03
Maxdispl :   0.0998   ||displ|| :   0.2305   Lambda : -0.802D-03
Largest |displ|/coords:  0.0998 (   4)  0.0937 (   1)  0.0845 (  13)
................................................................................
.............................. CYCLE   17 ......................................
................................................................................
   1    -50.7312398 -0.507312E+02  0.199E-01    8.40       0.0  T
   2    -50.7312604 -0.206229E-04  0.149E-01    8.39       1.0  T
   3    -50.7312730 -0.125657E-04  0.257E-02    8.36       1.0  T
   4    -50.7312760 -0.303530E-05  0.909E-03    8.37       2.2  T
   5    -50.7312762 -0.180382E-06  0.284E-03    8.37       6.9  T
   6    -50.7312762 -0.663362E-08  0.170E-03    8.37      11.5  T
speedup  0.96
cpu  time for SCC    0.01 s
wall time for SCC    0.01 s
speedup  0.95
cpu  time for grad    0.01 s
wall time for grad    0.01 s
 E :    -50.43824304  G :  0.022630    pred/act E change: -0.106D-02  0.166D-03
Maxdispl :   0.0875   ||displ|| :   0.1756   Lambda : -0.860D-03
Largest |displ|/coords:  0.0875 (  16)  0.0637 (   3)  0.0556 (  10)
................................................................................
.............................. CYCLE   18 ......................................
................................................................................
   1    -50.7292829 -0.507293E+02  0.121E-01    8.36       0.0  T
   2    -50.7292893 -0.639123E-05  0.900E-02    8.37       1.0  T
   3    -50.7292933 -0.396174E-05  0.150E-02    8.39       1.3  T
   4    -50.7292942 -0.928769E-06  0.532E-03    8.39       3.7  T
   5    -50.7292943 -0.633061E-07  0.175E-03    8.39      11.2  T
speedup  1.11
cpu  time for SCC    0.00 s
wall time for SCC    0.00 s
speedup  1.01
cpu  time for grad    0.01 s
wall time for grad    0.01 s
 E :    -50.43874680  G :  0.006969    pred/act E change: -0.422D-03 -0.504D-03
Maxdispl :   0.1215   ||displ|| :   0.2692   Lambda : -0.327D-03
Largest |displ|/coords:  0.1215 (   7)  0.1203 (   1)  0.1017 (   3)
................................................................................
.............................. CYCLE   19 ......................................
................................................................................
   1    -50.7267153 -0.507267E+02  0.157E-01    8.36       0.0  T
   2    -50.7267218 -0.651050E-05  0.119E-01    8.37       1.0  T
   3    -50.7267296 -0.782535E-05  0.136E-02    8.39       1.4  T
   4    -50.7267301 -0.498125E-06  0.567E-03    8.38       3.5  T
   5    -50.7267302 -0.444180E-07  0.185E-03    8.38      10.6  T
   6    -50.7267302 -0.563904E-08  0.930E-04    8.38      21.1  T
speedup  0.96
cpu  time for SCC    0.01 s
wall time for SCC    0.01 s
speedup  0.95
cpu  time for grad    0.01 s
wall time for grad    0.01 s
 E :    -50.43880175  G :  0.012352    pred/act E change: -0.443D-03 -0.550D-04
Maxdispl :   0.1400   ||displ|| :   0.2720   Lambda : -0.430D-03
Largest |displ|/coords:  0.1400 (   1)  0.1026 (   7)  0.0964 (   2)
................................................................................
.............................. CYCLE   20 ......................................
................................................................................
   1    -50.7269169 -0.507269E+02  0.137E-01    8.40       0.0  T
   2    -50.7269217 -0.474364E-05  0.103E-01    8.40       1.0  T
   3    -50.7269266 -0.488555E-05  0.122E-02    8.40       1.6  T
   4    -50.7269270 -0.487759E-06  0.465E-03    8.40       4.2  T
   5    -50.7269271 -0.300368E-07  0.163E-03    8.40      12.0  T
   6    -50.7269271 -0.461711E-08  0.847E-04    8.40      23.2  T
speedup  1.13
cpu  time for SCC    0.01 s
wall time for SCC    0.01 s
speedup  1.02
cpu  time for grad    0.01 s
wall time for grad    0.01 s
 E :    -50.43906727  G :  0.009109    pred/act E change: -0.175D-03 -0.266D-03
Maxdispl :   0.1152   ||displ|| :   0.2460   Lambda : -0.282D-03
Largest |displ|/coords:  0.1152 (   2)  0.1115 (   7)  0.1087 (   1)
................................................................................
.............................. CYCLE   21 ......................................
................................................................................
   1    -50.7293656 -0.507294E+02  0.105E-01    8.42       0.0  T
   2    -50.7293681 -0.248526E-05  0.790E-02    8.41       1.0  T
   3    -50.7293707 -0.262167E-05  0.858E-03    8.40       2.3  T
   4    -50.7293710 -0.233678E-06  0.360E-03    8.40       5.4  T
   5    -50.7293710 -0.160342E-07  0.115E-03    8.40      17.0  T
   6    -50.7293710 -0.209492E-08  0.547E-04    8.40      35.9  T
speedup  0.98
cpu  time for SCC    0.00 s
wall time for SCC    0.01 s
speedup  1.03
cpu  time for grad    0.01 s
wall time for grad    0.01 s
 E :    -50.43924867  G :  0.005715    pred/act E change: -0.231D-03 -0.181D-03
Maxdispl :   0.2024   ||displ|| :   0.4281   Lambda : -0.274D-03
Largest |displ|/coords:  0.2024 (   7)  0.1950 (   2)  0.1916 (   1)
................................................................................
.............................. CYCLE   22 ......................................
................................................................................
   1    -50.7291063 -0.507291E+02  0.200E-01    8.39       0.0  T
   2    -50.7291139 -0.760720E-05  0.149E-01    8.39       1.0  T
   3    -50.7291227 -0.875612E-05  0.148E-02    8.38       1.3  T
   4    -50.7291231 -0.447241E-06  0.611E-03    8.38       3.2  T
   5    -50.7291232 -0.396914E-07  0.201E-03    8.38       9.8  T
   6    -50.7291232 -0.930909E-08  0.752E-04    8.38      26.1  T
speedup  0.98
cpu  time for SCC    0.00 s
wall time for SCC    0.01 s
speedup  1.03
cpu  time for grad    0.01 s
wall time for grad    0.01 s
 E :    -50.43939866  G :  0.010233    pred/act E change: -0.150D-03 -0.150D-03
Maxdispl :   0.1572   ||displ|| :   0.3044   Lambda : -0.220D-03
Largest |displ|/coords:  0.1572 (   2)  0.1508 (   7)  0.1038 (   1)
................................................................................
.............................. CYCLE   23 ......................................
................................................................................
   1    -50.7305605 -0.507306E+02  0.111E-01    8.36       0.0  T
   2    -50.7305645 -0.393334E-05  0.833E-02    8.36       1.0  T
   3    -50.7305677 -0.318776E-05  0.121E-02    8.36       1.6  T
   4    -50.7305682 -0.578464E-06  0.360E-03    8.36       5.4  T
   5    -50.7305683 -0.171762E-07  0.142E-03    8.36      13.8  T
   6    -50.7305683 -0.332637E-08  0.681E-04    8.36      28.8  T
speedup  0.98
cpu  time for SCC    0.01 s
wall time for SCC    0.01 s
speedup  1.03
cpu  time for grad    0.01 s
wall time for grad    0.01 s
 E :    -50.43950457  G :  0.006325    pred/act E change: -0.162D-03 -0.106D-03
Maxdispl :   0.1397   ||displ|| :   0.2461   Lambda : -0.160D-03
Largest |displ|/coords:  0.1397 (   7)  0.1300 (   2)  0.0858 (   3)
................................................................................
.............................. CYCLE   24 ......................................
................................................................................
   1    -50.7287304 -0.507287E+02  0.122E-01    8.34       0.0  T
   2    -50.7287336 -0.324082E-05  0.902E-02    8.34       1.0  T
   3    -50.7287364 -0.274787E-05  0.999E-03    8.35       2.0  T
   4    -50.7287367 -0.277226E-06  0.384E-03    8.35       5.1  T
   5    -50.7287367 -0.119629E-07  0.124E-03    8.35      15.8  T
   6    -50.7287367 -0.237358E-08  0.578E-04    8.35      33.9  T
speedup  0.98
cpu  time for SCC    0.00 s
wall time for SCC    0.01 s
speedup  0.95
cpu  time for grad    0.01 s
wall time for grad    0.01 s
 E :    -50.43956745  G :  0.008026    pred/act E change: -0.120D-03 -0.629D-04
Maxdispl :   0.0892   ||displ|| :   0.1335   Lambda : -0.125D-03
Largest |displ|/coords:  0.0892 (   2)  0.0432 (   7)  0.0338 (  12)
................................................................................
.............................. CYCLE   25 ......................................
................................................................................
   1    -50.7324071 -0.507324E+02  0.673E-02    8.38       0.0  T
   2    -50.7324096 -0.247572E-05  0.493E-02    8.38       1.0  T
   3    -50.7324110 -0.145490E-05  0.855E-03    8.37       2.3  T
   4    -50.7324113 -0.270421E-06  0.261E-03    8.37       7.5  T
   5    -50.7324113 -0.102619E-07  0.940E-04    8.37      20.9  T
speedup  0.91
cpu  time for SCC    0.00 s
wall time for SCC    0.00 s
speedup  0.99
cpu  time for grad    0.01 s
wall time for grad    0.01 s
 E :    -50.43960840  G :  0.010043    pred/act E change: -0.851D-04 -0.409D-04
Maxdispl :   0.1887   ||displ|| :   0.2983   Lambda : -0.205D-03
Largest |displ|/coords:  0.1887 (   2)  0.1333 (   7)  0.0975 (   3)

generating ANC from model Hessian ...
 Shifting diagonal of input Hessian by   5.127686056838590E-003
 Lowest  eigenvalues of input Hessian
    0.005000    0.005055   -0.000000   -0.000000   -0.000000    0.000000
    0.000000    0.000000    0.005403    0.005584    0.005964    0.006165
    0.006339    0.006966    0.007335    0.007670    0.008946    0.009241
 Highest eigenvalues
    1.382168    1.393419    1.396248    2.691627    3.332463    3.721597
 
cpu  time for ANC gen    0.01 s
wall time for ANC gen    0.01 s
................................................................................
.............................. CYCLE   26 ......................................
................................................................................
   1    -50.7296492 -0.507296E+02  0.133E-01    8.36       0.0  T
   2    -50.7296553 -0.611277E-05  0.996E-02    8.36       1.0  T
   3    -50.7296605 -0.520261E-05  0.133E-02    8.38       1.5  T
   4    -50.7296612 -0.722208E-06  0.380E-03    8.37       5.2  T
   5    -50.7296613 -0.171511E-07  0.189E-03    8.37      10.4  T
   6    -50.7296613 -0.729982E-08  0.692E-04    8.37      28.3  T
   7    -50.7296613 -0.103966E-08  0.194E-04    8.37     100.9  T
speedup  1.00
cpu  time for SCC    0.01 s
wall time for SCC    0.01 s
speedup  1.00
cpu  time for grad    0.01 s
wall time for grad    0.01 s
 E :    -50.43970214  G :  0.009620    pred/act E change:  0.000D+00 -0.937D-04
Maxdispl :   0.0545   ||displ|| :   0.1204   Lambda : -0.248D-03
Largest |displ|/coords:  0.0545 (   5)  0.0500 (   3)  0.0358 (  17)
................................................................................
.............................. CYCLE   27 ......................................
................................................................................
   1    -50.7303532 -0.507304E+02  0.995E-02    8.37       0.0  T
   2    -50.7303549 -0.170097E-05  0.741E-02    8.37       1.0  T
   3    -50.7303565 -0.165930E-05  0.760E-03    8.37       2.6  T
   4    -50.7303567 -0.139869E-06  0.265E-03    8.37       7.4  T
   5    -50.7303567 -0.647803E-08  0.907E-04    8.37      21.6  T
speedup  0.93
cpu  time for SCC    0.00 s
wall time for SCC    0.00 s
speedup  1.03
cpu  time for grad    0.01 s
wall time for grad    0.01 s
 E :    -50.43988439  G :  0.003693    pred/act E change:  0.000D+00 -0.182D-03
Maxdispl :   0.1186   ||displ|| :   0.2261   Lambda : -0.232D-03
Largest |displ|/coords:  0.1186 (   3)  0.0817 (   2)  0.0803 (  10)
................................................................................
.............................. CYCLE   28 ......................................
................................................................................
   1    -50.7301198 -0.507301E+02  0.167E-01    8.38       0.0  T
   2    -50.7301236 -0.373825E-05  0.124E-01    8.37       1.0  T
   3    -50.7301276 -0.400666E-05  0.104E-02    8.37       1.9  T
   4    -50.7301278 -0.198090E-06  0.435E-03    8.37       4.5  T
   5    -50.7301278 -0.123942E-07  0.128E-03    8.37      15.3  T
   6    -50.7301278 -0.269695E-08  0.478E-04    8.37      41.0  T
   7    -50.7301278 -0.641251E-09  0.164E-04    8.37     119.6  T
speedup  1.00
cpu  time for SCC    0.01 s
wall time for SCC    0.01 s
speedup  1.00
cpu  time for grad    0.01 s
wall time for grad    0.01 s
 E :    -50.44003081  G :  0.006139    pred/act E change: -0.126D-03 -0.146D-03
Maxdispl :   0.1282   ||displ|| :   0.2277   Lambda : -0.137D-03
Largest |displ|/coords:  0.1282 (   3)  0.1103 (   2)  0.0887 (   5)
................................................................................
.............................. CYCLE   29 ......................................
................................................................................
   1    -50.7296792 -0.507297E+02  0.133E-01    8.37       0.0  T
   2    -50.7296819 -0.273136E-05  0.989E-02    8.37       1.0  T
   3    -50.7296846 -0.271993E-05  0.832E-03    8.37       2.4  T
   4    -50.7296848 -0.175599E-06  0.379E-03    8.37       5.2  T
   5    -50.7296848 -0.922612E-08  0.107E-03    8.37      18.4  T
   6    -50.7296848 -0.195831E-08  0.508E-04    8.37      38.6  T
speedup  0.96
cpu  time for SCC    0.00 s
wall time for SCC    0.01 s
speedup  0.94
cpu  time for grad    0.01 s
wall time for grad    0.01 s
 E :    -50.44013609  G :  0.005752    pred/act E change: -0.122D-03 -0.105D-03
Maxdispl :   0.2371   ||displ|| :   0.4136   Lambda : -0.219D-03
Largest |displ|/coords:  0.2371 (   2)  0.2344 (   3)  0.1362 (   7)
................................................................................
.............................. CYCLE   30 ......................................
................................................................................
   1    -50.7291685 -0.507292E+02  0.197E-01    8.36       0.0  T
   2    -50.7291755 -0.697897E-05  0.146E-01    8.36       1.0  T
   3    -50.7291821 -0.656791E-05  0.136E-02    8.35       1.4  T
   4    -50.7291826 -0.580060E-06  0.617E-03    8.35       3.2  T
   5    -50.7291827 -0.283031E-07  0.190E-03    8.35      10.3  T
   6    -50.7291827 -0.640209E-08  0.992E-04    8.35      19.8  T
speedup  0.96
cpu  time for SCC    0.01 s
wall time for SCC    0.01 s
speedup  0.94
cpu  time for grad    0.01 s
wall time for grad    0.01 s
 E :    -50.44028852  G :  0.006585    pred/act E change: -0.720D-04 -0.152D-03
Maxdispl :   0.2657   ||displ|| :   0.4017   Lambda : -0.196D-03
Largest |displ|/coords:  0.2657 (   2)  0.2278 (   3)  0.1015 (   7)
................................................................................
.............................. CYCLE   31 ......................................
................................................................................
   1    -50.7301480 -0.507301E+02  0.133E-01    8.35       0.0  T
   2    -50.7301516 -0.359310E-05  0.991E-02    8.35       1.0  T
   3    -50.7301546 -0.297125E-05  0.989E-03    8.35       2.0  T
   4    -50.7301549 -0.375140E-06  0.480E-03    8.35       4.1  T
   5    -50.7301550 -0.174922E-07  0.124E-03    8.35      15.8  T
   6    -50.7301550 -0.209781E-08  0.698E-04    8.35      28.1  T
speedup  0.98
cpu  time for SCC    0.00 s
wall time for SCC    0.01 s
speedup  0.94
cpu  time for grad    0.01 s
wall time for grad    0.01 s
 E :    -50.44043432  G :  0.006080    pred/act E change: -0.128D-03 -0.146D-03
Maxdispl :   0.4027   ||displ|| :   0.5778   Lambda : -0.234D-03
Largest |displ|/coords:  0.4027 (   2)  0.2863 (   3)  0.1954 (   7)
................................................................................
.............................. CYCLE   32 ......................................
................................................................................
   1    -50.7287279 -0.507287E+02  0.199E-01    8.34       0.0  T
   2    -50.7287347 -0.678157E-05  0.148E-01    8.34       1.0  T
   3    -50.7287417 -0.698255E-05  0.140E-02    8.33       1.4  T
   4    -50.7287422 -0.497987E-06  0.728E-03    8.33       2.7  T
   5    -50.7287422 -0.420675E-07  0.176E-03    8.33      11.1  T
   6    -50.7287422 -0.584661E-08  0.106E-03    8.33      18.5  T
speedup  0.98
cpu  time for SCC    0.00 s
wall time for SCC    0.01 s
speedup  0.95
cpu  time for grad    0.01 s
wall time for grad    0.01 s
 E :    -50.44060814  G :  0.007204    pred/act E change: -0.114D-03 -0.174D-03
Maxdispl :   0.4235   ||displ|| :   0.5236   Lambda : -0.329D-03
Largest |displ|/coords:  0.4235 (   2)  0.2082 (   3)  0.1583 (   7)
................................................................................
.............................. CYCLE   33 ......................................
................................................................................
   1    -50.7323954 -0.507324E+02  0.145E-01    8.34       0.0  T
   2    -50.7324001 -0.474607E-05  0.107E-01    8.33       1.0  T
   3    -50.7324036 -0.353303E-05  0.145E-02    8.33       1.4  T
   4    -50.7324041 -0.491088E-06  0.380E-03    8.33       5.2  T
   5    -50.7324041 -0.190903E-07  0.157E-03    8.33      12.5  T
   6    -50.7324041 -0.362528E-08  0.819E-04    8.33      23.9  T
speedup  1.00
cpu  time for SCC    0.00 s
wall time for SCC    0.00 s
speedup  0.95
cpu  time for grad    0.01 s
wall time for grad    0.01 s
 E :    -50.44078037  G :  0.010119    pred/act E change: -0.156D-03 -0.172D-03
Maxdispl :   0.4316   ||displ|| :   0.5644   Lambda : -0.282D-03
Largest |displ|/coords:  0.4316 (   2)  0.2780 (   3)  0.1508 (   7)
................................................................................
.............................. CYCLE   34 ......................................
................................................................................
   1    -50.7292377 -0.507292E+02  0.193E-01    8.32       0.0  T
   2    -50.7292456 -0.785979E-05  0.142E-01    8.32       1.0  T
   3    -50.7292520 -0.645584E-05  0.140E-02    8.31       1.4  T
   4    -50.7292527 -0.702272E-06  0.623E-03    8.31       3.1  T
   5    -50.7292527 -0.226634E-07  0.183E-03    8.31      10.7  T
   6    -50.7292528 -0.493683E-08  0.926E-04    8.31      21.2  T
speedup  1.18
cpu  time for SCC    0.01 s
wall time for SCC    0.01 s
speedup  1.02
cpu  time for grad    0.01 s
wall time for grad    0.01 s
 E :    -50.44090636  G :  0.013022    pred/act E change: -0.210D-03 -0.126D-03
Maxdispl :   0.2533   ||displ|| :   0.3100   Lambda : -0.446D-03
Largest |displ|/coords:  0.2533 (   2)  0.1185 (   7)  0.0533 (  27)
................................................................................
.............................. CYCLE   35 ......................................
................................................................................
   1    -50.7302762 -0.507303E+02  0.976E-02    8.32       0.0  T
   2    -50.7302809 -0.468736E-05  0.723E-02    8.32       1.0  T
   3    -50.7302848 -0.383169E-05  0.144E-02    8.31       1.4  T
   4    -50.7302853 -0.545805E-06  0.402E-03    8.31       4.9  T
   5    -50.7302853 -0.257043E-07  0.148E-03    8.31      13.3  T
   6    -50.7302853 -0.351251E-08  0.780E-04    8.31      25.1  T
speedup  1.15
cpu  time for SCC    0.01 s
wall time for SCC    0.01 s
speedup  1.02
cpu  time for grad    0.01 s
wall time for grad    0.01 s
 E :    -50.44110166  G :  0.010630    pred/act E change: -0.186D-03 -0.195D-03
Maxdispl :   0.3346   ||displ|| :   0.3802   Lambda : -0.349D-03
Largest |displ|/coords:  0.3346 (   2)  0.1054 (   3)  0.0919 (   7)
................................................................................
.............................. CYCLE   36 ......................................
................................................................................
   1    -50.7312263 -0.507312E+02  0.115E-01    8.29       0.0  T
   2    -50.7312294 -0.304160E-05  0.854E-02    8.29       1.0  T
   3    -50.7312323 -0.294476E-05  0.111E-02    8.29       1.8  T
   4    -50.7312326 -0.253520E-06  0.422E-03    8.29       4.6  T
   5    -50.7312326 -0.174809E-07  0.119E-03    8.29      16.5  T
   6    -50.7312326 -0.133338E-08  0.672E-04    8.29      29.2  T
speedup  0.96
cpu  time for SCC    0.00 s
wall time for SCC    0.01 s
speedup  0.94
cpu  time for grad    0.01 s
wall time for grad    0.01 s
 E :    -50.44138460  G :  0.008484    pred/act E change: -0.244D-03 -0.283D-03
Maxdispl :   0.5825   ||displ|| :   0.6485   Lambda : -0.595D-03
Largest |displ|/coords:  0.5825 (   2)  0.1299 (   3)  0.1077 (   1)
................................................................................
.............................. CYCLE   37 ......................................
................................................................................
   1    -50.7348230 -0.507348E+02  0.199E-01    8.25       0.0  T
   2    -50.7348359 -0.129900E-04  0.147E-01    8.25       1.0  T
   3    -50.7348447 -0.876603E-05  0.236E-02    8.24       1.0  T
   4    -50.7348463 -0.155036E-05  0.734E-03    8.24       2.7  T
   5    -50.7348463 -0.706954E-07  0.246E-03    8.24       8.0  T
   6    -50.7348463 -0.547016E-08  0.139E-03    8.24      14.1  T
speedup  0.94
cpu  time for SCC    0.00 s
wall time for SCC    0.01 s
speedup  0.97
cpu  time for grad    0.01 s
wall time for grad    0.01 s
 E :    -50.44178685  G :  0.012041    pred/act E change: -0.200D-03 -0.402D-03
Maxdispl :   0.7050   ||displ|| :   0.7845   Lambda : -0.757D-03
Largest |displ|/coords:  0.7050 (   2)  0.1964 (   7)  0.1610 (   3)
................................................................................
.............................. CYCLE   38 ......................................
................................................................................
   1    -50.7325288 -0.507325E+02  0.238E-01    8.18       0.0  T
   2    -50.7325422 -0.133581E-04  0.176E-01    8.18       1.0  T
   3    -50.7325527 -0.104873E-04  0.242E-02    8.17       1.0  T
   4    -50.7325542 -0.150178E-05  0.876E-03    8.17       2.2  T
   5    -50.7325542 -0.677430E-07  0.260E-03    8.18       7.6  T
   6    -50.7325543 -0.771150E-08  0.139E-03    8.18      14.1  T
speedup  1.15
cpu  time for SCC    0.01 s
wall time for SCC    0.01 s
speedup  1.07
cpu  time for grad    0.01 s
wall time for grad    0.01 s
 E :    -50.44248343  G :  0.017818    pred/act E change: -0.423D-03 -0.697D-03
Maxdispl :   0.6026   ||displ|| :   0.6928   Lambda : -0.112D-02
Largest |displ|/coords:  0.6026 (   2)  0.1729 (   7)  0.1440 (   1)
................................................................................
.............................. CYCLE   39 ......................................
................................................................................
   1    -50.7290489 -0.507290E+02  0.263E-01    8.13       0.0  T
   2    -50.7290695 -0.206047E-04  0.197E-01    8.14       1.0  T
   3    -50.7290851 -0.156273E-04  0.296E-02    8.14       1.0  T
   4    -50.7290880 -0.287373E-05  0.947E-03    8.14       2.1  T
   5    -50.7290881 -0.131415E-06  0.338E-03    8.14       5.8  T
   6    -50.7290882 -0.168477E-07  0.174E-03    8.14      11.3  T
   7    -50.7290882 -0.841959E-08  0.626E-04    8.14      31.3  T
speedup  0.98
cpu  time for SCC    0.01 s
wall time for SCC    0.01 s
speedup  1.01
cpu  time for grad    0.01 s
wall time for grad    0.01 s
 E :    -50.44312131  G :  0.027397    pred/act E change: -0.611D-03 -0.638D-03
Maxdispl :   0.4997   ||displ|| :   0.5834   Lambda : -0.101D-02
Largest |displ|/coords:  0.4997 (   2)  0.1729 (   3)  0.1213 (   7)
................................................................................
.............................. CYCLE   40 ......................................
................................................................................
   1    -50.7274946 -0.507275E+02  0.166E-01    8.11       0.0  T
   2    -50.7275038 -0.915266E-05  0.123E-01    8.11       1.0  T
   3    -50.7275104 -0.662233E-05  0.188E-02    8.11       1.0  T
   4    -50.7275114 -0.103255E-05  0.656E-03    8.11       3.0  T
   5    -50.7275115 -0.590842E-07  0.232E-03    8.11       8.5  T
   6    -50.7275115 -0.106468E-07  0.121E-03    8.11      16.2  T
speedup  0.96
cpu  time for SCC    0.00 s
wall time for SCC    0.01 s
speedup  1.01
cpu  time for grad    0.01 s
wall time for grad    0.01 s
 E :    -50.44386780  G :  0.028168    pred/act E change: -0.829D-03 -0.746D-03
Maxdispl :   0.2698   ||displ|| :   0.5880   Lambda : -0.370D-02
Largest |displ|/coords:  0.2698 (  22)  0.1686 (   4)  0.1645 (   9)
................................................................................
.............................. CYCLE   41 ......................................
................................................................................
   1    -50.7413459 -0.507413E+02  0.446E-01    8.42       0.0  T
   2    -50.7414331 -0.871479E-04  0.328E-01    8.44       1.0  T
   3    -50.7414929 -0.598774E-04  0.656E-02    8.50       1.0  T
   4    -50.7415039 -0.109212E-04  0.170E-02    8.49       1.2  T
   5    -50.7415044 -0.506267E-06  0.654E-03    8.49       3.0  T
   6    -50.7415044 -0.612296E-07  0.357E-03    8.49       5.5  T
   7    -50.7415044 -0.178405E-07  0.119E-03    8.49      16.5  T
speedup  0.97
cpu  time for SCC    0.01 s
wall time for SCC    0.01 s
speedup  0.94
cpu  time for grad    0.01 s
wall time for grad    0.01 s
 E :    -50.44221589  G :  0.044114    pred/act E change: -0.676D-03  0.165D-02
Maxdispl :   0.2261   ||displ|| :   0.3938   Lambda : -0.458D-02
Largest |displ|/coords:  0.2261 (   2)  0.1315 (   7)  0.1169 (  13)
................................................................................
.............................. CYCLE   42 ......................................
................................................................................
   1    -50.7351111 -0.507351E+02  0.260E-01    8.23       0.0  T
   2    -50.7351372 -0.260968E-04  0.194E-01    8.22       1.0  T
   3    -50.7351562 -0.190239E-04  0.318E-02    8.20       1.0  T
   4    -50.7351596 -0.342317E-05  0.956E-03    8.20       2.1  T
   5    -50.7351598 -0.150823E-06  0.382E-03    8.20       5.1  T
   6    -50.7351598 -0.189484E-07  0.201E-03    8.20       9.8  T
speedup  0.94
cpu  time for SCC    0.01 s
wall time for SCC    0.01 s
speedup  1.00
cpu  time for grad    0.01 s
wall time for grad    0.01 s
 E :    -50.44506851  G :  0.017988    pred/act E change: -0.249D-02 -0.285D-02
Maxdispl :   0.4403   ||displ|| :   0.5304   Lambda : -0.171D-02
Largest |displ|/coords:  0.4403 (   2)  0.2301 (   7)  0.1056 (  27)
................................................................................
.............................. CYCLE   43 ......................................
................................................................................
   1    -50.7274537 -0.507275E+02  0.236E-01    8.16       0.0  T
   2    -50.7274675 -0.137266E-04  0.176E-01    8.15       1.0  T
   3    -50.7274818 -0.143563E-04  0.221E-02    8.14       1.0  T
   4    -50.7274829 -0.106743E-05  0.817E-03    8.14       2.4  T
   5    -50.7274830 -0.848574E-07  0.289E-03    8.14       6.8  T
   6    -50.7274830 -0.139882E-07  0.134E-03    8.14      14.7  T
speedup  0.96
cpu  time for SCC    0.00 s
wall time for SCC    0.01 s
speedup  1.00
cpu  time for grad    0.01 s
wall time for grad    0.01 s
 E :    -50.44529660  G :  0.030194    pred/act E change: -0.265D-02 -0.228D-03
Maxdispl :   0.2264   ||displ|| :   0.3199   Lambda : -0.185D-02
Largest |displ|/coords:  0.2264 (   2)  0.1293 (   6)  0.0724 (   3)
................................................................................
.............................. CYCLE   44 ......................................
................................................................................
   1    -50.7306288 -0.507306E+02  0.187E-01    8.25       0.0  T
   2    -50.7306359 -0.708162E-05  0.137E-01    8.25       1.0  T
   3    -50.7306435 -0.758770E-05  0.117E-02    8.25       1.7  T
   4    -50.7306437 -0.201165E-06  0.516E-03    8.25       3.8  T
   5    -50.7306437 -0.226470E-07  0.135E-03    8.25      14.5  T
speedup  1.16
cpu  time for SCC    0.01 s
wall time for SCC    0.00 s
speedup  1.08
cpu  time for grad    0.01 s
wall time for grad    0.01 s
 E :    -50.44606076  G :  0.020451    pred/act E change: -0.110D-02 -0.764D-03
Maxdispl :   0.2595   ||displ|| :   0.3931   Lambda : -0.115D-02
Largest |displ|/coords:  0.2595 (   2)  0.1547 (   3)  0.1499 (   7)
................................................................................
.............................. CYCLE   45 ......................................
................................................................................
   1    -50.7365675 -0.507366E+02  0.144E-01    8.39       0.0  T
   2    -50.7365857 -0.182231E-04  0.103E-01    8.39       1.0  T
   3    -50.7365939 -0.824510E-05  0.259E-02    8.40       1.0  T
   4    -50.7365955 -0.159309E-05  0.594E-03    8.40       3.3  T
   5    -50.7365956 -0.798819E-07  0.240E-03    8.40       8.2  T
speedup  0.89
cpu  time for SCC    0.00 s
wall time for SCC    0.00 s
speedup  0.98
cpu  time for grad    0.01 s
wall time for grad    0.01 s
 E :    -50.44635903  G :  0.012562    pred/act E change: -0.102D-02 -0.298D-03
Maxdispl :   0.5545   ||displ|| :   0.6247   Lambda : -0.129D-02
Largest |displ|/coords:  0.5545 (   2)  0.1078 (  27)  0.0978 (  12)
................................................................................
.............................. CYCLE   46 ......................................
................................................................................
   1    -50.7363847 -0.507364E+02  0.249E-01    8.21       0.0  T
   2    -50.7364323 -0.476422E-04  0.183E-01    8.20       1.0  T
   3    -50.7364514 -0.190523E-04  0.418E-02    8.19       1.0  T
   4    -50.7364585 -0.710423E-05  0.821E-03    8.19       2.4  T
   5    -50.7364586 -0.822535E-07  0.341E-03    8.19       5.8  T
   6    -50.7364586 -0.153262E-07  0.142E-03    8.20      13.8  T
   7    -50.7364586 -0.561750E-08  0.648E-04    8.20      30.3  T
speedup  0.81
cpu  time for SCC    0.01 s
wall time for SCC    0.01 s
speedup  0.93
cpu  time for grad    0.01 s
wall time for grad    0.01 s
 E :    -50.44651631  G :  0.027339    pred/act E change: -0.664D-03 -0.157D-03
Maxdispl :   0.2145   ||displ|| :   0.3979   Lambda : -0.241D-02
Largest |displ|/coords:  0.2145 (   3)  0.1443 (   6)  0.1133 (  18)
................................................................................
.............................. CYCLE   47 ......................................
................................................................................
   1    -50.7285646 -0.507286E+02  0.247E-01    8.25       0.0  T
   2    -50.7285954 -0.308010E-04  0.184E-01    8.25       1.0  T
   3    -50.7286122 -0.168217E-04  0.338E-02    8.24       1.0  T
   4    -50.7286172 -0.497431E-05  0.969E-03    8.25       2.0  T
   5    -50.7286173 -0.143079E-06  0.394E-03    8.25       5.0  T
   6    -50.7286173 -0.214673E-07  0.177E-03    8.25      11.1  T
speedup  0.94
cpu  time for SCC    0.00 s
wall time for SCC    0.01 s
speedup  0.92
cpu  time for grad    0.01 s
wall time for grad    0.01 s
 E :    -50.44715994  G :  0.029618    pred/act E change: -0.896D-03 -0.644D-03
Maxdispl :   0.1065   ||displ|| :   0.2400   Lambda : -0.141D-02
Largest |displ|/coords:  0.1065 (   2)  0.1018 (   9)  0.0822 (   7)
................................................................................
.............................. CYCLE   48 ......................................
................................................................................
   1    -50.7323327 -0.507323E+02  0.170E-01    8.50       0.0  T
   2    -50.7323450 -0.123764E-04  0.125E-01    8.51       1.0  T
   3    -50.7323534 -0.832133E-05  0.252E-02    8.52       1.0  T
   4    -50.7323548 -0.141526E-05  0.691E-03    8.51       2.8  T
   5    -50.7323549 -0.892107E-07  0.237E-03    8.51       8.3  T
   6    -50.7323549 -0.832937E-08  0.131E-03    8.51      15.0  T
speedup  0.96
cpu  time for SCC    0.00 s
wall time for SCC    0.01 s
speedup  1.00
cpu  time for grad    0.01 s
wall time for grad    0.01 s
 E :    -50.44778303  G :  0.013412    pred/act E change: -0.139D-02 -0.623D-03
Maxdispl :   0.2081   ||displ|| :   0.3344   Lambda : -0.719D-03
Largest |displ|/coords:  0.2081 (   2)  0.1147 (  12)  0.1126 (   3)
................................................................................
.............................. CYCLE   49 ......................................
................................................................................
   1    -50.7322907 -0.507323E+02  0.162E-01    8.36       0.0  T
   2    -50.7323012 -0.104523E-04  0.120E-01    8.35       1.0  T
   3    -50.7323085 -0.731955E-05  0.217E-02    8.34       1.0  T
   4    -50.7323097 -0.127411E-05  0.640E-03    8.34       3.1  T
   5    -50.7323098 -0.747311E-07  0.174E-03    8.34      11.3  T
   6    -50.7323098 -0.334173E-08  0.100E-03    8.34      19.6  T
speedup  0.94
cpu  time for SCC    0.00 s
wall time for SCC    0.01 s
speedup  0.99
cpu  time for grad    0.01 s
wall time for grad    0.01 s
 E :    -50.44811787  G :  0.014343    pred/act E change: -0.744D-03 -0.335D-03
Maxdispl :   0.1870   ||displ|| :   0.3187   Lambda : -0.608D-03
Largest |displ|/coords:  0.1870 (   2)  0.1202 (   5)  0.0991 (   8)
................................................................................
.............................. CYCLE   50 ......................................
................................................................................
   1    -50.7329083 -0.507329E+02  0.133E-01    8.37       0.0  T
   2    -50.7329185 -0.102244E-04  0.977E-02    8.37       1.0  T
   3    -50.7329237 -0.522819E-05  0.207E-02    8.36       1.0  T
   4    -50.7329250 -0.128741E-05  0.653E-03    8.36       3.0  T
   5    -50.7329251 -0.791459E-07  0.179E-03    8.36      10.9  T
   6    -50.7329251 -0.474148E-08  0.104E-03    8.36      18.9  T
speedup  1.15
cpu  time for SCC    0.01 s
wall time for SCC    0.01 s
speedup  1.00
cpu  time for grad    0.01 s
wall time for grad    0.01 s
 E :    -50.44850523  G :  0.013312    pred/act E change: -0.399D-03 -0.387D-03
Maxdispl :   0.2617   ||displ|| :   0.4271   Lambda : -0.719D-03
Largest |displ|/coords:  0.2617 (   2)  0.1380 (   4)  0.1189 (   5)
................................................................................
.............................. CYCLE   51 ......................................
................................................................................
   1    -50.7300346 -0.507300E+02  0.181E-01    8.44       0.0  T
   2    -50.7300450 -0.103354E-04  0.136E-01    8.44       1.0  T
   3    -50.7300510 -0.600758E-05  0.223E-02    8.44       1.0  T
   4    -50.7300526 -0.165604E-05  0.627E-03    8.44       3.1  T
   5    -50.7300527 -0.539042E-07  0.204E-03    8.44       9.6  T
   6    -50.7300527 -0.423633E-08  0.103E-03    8.44      19.1  T
speedup  0.98
cpu  time for SCC    0.00 s
wall time for SCC    0.01 s
speedup  1.00
cpu  time for grad    0.01 s
wall time for grad    0.01 s
 E :    -50.44894703  G :  0.015157    pred/act E change: -0.335D-03 -0.442D-03
Maxdispl :   0.1799   ||displ|| :   0.3663   Lambda : -0.646D-03
Largest |displ|/coords:  0.1799 (   4)  0.1131 (   5)  0.1108 (   7)
................................................................................
.............................. CYCLE   52 ......................................
................................................................................
   1    -50.7339607 -0.507340E+02  0.132E-01    8.52       0.0  T
   2    -50.7339717 -0.110969E-04  0.979E-02    8.52       1.0  T
   3    -50.7339750 -0.321376E-05  0.251E-02    8.51       1.0  T
   4    -50.7339766 -0.159505E-05  0.611E-03    8.51       3.2  T
   5    -50.7339766 -0.659916E-07  0.160E-03    8.51      12.3  T
   6    -50.7339766 -0.318641E-08  0.914E-04    8.51      21.4  T
speedup  1.13
cpu  time for SCC    0.01 s
wall time for SCC    0.01 s
speedup  1.07
cpu  time for grad    0.01 s
wall time for grad    0.01 s
 E :    -50.44934609  G :  0.012895    pred/act E change: -0.425D-03 -0.399D-03
Maxdispl :   0.2912   ||displ|| :   0.5014   Lambda : -0.596D-03
Largest |displ|/coords:  0.2912 (   2)  0.1773 (   4)  0.1489 (   5)

generating ANC from model Hessian ...
 Shifting diagonal of input Hessian by   4.893338138254213E-003
 Lowest  eigenvalues of input Hessian
   -0.000000   -0.000000    0.000000    0.000000    0.000000    0.000000
    0.005000    0.005067    0.005222    0.005670    0.005992    0.006068
    0.006428    0.006708    0.007603    0.008286    0.008989    0.009234
 Highest eigenvalues
    1.374402    1.385256    1.389492    2.758835    3.343048    3.686855
 
cpu  time for ANC gen    0.02 s
wall time for ANC gen    0.02 s
................................................................................
.............................. CYCLE   53 ......................................
................................................................................
   1    -50.7322939 -0.507323E+02  0.206E-01    8.39       0.0  T
   2    -50.7323065 -0.125813E-04  0.155E-01    8.39       1.0  T
   3    -50.7323149 -0.847614E-05  0.218E-02    8.38       1.0  T
   4    -50.7323168 -0.187524E-05  0.662E-03    8.38       3.0  T
   5    -50.7323169 -0.790944E-07  0.209E-03    8.38       9.4  T
   6    -50.7323169 -0.430855E-08  0.108E-03    8.38      18.2  T
   7    -50.7323169 -0.274400E-08  0.318E-04    8.38      61.8  T
   8    -50.7323169 -0.294541E-09  0.112E-04    8.38     174.8  T
speedup  1.01
cpu  time for SCC    0.01 s
wall time for SCC    0.01 s
speedup  0.98
cpu  time for grad    0.01 s
wall time for grad    0.02 s
 E :    -50.44973574  G :  0.015397    pred/act E change:  0.000D+00 -0.390D-03
Maxdispl :   0.0654   ||displ|| :   0.1055   Lambda : -0.237D-03
Largest |displ|/coords:  0.0654 (   2)  0.0409 (   4)  0.0368 (   5)
................................................................................
.............................. CYCLE   54 ......................................
................................................................................
   1    -50.7348059 -0.507348E+02  0.616E-02    8.42       0.0  T
   2    -50.7348074 -0.147124E-05  0.457E-02    8.42       1.0  T
   3    -50.7348082 -0.795751E-06  0.869E-03    8.42       2.3  T
   4    -50.7348084 -0.193257E-06  0.239E-03    8.42       8.2  T
   5    -50.7348084 -0.101263E-07  0.717E-04    8.42      27.4  T
speedup  0.91
cpu  time for SCC    0.00 s
wall time for SCC    0.00 s
speedup  0.98
cpu  time for grad    0.01 s
wall time for grad    0.01 s
 E :    -50.44991529  G :  0.009422    pred/act E change:  0.000D+00 -0.180D-03
Maxdispl :   0.1382   ||displ|| :   0.1954   Lambda : -0.259D-03
Largest |displ|/coords:  0.1382 (   2)  0.0944 (   4)  0.0415 (   7)
................................................................................
.............................. CYCLE   55 ......................................
................................................................................
   1    -50.7376285 -0.507376E+02  0.988E-02    8.47       0.0  T
   2    -50.7376315 -0.306087E-05  0.729E-02    8.46       1.0  T
   3    -50.7376335 -0.194215E-05  0.121E-02    8.46       1.6  T
   4    -50.7376338 -0.351564E-06  0.365E-03    8.46       5.4  T
   5    -50.7376338 -0.215376E-07  0.117E-03    8.46      16.8  T
   6    -50.7376338 -0.137207E-08  0.638E-04    8.46      30.8  T
speedup  0.98
cpu  time for SCC    0.00 s
wall time for SCC    0.01 s
speedup  1.01
cpu  time for grad    0.01 s
wall time for grad    0.01 s
 E :    -50.45008205  G :  0.004480    pred/act E change: -0.120D-03 -0.167D-03
Maxdispl :   0.1410   ||displ|| :   0.2055   Lambda : -0.143D-03
Largest |displ|/coords:  0.1410 (   2)  0.1139 (   4)  0.0389 (   8)
................................................................................
.............................. CYCLE   56 ......................................
................................................................................
   1    -50.7382380 -0.507382E+02  0.102E-01    8.48       0.0  T
   2    -50.7382402 -0.221490E-05  0.765E-02    8.47       1.0  T
   3    -50.7382422 -0.200113E-05  0.959E-03    8.47       2.0  T
   4    -50.7382424 -0.204208E-06  0.312E-03    8.47       6.3  T
   5    -50.7382424 -0.127862E-07  0.108E-03    8.47      18.2  T
   6    -50.7382424 -0.145964E-08  0.590E-04    8.47      33.3  T
speedup  0.94
cpu  time for SCC    0.00 s
wall time for SCC    0.01 s
speedup  0.99
cpu  time for grad    0.01 s
wall time for grad    0.01 s
 E :    -50.45018234  G :  0.006161    pred/act E change: -0.134D-03 -0.100D-03
Maxdispl :   0.2112   ||displ|| :   0.3080   Lambda : -0.166D-03
Largest |displ|/coords:  0.2112 (   2)  0.1677 (   4)  0.0823 (  13)
................................................................................
.............................. CYCLE   57 ......................................
................................................................................
   1    -50.7381073 -0.507381E+02  0.132E-01    8.47       0.0  T
   2    -50.7381108 -0.346068E-05  0.985E-02    8.47       1.0  T
   3    -50.7381141 -0.325650E-05  0.118E-02    8.46       1.7  T
   4    -50.7381144 -0.307353E-06  0.362E-03    8.46       5.4  T
   5    -50.7381144 -0.193163E-07  0.139E-03    8.46      14.1  T
   6    -50.7381144 -0.251912E-08  0.763E-04    8.46      25.7  T
speedup  0.96
cpu  time for SCC    0.00 s
wall time for SCC    0.01 s
speedup  0.91
cpu  time for grad    0.01 s
wall time for grad    0.01 s
 E :    -50.45029991  G :  0.008092    pred/act E change: -0.744D-04 -0.118D-03
Maxdispl :   0.1984   ||displ|| :   0.3301   Lambda : -0.167D-03
Largest |displ|/coords:  0.1984 (   2)  0.1978 (   4)  0.1205 (  13)
................................................................................
.............................. CYCLE   58 ......................................
................................................................................
   1    -50.7380871 -0.507381E+02  0.112E-01    8.45       0.0  T
   2    -50.7380908 -0.363124E-05  0.832E-02    8.45       1.0  T
   3    -50.7380930 -0.220237E-05  0.136E-02    8.44       1.4  T
   4    -50.7380935 -0.525956E-06  0.425E-03    8.44       4.6  T
   5    -50.7380935 -0.239524E-07  0.120E-03    8.44      16.3  T
   6    -50.7380935 -0.151292E-08  0.721E-04    8.44      27.2  T
speedup  0.96
cpu  time for SCC    0.00 s
wall time for SCC    0.01 s
speedup  1.01
cpu  time for grad    0.01 s
wall time for grad    0.01 s
 E :    -50.45040801  G :  0.007823    pred/act E change: -0.907D-04 -0.108D-03
Maxdispl :   0.1384   ||displ|| :   0.2466   Lambda : -0.132D-03
Largest |displ|/coords:  0.1384 (   2)  0.1365 (   4)  0.1228 (  13)
................................................................................
.............................. CYCLE   59 ......................................
................................................................................
   1    -50.7379858 -0.507380E+02  0.940E-02    8.41       0.0  T
   2    -50.7379885 -0.269739E-05  0.708E-02    8.41       1.0  T
   3    -50.7379900 -0.148135E-05  0.111E-02    8.41       1.8  T
   4    -50.7379905 -0.473184E-06  0.301E-03    8.41       6.5  T
   5    -50.7379905 -0.169622E-07  0.998E-04    8.41      19.6  T
   6    -50.7379905 -0.868113E-09  0.555E-04    8.41      35.3  T
speedup  0.98
cpu  time for SCC    0.00 s
wall time for SCC    0.01 s
speedup  1.01
cpu  time for grad    0.01 s
wall time for grad    0.01 s
 E :    -50.45049264  G :  0.006319    pred/act E change: -0.925D-04 -0.846D-04
Maxdispl :   0.1075   ||displ|| :   0.1783   Lambda : -0.112D-03
Largest |displ|/coords:  0.1075 (  13)  0.0880 (   4)  0.0712 (   2)
................................................................................
.............................. CYCLE   60 ......................................
................................................................................
   1    -50.7389971 -0.507390E+02  0.546E-02    8.38       0.0  T
   2    -50.7389984 -0.134596E-05  0.411E-02    8.39       1.0  T
   3    -50.7389990 -0.603304E-06  0.822E-03    8.39       2.4  T
   4    -50.7389993 -0.226644E-06  0.204E-03    8.39       9.6  T
   5    -50.7389993 -0.775259E-08  0.646E-04    8.39      30.4  T
speedup  1.16
cpu  time for SCC    0.00 s
wall time for SCC    0.00 s
speedup  1.00
cpu  time for grad    0.01 s
wall time for grad    0.01 s
 E :    -50.45055972  G :  0.005429    pred/act E change: -0.702D-04 -0.671D-04
Maxdispl :   0.1396   ||displ|| :   0.2460   Lambda : -0.898D-04
Largest |displ|/coords:  0.1396 (   4)  0.1207 (   2)  0.1027 (  13)
................................................................................
.............................. CYCLE   61 ......................................
................................................................................
   1    -50.7381226 -0.507381E+02  0.932E-02    8.38       0.0  T
   2    -50.7381244 -0.175012E-05  0.704E-02    8.38       1.0  T
   3    -50.7381259 -0.149853E-05  0.690E-03    8.39       2.8  T
   4    -50.7381261 -0.244791E-06  0.295E-03    8.39       6.6  T
   5    -50.7381261 -0.108843E-07  0.895E-04    8.39      21.9  T
speedup  0.91
cpu  time for SCC    0.00 s
wall time for SCC    0.00 s
speedup  0.99
cpu  time for grad    0.01 s
wall time for grad    0.01 s
 E :    -50.45061849  G :  0.005512    pred/act E change: -0.576D-04 -0.588D-04
Maxdispl :   0.0921   ||displ|| :   0.2000   Lambda : -0.828D-04
Largest |displ|/coords:  0.0921 (   4)  0.0911 (   2)  0.0850 (  13)
................................................................................
.............................. CYCLE   62 ......................................
................................................................................
   1    -50.7386234 -0.507386E+02  0.716E-02    8.41       0.0  T
   2    -50.7386245 -0.103935E-05  0.539E-02    8.42       1.0  T
   3    -50.7386254 -0.890621E-06  0.554E-03    8.42       3.5  T
   4    -50.7386255 -0.134648E-06  0.217E-03    8.42       9.0  T
   5    -50.7386255 -0.552392E-08  0.662E-04    8.42      29.6  T
speedup  1.11
cpu  time for SCC    0.01 s
wall time for SCC    0.00 s
speedup  0.98
cpu  time for grad    0.01 s
wall time for grad    0.01 s
 E :    -50.45067692  G :  0.003920    pred/act E change: -0.476D-04 -0.584D-04
Maxdispl :   0.1303   ||displ|| :   0.2581   Lambda : -0.685D-04
Largest |displ|/coords:  0.1303 (   2)  0.1302 (   4)  0.0892 (  13)
................................................................................
.............................. CYCLE   63 ......................................
................................................................................
   1    -50.7383470 -0.507383E+02  0.954E-02    8.45       0.0  T
   2    -50.7383485 -0.147819E-05  0.719E-02    8.45       1.0  T
   3    -50.7383499 -0.145880E-05  0.657E-03    8.44       3.0  T
   4    -50.7383501 -0.166925E-06  0.282E-03    8.44       7.0  T
   5    -50.7383501 -0.843335E-08  0.878E-04    8.44      22.3  T
   6    -50.7383501 -0.993808E-09  0.444E-04    8.44      44.1  T
speedup  0.94
cpu  time for SCC    0.00 s
wall time for SCC    0.01 s
speedup  1.04
cpu  time for grad    0.01 s
wall time for grad    0.01 s
 E :    -50.45071432  G :  0.003586    pred/act E change: -0.431D-04 -0.374D-04
Maxdispl :   0.0586   ||displ|| :   0.0925   Lambda : -0.399D-04
Largest |displ|/coords:  0.0586 (   1)  0.0295 (   7)  0.0239 (   2)
................................................................................
.............................. CYCLE   64 ......................................
................................................................................
   1    -50.7392259 -0.507392E+02  0.436E-02    8.46       0.0  T
   2    -50.7392265 -0.610019E-06  0.326E-02    8.46       1.0  T
   3    -50.7392271 -0.544159E-06  0.499E-03    8.45       3.9  T
   4    -50.7392271 -0.718141E-07  0.178E-03    8.46      11.0  T
   5    -50.7392271 -0.518330E-08  0.533E-04    8.46      36.8  T
   6    -50.7392271 -0.381441E-09  0.290E-04    8.46      67.6  T
speedup  1.13
cpu  time for SCC    0.01 s
wall time for SCC    0.01 s
speedup  1.02
cpu  time for grad    0.01 s
wall time for grad    0.01 s
 E :    -50.45073137  G :  0.002915    pred/act E change: -0.365D-04 -0.171D-04
Maxdispl :   0.0643   ||displ|| :   0.0949   Lambda : -0.189D-04
Largest |displ|/coords:  0.0643 (   2)  0.0354 (   4)  0.0318 (   1)
................................................................................
.............................. CYCLE   65 ......................................
................................................................................
   1    -50.7387958 -0.507388E+02  0.385E-02    8.45       0.0  T
   2    -50.7387961 -0.244072E-06  0.290E-02    8.45       1.0  T
   3    -50.7387963 -0.231512E-06  0.249E-03    8.45       7.9  T
   4    -50.7387963 -0.247906E-07  0.111E-03    8.45      17.7  T
   5    -50.7387963 -0.167331E-08  0.310E-04    8.45      63.3  T
   6    -50.7387963 -0.115563E-09  0.163E-04    8.45     120.2  T
speedup  0.98
cpu  time for SCC    0.00 s
wall time for SCC    0.01 s
speedup  0.97
cpu  time for grad    0.01 s
wall time for grad    0.01 s
 E :    -50.45074446  G :  0.002245    pred/act E change: -0.201D-04 -0.131D-04
Maxdispl :   0.0588   ||displ|| :   0.0931   Lambda : -0.266D-04
Largest |displ|/coords:  0.0588 (   1)  0.0389 (   2)  0.0277 (   7)
................................................................................
[...]
Maxdispl :   0.0260   ||displ|| :   0.0358   Lambda : -0.732D-06
Largest |displ|/coords:  0.0260 (   1)  0.0138 (   4)  0.0116 (   3)
................................................................................
.............................. CYCLE   95 ......................................
................................................................................
   1    -50.7391526 -0.507392E+02  0.149E-02    8.45       0.0  T
   2    -50.7391527 -0.220785E-07  0.112E-02    8.45       1.8  T
   3    -50.7391527 -0.254130E-07  0.855E-04    8.45      22.9  T
   4    -50.7391527 -0.153945E-08  0.360E-04    8.45      54.5  T
speedup  1.14
cpu  time for SCC    0.00 s
wall time for SCC    0.00 s
speedup  1.03
cpu  time for grad    0.01 s
wall time for grad    0.01 s
 E :    -50.45087903  G :  0.000314    pred/act E change: -0.282D-06 -0.526D-06
Maxdispl :   0.0213   ||displ|| :   0.0292   Lambda : -0.584D-06
Largest |displ|/coords:  0.0213 (   1)  0.0111 (   5)  0.0106 (   3)
................................................................................
.............................. CYCLE   96 ......................................
................................................................................
   1    -50.7391317 -0.507391E+02  0.119E-02    8.45       0.0  T
   2    -50.7391318 -0.155227E-07  0.888E-03    8.45       2.2  T
   3    -50.7391318 -0.157831E-07  0.819E-04    8.45      23.9  T
   4    -50.7391318 -0.114439E-08  0.314E-04    8.45      62.4  T
speedup  1.11
cpu  time for SCC    0.00 s
wall time for SCC    0.00 s
speedup  1.02
cpu  time for grad    0.01 s
wall time for grad    0.01 s
 E :    -50.45087947  G :  0.000292    pred/act E change: -0.366D-06 -0.444D-06
Maxdispl :   0.0288   ||displ|| :   0.0351   Lambda : -0.598D-06
Largest |displ|/coords:  0.0288 (   1)  0.0109 (   3)  0.0107 (   5)
................................................................................
.............................. CYCLE   97 ......................................
................................................................................
   1    -50.7391196 -0.507391E+02  0.143E-02    8.44       0.0  T
   2    -50.7391196 -0.230748E-07  0.105E-02    8.44       1.9  T
   3    -50.7391196 -0.232142E-07  0.108E-03    8.44      18.1  T
   4    -50.7391196 -0.149956E-08  0.376E-04    8.44      52.1  T
   5    -50.7391196 -0.176911E-09  0.107E-04    8.44     184.1  T
speedup  0.91
cpu  time for SCC    0.00 s
wall time for SCC    0.00 s
speedup  0.94
cpu  time for grad    0.01 s
wall time for grad    0.01 s
 E :    -50.45087990  G :  0.000264    pred/act E change: -0.292D-06 -0.428D-06
Maxdispl :   0.0314   ||displ|| :   0.0344   Lambda : -0.453D-06
Largest |displ|/coords:  0.0314 (   1)  0.0074 (   3)  0.0073 (   5)
................................................................................
.............................. CYCLE   98 ......................................
................................................................................
   1    -50.7391268 -0.507391E+02  0.135E-02    8.44       0.0  T
   2    -50.7391268 -0.181125E-07  0.994E-03    8.44       2.0  T
   3    -50.7391268 -0.204626E-07  0.994E-04    8.44      19.7  T
   4    -50.7391268 -0.705512E-09  0.257E-04    8.44      76.3  T
speedup  0.83
cpu  time for SCC    0.00 s
wall time for SCC    0.00 s
speedup  0.93
cpu  time for grad    0.01 s
wall time for grad    0.01 s
 E :    -50.45088022  G :  0.000248    pred/act E change: -0.300D-06 -0.324D-06
Maxdispl :   0.0260   ||displ|| :   0.0279   Lambda : -0.386D-06
Largest |displ|/coords:  0.0260 (   1)  0.0063 (   3)  0.0033 (   4)
................................................................................
.............................. CYCLE   99 ......................................
................................................................................
   1    -50.7391755 -0.507392E+02  0.992E-03    8.44       0.0  T
   2    -50.7391755 -0.940783E-08  0.734E-03    8.44       2.7  T
   3    -50.7391755 -0.110847E-07  0.756E-04    8.44      25.9  T
   4    -50.7391755 -0.418396E-09  0.166E-04    8.44     118.4  T
speedup  1.11
cpu  time for SCC    0.00 s
wall time for SCC    0.00 s
speedup  1.02
cpu  time for grad    0.01 s
wall time for grad    0.01 s
 E :    -50.45088050  G :  0.000208    pred/act E change: -0.227D-06 -0.282D-06
Maxdispl :   0.0490   ||displ|| :   0.0508   Lambda : -0.383D-06
Largest |displ|/coords:  0.0490 (   1)  0.0073 (   6)  0.0062 (   4)
................................................................................
.............................. CYCLE  100 ......................................
................................................................................
   1    -50.7391442 -0.507391E+02  0.181E-02    8.44       0.0  T
   2    -50.7391443 -0.275779E-07  0.135E-02    8.44       1.5  T
   3    -50.7391443 -0.353026E-07  0.117E-03    8.44      16.8  T
   4    -50.7391443 -0.943963E-09  0.262E-04    8.44      74.8  T
   5    -50.7391443 -0.924558E-10  0.140E-04    8.44     140.3  T
speedup  1.16
cpu  time for SCC    0.01 s
wall time for SCC    0.00 s
speedup  1.03
cpu  time for grad    0.01 s
wall time for grad    0.01 s
 E :    -50.45088074  G :  0.000192    pred/act E change: -0.193D-06 -0.238D-06
Maxdispl :   0.0158   ||displ|| :   0.0193   Lambda : -0.311D-06
Largest |displ|/coords:  0.0158 (   1)  0.0084 (   3)  0.0048 (   2)
................................................................................
.............................. CYCLE  101 ......................................
................................................................................
   1    -50.7392548 -0.507393E+02  0.550E-03    8.44       0.0  T
   2    -50.7392548 -0.564618E-08  0.413E-03    8.44       4.7  T
   3    -50.7392548 -0.455059E-08  0.441E-04    8.44      44.5  T
   4    -50.7392548 -0.787125E-09  0.125E-04    8.44     156.3  T
speedup  1.11
cpu  time for SCC    0.00 s
wall time for SCC    0.00 s
speedup  1.02
cpu  time for grad    0.01 s
wall time for grad    0.01 s
 E :    -50.45088092  G :  0.000265    pred/act E change: -0.192D-06 -0.176D-06
Maxdispl :   0.0261   ||displ|| :   0.0276   Lambda : -0.214D-06
Largest |displ|/coords:  0.0261 (   1)  0.0054 (   3)  0.0038 (   4)
................................................................................
.............................. CYCLE  102 ......................................
................................................................................
   1    -50.7392136 -0.507392E+02  0.903E-03    8.45       0.0  T
   2    -50.7392136 -0.745225E-08  0.680E-03    8.45       2.9  T
   3    -50.7392136 -0.985561E-08  0.437E-04    8.44      44.9  T
   4    -50.7392136 -0.335326E-09  0.208E-04    8.44      94.3  T
speedup  0.86
cpu  time for SCC    0.00 s
wall time for SCC    0.00 s
speedup  1.02
cpu  time for grad    0.01 s
wall time for grad    0.01 s
 E :    -50.45088107  G :  0.000194    pred/act E change: -0.155D-06 -0.154D-06
Maxdispl :   0.0141   ||displ|| :   0.0167   Lambda : -0.240D-06
Largest |displ|/coords:  0.0141 (   1)  0.0066 (   3)  0.0029 (   2)
................................................................................
.............................. CYCLE  103 ......................................
................................................................................
   1    -50.7391942 -0.507392E+02  0.502E-03    8.45       0.0  T
   2    -50.7391942 -0.391317E-08  0.376E-03    8.45       5.2  T
   3    -50.7391942 -0.380688E-08  0.469E-04    8.45      41.8  T
   4    -50.7391942 -0.321606E-09  0.164E-04    8.45     119.4  T
speedup  1.11
cpu  time for SCC    0.00 s
wall time for SCC    0.00 s
speedup  1.02
cpu  time for grad    0.01 s
wall time for grad    0.01 s
 E :    -50.45088124  G :  0.000154    pred/act E change: -0.107D-06 -0.166D-06
Maxdispl :   0.0036   ||displ|| :   0.0083   Lambda : -0.126D-06
Largest |displ|/coords:  0.0036 (   1)  0.0035 (   4)  0.0031 (   3)
................................................................................
.............................. CYCLE  104 ......................................
................................................................................
   1    -50.7391737 -0.507392E+02  0.520E-03    8.45       0.0  T
   2    -50.7391737 -0.417388E-08  0.384E-03    8.45       5.1  T
   3    -50.7391737 -0.405742E-08  0.551E-04    8.45      35.6  T
   4    -50.7391737 -0.281908E-09  0.137E-04    8.45     143.0  T
speedup  0.86
cpu  time for SCC    0.00 s
wall time for SCC    0.00 s
speedup  0.93
cpu  time for grad    0.01 s
wall time for grad    0.01 s
 E :    -50.45088133  G :  0.000128    pred/act E change: -0.120D-06 -0.919D-07
Maxdispl :   0.0061   ||displ|| :   0.0103   Lambda : -0.798D-07
Largest |displ|/coords:  0.0061 (   1)  0.0051 (   4)  0.0028 (   3)

   *** GEOMETRY OPTIMIZATION CONVERGED AFTER 104 ITERATIONS ***

------------------------------------------------------------------------
 total energy gain (kcal):     -0.0116
------------------------------------------------------------------------
================
 final structure:
================
$coord
       -0.29030443482822       -1.13399644705656        1.51293452135728      S 
        1.54410095931768       -3.03187609244887        0.93640830762442      O 
       -1.81702159494064       -0.35961902004330       -0.61345045582650      O 
        1.00203192217542        1.21642606863225        2.65734966665417      O 
       -1.97663736676209       -2.04133672780362        3.65934909615688      O 
       -3.24067578045746       -0.64798480866713        4.10271549752122      H 
        2.36481415441664        1.83584747700416        1.46828215756888      H 
       -5.30075365000130        1.27055615928303        4.61244744497128      O 
       -6.67003273431377        0.43739323315225        5.46188214836833      H 
       -5.92000092146430        1.72987696390096        2.87441734355872      H 
        6.69962981283981       -2.12745142188695        0.04633896054205      O 
        5.15911741444059       -2.71524700873159        0.83464035980140      H 
        6.52133088815777       -0.31900543726009       -0.07515123045440      H 
        4.25739177352192        2.65639192749869       -0.59369172853992      O 
        3.37839042331385        1.97590151395607       -2.16339514974417      H 
        4.35050400311696        4.45572436154329       -0.79009053457897      H 
        3.77939826821676       -3.85855021357859       -3.89179782143052      O 
        5.33520529820093       -3.45141162664295       -2.99534939949817      H 
        2.64466500082479       -4.39314331923134       -2.56860788871515      H 
        1.69537280717594        0.70264402134457       -4.18404384702913      O 
        2.50067560270397       -0.95891400587770       -4.47039937308736      H 
        0.17476426562818        0.33266691452065       -3.22287472272967      H 
       -6.58881939421030        2.09951292689710       -0.13257419238628      N 
       -6.57643725532788        3.89424821116582       -0.79333556414780      H 
       -8.06088191339438        1.18667384734021       -0.94458288962399      H 
       -4.96582752947444        1.24467250293979       -0.72742070641752      H 
$end
 
 Bond Distances (Angstroems)
 ---------------------------
S1-O2=1.4297         S1-O3=1.4446         S1-O4=1.5432         S1-O5=1.5222         O2-S1=1.4297         O3-S1=1.4446         
O4-S1=1.5432         O4-H7=1.0116         O5-S1=1.5222         O5-H6=1.0228         H6-O5=1.0228         H7-O4=1.0116         
O8-H9=0.9599         O8-H10=1.0062        H9-O8=0.9599         H10-O8=1.0062        O11-H12=0.9671       O11-H13=0.9638       
H12-O11=0.9671       H13-O11=0.9638       O14-H15=1.0178       O14-H16=0.9591       H15-O14=1.0178       H16-O14=0.9591       
O17-H18=0.9743       O17-H19=0.9648       H18-O17=0.9743       H19-O17=0.9648       O20-H21=0.9888       O20-H22=0.9719       
H21-O20=0.9888       H22-O20=0.9719       N23-H24=1.0121       N23-H25=1.0123       N23-H26=1.0205       H24-N23=1.0121       
H25-N23=1.0123       H26-N23=1.0205       
 N  H  Rav=1.0150 sigma=0.0039  Rmin=1.0121  Rmax=1.0205     3
 O  H  Rav=0.9840 sigma=0.0232  Rmin=0.9591  Rmax=1.0228    12
 S  O  Rav=1.4849 sigma=0.0486  Rmin=1.4297  Rmax=1.5432     4
 
 selected bond angles (degree)
 --------------------
O3-S1-O2=114.38                O4-S1-O2=110.43                O4-S1-O3=108.96                O5-S1-O2=109.61                
O5-S1-O3=110.05                O5-S1-O4=102.78                H7-O4-S1=109.45                H6-O5-S1=109.10                
H10-O8-H9=107.05               
 
 selected dihedral angles (degree)
 ---------------------------------
H7-O4-S1-O2= 55.12            H7-O4-S1-O3=288.70            H7-O4-S1-O5=171.98            H6-O5-S1-O2=177.95            
H6-O5-S1-O3=304.57            H6-O5-S1-O4= 60.51            
 
 CMA Distance (Angstroems)
 ---------------------------
R(CMA):  1.4959

========================================================================
 FINAL SINGLEPOINT CALCULATION ON OPTIMIZED GEOMETRY
========================================================================

 Ncao       : 65
 Nao        : 64
 Nshell     : 38
 Nel        : 80
 T(el)      :   300.0
 intcut     :    25.0
 scfconv/Eh :  0.100E-05
   qconv/e  :  0.100E-03
 intneglect :  0.100E-07
 broydamp   :      0.250
 iter      E             dE          RMSdq      gap      omega  full diag
   1    -50.7391737 -0.507392E+02  0.620E-05    8.45       0.0  T
   2    -50.7391737 -0.191847E-11  0.401E-05    8.45     488.9  T
   3    -50.7391737 -0.113687E-11  0.670E-06    8.45    2927.1  T
speedup  1.11
cpu  time for SCC    0.00 s
wall time for SCC    0.00 s

   *** convergence criteria satisfied after 3 iterations ***

          eigenvalues
 #    :          28         29         30         31         32         33         34         35
 occ. :        2.000      2.000      2.000      2.000      2.000      2.000      2.000      2.000
 eps  :       -13.679    -13.459    -13.278    -13.007    -12.920    -12.759    -12.692    -12.589
 #    :          36         37         38         39         40         41         42         43
 occ. :        2.000      2.000      2.000      2.000      2.000      0.000      0.000      0.000
 eps  :       -12.440    -11.941    -11.628    -11.533    -11.497     -3.050     -1.067     -0.498
 #    :          44         45         46         47         48         49         50         51
 occ. :        0.000      0.000      0.000      0.000      0.000      0.000      0.000      0.000
 eps  :         0.194      0.538      0.796      2.302      2.621      3.553      4.954      5.174


   #   Z            q   n(s)   n(p)   n(d)      C6AA      α(0)
   1  16 S      1.725  1.574  1.764  0.938    88.208    15.807
   2   8 O     -0.692  1.750  4.942  0.000    28.492     7.157
   3   8 O     -0.730  1.764  4.966  0.000    29.525     7.285
   4   8 O     -0.624  1.759  4.864  0.000    25.733     6.848
   5   8 O     -0.604  1.751  4.854  0.000    25.262     6.785
   6   1 H      0.395  0.605  0.000  0.000     0.489     1.096
   7   1 H      0.391  0.609  0.000  0.000     0.498     1.106
   8   8 O     -0.601  1.754  4.847  0.000    25.204     6.776
   9   1 H      0.298  0.702  0.000  0.000     0.728     1.340
  10   1 H      0.331  0.669  0.000  0.000     0.633     1.249
  11   8 O     -0.608  1.746  4.861  0.000    25.371     6.798
  12   1 H      0.306  0.694  0.000  0.000     0.703     1.317
  13   1 H      0.302  0.698  0.000  0.000     0.715     1.328
  14   8 O     -0.635  1.763  4.872  0.000    26.038     6.887
  15   1 H      0.350  0.650  0.000  0.000     0.589     1.205
  16   1 H      0.297  0.703  0.000  0.000     0.729     1.341
  17   8 O     -0.605  1.750  4.855  0.000    25.315     6.791
  18   1 H      0.322  0.678  0.000  0.000     0.659     1.275
  19   1 H      0.302  0.698  0.000  0.000     0.716     1.329
  20   8 O     -0.630  1.758  4.872  0.000    25.909     6.870
  21   1 H      0.335  0.665  0.000  0.000     0.624     1.241
  22   1 H      0.308  0.692  0.000  0.000     0.697     1.311
  23   7 N     -0.454  1.368  4.086  0.000    31.933     8.393
  24   1 H      0.161  0.839  0.000  0.000     1.330     1.807
  25   1 H      0.159  0.841  0.000  0.000     1.340     1.814
  26   1 H      0.200  0.800  0.000  0.000     1.108     1.649

 Mol. C6AA /au·bohr⁶  :       5455.283823
 Mol. C8AA /au·bohr⁸  :     117707.007917
 Mol. α(0) /au        :        106.806063

 
 Wiberg/Mayer (AO) data. WBOs > 0.1 written file <wbo>
 largest (>0.05) Wiberg bond orders for each atom
           total WBO             WBO to atom ...
     1  S   4.825    O    2 1.415    O    3 1.331    O    5 1.047    O    4 0.988
     2  O   1.763    S    1 1.415    O    3 0.119    O    4 0.093    O    5 0.073
     3  O   1.730    S    1 1.331    O    2 0.119    O    4 0.090    O    5 0.089
     4  O   1.963    S    1 0.988    H    7 0.687    O    2 0.093    O    3 0.090    O    5 0.054
     5  O   1.993    S    1 1.047    H    6 0.666    O    3 0.089    O    2 0.073    O    4 0.054
     6  H   0.843    O    5 0.666    O    8 0.161
     7  H   0.847    O    4 0.687    O   14 0.140
     8  O   1.953    H    9 0.909    H   10 0.772    H    6 0.161    N   23 0.051
     9  H   0.911    O    8 0.909
    10  H   0.890    O    8 0.772    N   23 0.116
    11  O   1.853    H   13 0.890    H   12 0.881
    12  H   0.906    O   11 0.881
    13  H   0.909    O   11 0.890
    14  O   1.920    H   16 0.905    H   15 0.742    H    7 0.140    O   20 0.055
    15  H   0.878    O   14 0.742    O   20 0.133
    16  H   0.912    O   14 0.905
    17  O   1.889    H   19 0.893    H   18 0.858    H   21 0.073
    18  H   0.896    O   17 0.858
    19  H   0.909    O   17 0.893
    20  O   1.923    H   22 0.862    H   21 0.813    H   15 0.133    O   14 0.055
    21  H   0.888    O   20 0.813    O   17 0.073
    22  H   0.905    O   20 0.862
    23  N   3.059    H   24 0.971    H   25 0.971    H   26 0.929    H   10 0.116    O    8 0.051
    24  H   0.974    N   23 0.971
    25  H   0.975    N   23 0.971
    26  H   0.960    N   23 0.929
 MOs/occ written to file <molden.input>
 
molecular dipole:
                 x           y           z       tot (Debye)
 q only:       -1.829       1.324       0.529
   full:       -2.400       1.523       0.583       7.377
molecular quadrupole (traceless):
                xx          xy          yy          xz          yz          zz
 q only:        8.902       6.576      -1.295      -2.868      -3.173      -7.607
  q+dip:        9.482       9.317       0.492       0.971      -6.038      -9.974
   full:        9.786       9.799       0.605       0.459      -6.200     -10.390

SCC energy    :     -50.7391737
rep           :       0.2881370
ES            :       0.2320218
AES           :      -0.0532702
AXC           :      -0.0073480
disp          :      -0.0185410
XB            :       0.0000000
fix           :       0.0000000
total E       :     -50.4508813
atomizationE  :       4.9811855     3125.74
(atE without considering molecular charge,
 total energy contains solvation terms)
H-L gap (eV)  :          8.4470
optimized geometry written to: xtbopt.xyz


------------------------------------------------------------------------
 * finished run on 2019/09/16 at 11:57:15.034     
------------------------------------------------------------------------
 total:
 * wall-time:     0 d,  0 h,  0 min,  2.264 sec
 *  cpu-time:     0 d,  0 h,  0 min,  2.232 sec
 * ratio c/w:     0.986 speedup
 SCF:
 * wall-time:     0 d,  0 h,  0 min,  0.143 sec
 *  cpu-time:     0 d,  0 h,  0 min,  0.139 sec
 * ratio c/w:     0.974 speedup
 ANC optimizer:
 * wall-time:     0 d,  0 h,  0 min,  2.091 sec
 *  cpu-time:     0 d,  0 h,  0 min,  2.071 sec
 * ratio c/w:     0.990 speedup

