      -----------------------------------------------------------      
     |                   =====================                   |     
     |                           x T B                           |     
     |                   =====================                   |     
     |                         S. Grimme                         |     
     |          Mulliken Center for Theoretical Chemistry        |     
     |                    University of Bonn                     |     
     |                 Version 6.0.1 (SAW181210)                 |     
      -----------------------------------------------------------      

   This program is distributed in the hope that it will be useful,
   but WITHOUT ANY WARRANTY; without even the implied warranty of
   MERCHANTABILITY or FITNESS FOR A PARTICULAR PURPOSE.
   
   FOR NON-COMMERCIAL, ACADEMIA USE ONLY.
   
   Cite this work as:
   S. Grimme, C. Bannwarth, P. Shushkov, J. Comput. Theory Chem., 2017,
   13, 1989-2009.
   C. Bannwarth, S. Ehlert and S. Grimme., ChemRxiv, 2018, preprint.
   http://doi.org/10.26434/chemrxiv.7246238.v1
   
   for sTDA-xTB:
   S. Grimme and C. Bannwarth, J. Chem. Phys., 2016, 145, 054103.
   
   in the mass-spec context:
   V. Asgeirsson, C. Bauer and S. Grimme, Chem. Sci., 2017, 8, 4879.
   
   if GBSA is used:
   P. Shushkov, F. März and S. Grimme, unpublished.
   
   for ANC optimizer:
   S. Grimme, unpublished.
   Rational Function algorithm used in ANCopt:
   F. Eckert, P. Pulay, H.-J. Werner, J. Comput. Chem., 1997, 18, 1473.
   
   with help from (in alphabetical order)
   C. Bannwarth, F. Bohle, G. Brandenburg, E. Caldeweyher, M. Checinski,
   S. Dohm, S. Ehlert, S. Ehrlich, F. März, H. Neugebauer, J. Pisarek,
   P. Pracht, P. Shushkov, and S. Spicher.
   
 * started run on 2019/09/16 at 12:35:37.323     
========================================================================
 # omp threads = 1
========================================================================
number of atoms            : 26
number of electrons        : 80
charge                     : 0
spin                       : .0
first test random number   : .5710

########################################################################
# WARNING! Please study the warnings concerning your input carefully
#  - XTBPATH is not set, using XTBHOME instead
#  - the use of '-opt' is discouraged, please use '--opt' next time
#  - the use of '-chrg' is discouraged, please use '--chrg' next time
#  - the use of '-uhf' is discouraged, please use '--uhf' next time
########################################################################

           ------------------------------------------------- 
          |                 G F N 2 - x T B                 |
          | Geometry, Frequencies, Noncovalent interactions |
          |            JCTC 2018 parametrisation            |
           ------------------------------------------------- 
      method parameters     
 k(s)        :  1.8500
 k(p)        :  2.2300
 k(d)        :  2.2300
 k(f)        :  2.0000
 kEN (H0ij)  : -2.0000
 D4 a1       :  0.5200
 D4 a2       :  5.0000
 D4 s6       :  1.0000
 D4 s8       :  2.7000
 D4 s9       :  5.0000
 alphaj      :  2.0000


            Z     q(EN)     CN     RAES       Cart. coordinates
     1  S   6.0    0.60    4.52    4.59    -1.77833     2.37488     1.62413
     2  O   6.0   -0.28    1.12    1.80    -1.56797     3.48433     4.20347
     3  O   6.0   -0.33    1.25    1.80    -2.60100    -0.31068     1.82180
     4  O   6.0   -0.27    2.11    1.84     0.69153     2.49582     0.36014
     5  O   6.0   -0.25    2.10    1.84    -3.64426     3.80848     0.14913
     6  H   1.0    0.16    1.29    1.49    -2.84424     4.51217    -1.31916
     7  H   1.0    0.15    1.28    1.49     1.91107     1.55955     1.32305
     8  O   6.0   -0.29    2.03    1.83    -0.57734    -4.63066     0.01263
     9  H   1.0    0.17    1.03    1.43    -1.66950    -3.22033     0.37702
    10  H   1.0    0.15    0.99    1.43    -0.21955    -5.39222     1.62714
    11  O   6.0   -0.29    2.04    1.83    -1.37080     5.38245    -4.03429
    12  H   1.0    0.17    1.05    1.44    -0.93279     3.87654    -4.95894
    13  H   1.0    0.15    0.97    1.43    -0.92470     6.76672    -5.12947
    14  O   6.0   -0.29    2.03    1.83    -0.29346     1.07915    -6.31235
    15  H   1.0    0.15    0.97    1.43    -0.92524     0.25001    -7.80499
    16  H   1.0    0.17    1.04    1.43     0.59951    -0.20972    -5.38712
    17  O   6.0   -0.30    1.98    1.82    -0.81928    -3.68595     5.22986
    18  H   1.0    0.15    0.97    1.43    -1.67584    -3.62905     6.83538
    19  H   1.0    0.17    1.04    1.43    -1.68251    -2.47429     4.18043
    20  O   6.0   -0.30    2.02    1.83     1.87856    -2.77042    -3.93883
    21  H   1.0    0.14    0.97    1.43     3.37242    -3.79833    -4.10134
    22  H   1.0    0.17    1.05    1.44     0.91530    -3.53027    -2.59369
    23  N   5.0   -0.22    3.02    1.93     3.44519    -0.25105     3.95454
    24  H   1.0    0.12    1.01    1.43     2.28303    -1.74287     4.32182
    25  H   1.0    0.11    0.99    1.43     3.19092     0.98160     5.41296
    26  H   1.0    0.10    0.99    1.43     5.23928    -0.92586     4.14669

  Z AO/shell   Hii/eV     exponent
  1     Wed Apr 25 08:07:45 CEST 2018   EN: 2.200 GM2: 0.406  GM3: 0.0800  RAES: 1.40
     1s    -10.707211    1.230000
  7     Wed Apr 25 08:07:45 CEST 2018   EN: 3.040 GM2: 0.461  GM3:-0.0640  RAES: 1.90
     2s    -16.686243    2.339881
     2p    -12.523956    2.014332
  8     Wed Apr 25 08:07:45 CEST 2018   EN: 3.440 GM2: 0.452  GM3:-0.0517  RAES: 1.80
     2s    -20.229985    2.439742
     2p    -15.503117    2.137023
 16     Tue Apr 24 11:44:34 CEST 2018   EN: 2.580 GM2: 0.340  GM3:-0.0502  RAES: 3.10
     3s    -20.029654    1.981333
     3p    -11.377694    2.025643
     3d     -0.420282    1.702555
 no old-style atom pair restraining (fixing) potential

molecular fragmentation (1/2 indicates fragments):
11111112222222222222222222
# atoms in fragment 1/2:     7    19
 fragment masses (1/2) :       98.07      107.11
CMA distance (Bohr)    :   4.571
constraining FC (au)   :  0.0500
           ------------------------------------------------- 
          |        Self-Consistent Charge Iterations        |
           ------------------------------------------------- 

 Ncao       : 65
 Nao        : 64
 Nshell     : 38
 Nel        : 80
 T(el)      :   300.0
 intcut     :    25.0
 scfconv/Eh :  0.100E-05
   qconv/e  :  0.100E-03
 intneglect :  0.100E-07
 broydamp   :      0.250
 iter      E             dE          RMSdq      gap      omega  full diag
   1    -50.6228573 -0.506229E+02  0.703E+00   10.24       0.0  T
   2    -50.6791647 -0.563074E-01  0.505E+00    9.60       1.0  T
   3    -50.7182748 -0.391101E-01  0.142E+00    8.52       1.0  T
   4    -50.7244321 -0.615728E-02  0.587E-01    8.79       1.0  T
   5    -50.7250188 -0.586711E-03  0.372E-01    8.70       1.0  T
   6    -50.7256853 -0.666535E-03  0.167E-01    8.70       1.0  T
   7    -50.7258577 -0.172423E-03  0.670E-02    8.67       1.0  T
   8    -50.7258821 -0.243577E-04  0.381E-02    8.67       1.0  T
   9    -50.7258905 -0.845683E-05  0.159E-02    8.68       1.2  T
  10    -50.7258923 -0.176213E-05  0.288E-03    8.69       6.8  T
  11    -50.7258923 -0.235273E-07  0.141E-03    8.68      13.9  T
  12    -50.7258923 -0.679923E-08  0.670E-04    8.68      29.3  T
  13    -50.7258923 -0.274287E-08  0.144E-04    8.68     136.3  T
speedup  1.02
cpu  time for SCC    0.02 s
wall time for SCC    0.02 s

   *** convergence criteria satisfied after 13 iterations ***

          eigenvalues
 #    :          28         29         30         31         32         33         34         35
 occ. :        2.000      2.000      2.000      2.000      2.000      2.000      2.000      2.000
 eps  :       -13.374    -12.961    -12.690    -12.295    -12.202    -12.187    -12.008    -11.906
 #    :          36         37         38         39         40         41         42         43
 occ. :        2.000      2.000      2.000      2.000      2.000      0.000      0.000      0.000
 eps  :       -11.834    -11.693    -11.602    -11.411    -11.051     -2.367     -1.125     -0.138
 #    :          44         45         46         47         48         49         50         51
 occ. :        0.000      0.000      0.000      0.000      0.000      0.000      0.000      0.000
 eps  :         0.630      0.921      1.274      1.814      2.882      3.806      4.645      5.024


   #   Z            q   n(s)   n(p)   n(d)      C6AA      α(0)
   1  16 S      1.684  1.575  1.792  0.949    89.129    15.890
   2   8 O     -0.705  1.776  4.930  0.000    28.857     7.202
   3   8 O     -0.735  1.768  4.968  0.000    29.692     7.306
   4   8 O     -0.554  1.709  4.845  0.000    24.091     6.626
   5   8 O     -0.543  1.714  4.829  0.000    23.841     6.592
   6   1 H      0.415  0.585  0.000  0.000     0.450     1.050
   7   1 H      0.403  0.597  0.000  0.000     0.472     1.075
   8   8 O     -0.619  1.737  4.882  0.000    25.641     6.834
   9   1 H      0.319  0.681  0.000  0.000     0.666     1.282
  10   1 H      0.307  0.693  0.000  0.000     0.699     1.313
  11   8 O     -0.630  1.742  4.888  0.000    25.918     6.871
  12   1 H      0.342  0.658  0.000  0.000     0.608     1.224
  13   1 H      0.294  0.706  0.000  0.000     0.738     1.349
  14   8 O     -0.619  1.740  4.879  0.000    25.637     6.834
  15   1 H      0.284  0.716  0.000  0.000     0.770     1.378
  16   1 H      0.338  0.662  0.000  0.000     0.616     1.233
  17   8 O     -0.614  1.739  4.875  0.000    25.518     6.818
  18   1 H      0.282  0.718  0.000  0.000     0.779     1.386
  19   1 H      0.324  0.676  0.000  0.000     0.652     1.268
  20   8 O     -0.620  1.740  4.880  0.000    25.679     6.839
  21   1 H      0.281  0.719  0.000  0.000     0.783     1.390
  22   1 H      0.335  0.665  0.000  0.000     0.624     1.240
  23   7 N     -0.476  1.400  4.076  0.000    32.603     8.480
  24   1 H      0.193  0.807  0.000  0.000     1.144     1.675
  25   1 H      0.158  0.842  0.000  0.000     1.347     1.818
  26   1 H      0.156  0.844  0.000  0.000     1.362     1.828

 Mol. C6AA /au·bohr⁶  :       5451.058666
 Mol. C8AA /au·bohr⁸  :     117664.090769
 Mol. α(0) /au        :        106.802489

 
 Wiberg/Mayer (AO) data. WBOs > 0.1 written file <wbo>
 largest (>0.05) Wiberg bond orders for each atom
           total WBO             WBO to atom ...
     1  S   4.841    O    2 1.383    O    3 1.296    O    5 1.079    O    4 1.043
     2  O   1.702    S    1 1.383    O    3 0.131    O    4 0.092    O    5 0.083
     3  O   1.699    S    1 1.296    O    2 0.131    O    4 0.087    O    5 0.075
     4  O   2.048    S    1 1.043    H    7 0.749    O    2 0.092    O    3 0.087
     5  O   2.063    S    1 1.079    H    6 0.741    O    2 0.083    O    3 0.075
     6  H   0.827    O    5 0.741    O   11 0.062
     7  H   0.838    O    4 0.749    N   23 0.067
     8  O   1.850    H   10 0.885    H    9 0.859    H   22 0.053
     9  H   0.898    O    8 0.859
    10  H   0.905    O    8 0.885
    11  O   1.841    H   13 0.903    H   12 0.827    H    6 0.062
    12  H   0.883    O   11 0.827    O   14 0.053
    13  H   0.913    O   11 0.903
    14  O   1.843    H   15 0.911    H   16 0.833    H   12 0.053
    15  H   0.919    O   14 0.911
    16  H   0.886    O   14 0.833
    17  O   1.837    H   18 0.915    H   19 0.847
    18  H   0.921    O   17 0.915
    19  H   0.895    O   17 0.847
    20  O   1.836    H   21 0.912    H   22 0.830
    21  H   0.921    O   20 0.912
    22  H   0.888    O   20 0.830    O    8 0.053
    23  N   2.993    H   25 0.973    H   26 0.972    H   24 0.938    H    7 0.067
    24  H   0.963    N   23 0.938
    25  H   0.975    N   23 0.973
    26  H   0.976    N   23 0.972
 MOs/occ written to file <molden.input>
 
molecular dipole:
                 x           y           z       tot (Debye)
 q only:        1.054      -0.040      -1.107
   full:        1.223      -0.209      -1.062       4.152
molecular quadrupole (traceless):
                xx          xy          yy          xz          yz          zz
 q only:       -0.968      -0.253      -2.297       5.366      -9.833       3.265
  q+dip:       -2.733      -0.175      -4.622       6.996     -12.278       7.355
   full:       -2.670      -0.859      -4.721       6.766     -12.760       7.391

SCC energy    :     -50.7258923
rep           :       0.3157903
ES            :       0.2456485
AES           :      -0.0483820
AXC           :      -0.0068775
disp          :      -0.0170754
XB            :       0.0000000
fix           :       0.0000000
total E       :     -50.4098014
atomizationE  :       4.9401056     3099.96
(atE without considering molecular charge,
 total energy contains solvation terms)
H-L gap (eV)  :          8.6843
           ------------------------------------------------- 
          |                 ===============                 |
          |                   A N C O P T                   |
          |                 ===============                 |
          |          Approximate Normal Coordinate          |
          |           Rational Function Optimizer           |
           ------------------------------------------------- 
dumping coords to <xtbopt.coord> and <xtbopt.log>
 optlevel               2
 Maxcycle             520
 Maxmicro              25
 Econv         1.000000000000000E-007
 Gconv         2.000000000000000E-004
 Maxdispl       1.00000000000000     
 Hlow          5.000000000000000E-003
 S6             20.0000000000000     
 Nvar               72

generating ANC from model Hessian ...
 Shifting diagonal of input Hessian by   5.067702493340380E-003
 Lowest  eigenvalues of input Hessian
    0.005000    0.005036   -0.000000    0.000000    0.000000    0.000000
    0.000000    0.000000    0.005253    0.005375    0.005486    0.005634
    0.005670    0.005875    0.006281    0.006381    0.006559    0.006865
 Highest eigenvalues
    1.428200    1.455855    1.552426    3.212630    3.411447    3.462159
 
cpu  time for ANC gen    0.01 s
wall time for ANC gen    0.01 s
................................................................................
.............................. CYCLE    1 ......................................
................................................................................
   1    -50.7258923 -0.507259E+02  0.696E-05    8.68       0.0  T
   2    -50.7258923 -0.135572E-10  0.525E-05    8.68     373.7  T
   3    -50.7258923 -0.871125E-11  0.333E-05    8.68     589.7  T
speedup  1.03
cpu  time for SCC    0.00 s
wall time for SCC    0.00 s
speedup  0.98
cpu  time for grad    0.01 s
wall time for grad    0.01 s
 E :    -50.40980140  G :  0.179813    pred/act E change:  0.000D+00  0.331D-07
Maxdispl :   0.1173   ||displ|| :   0.3193   Lambda : -0.156D-01
Largest |displ|/coords:  0.1173 (  22)  0.1115 (  25)  0.0994 (  34)
................................................................................
.............................. CYCLE    2 ......................................
................................................................................
   1    -50.7272928 -0.507273E+02  0.327E-01    8.74       0.0  T
   2    -50.7275335 -0.240611E-03  0.253E-01    8.75       1.0  T
   3    -50.7276008 -0.672955E-04  0.141E-01    8.78       1.0  T
   4    -50.7276116 -0.108265E-04  0.225E-02    8.81       1.0  T
   5    -50.7276126 -0.978779E-06  0.632E-03    8.81       3.1  T
   6    -50.7276126 -0.595466E-07  0.233E-03    8.81       8.4  T
   7    -50.7276126 -0.901522E-08  0.123E-03    8.81      15.9  T
speedup  0.95
cpu  time for SCC    0.01 s
wall time for SCC    0.01 s
speedup  0.99
cpu  time for grad    0.01 s
wall time for grad    0.01 s
 E :    -50.42222940  G :  0.117783    pred/act E change:  0.000D+00 -0.124D-01
Maxdispl :   0.1414   ||displ|| :   0.3201   Lambda : -0.893D-02
Largest |displ|/coords:  0.1414 (  22)  0.1358 (  30)  0.1231 (  24)
................................................................................
.............................. CYCLE    3 ......................................
................................................................................
   1    -50.7325713 -0.507326E+02  0.213E-01    8.79       0.0  T
   2    -50.7327948 -0.223525E-03  0.169E-01    8.83       1.0  T
   3    -50.7328483 -0.534680E-04  0.121E-01    8.87       1.0  T
   4    -50.7328535 -0.519456E-05  0.211E-02    8.91       1.0  T
   5    -50.7328540 -0.493046E-06  0.449E-03    8.91       4.4  T
   6    -50.7328540 -0.281733E-07  0.177E-03    8.91      11.1  T
speedup  1.09
cpu  time for SCC    0.01 s
wall time for SCC    0.01 s
speedup  0.99
cpu  time for grad    0.01 s
wall time for grad    0.01 s
 E :    -50.42919818  G :  0.063718    pred/act E change: -0.859D-02 -0.697D-02
Maxdispl :   0.1215   ||displ|| :   0.3043   Lambda : -0.397D-02
Largest |displ|/coords:  0.1215 (  13)  0.1069 (  22)  0.0963 (  30)
................................................................................
.............................. CYCLE    4 ......................................
................................................................................
   1    -50.7328547 -0.507329E+02  0.210E-01    8.84       0.0  T
   2    -50.7329884 -0.133696E-03  0.164E-01    8.87       1.0  T
   3    -50.7330241 -0.356983E-04  0.935E-02    8.92       1.0  T
   4    -50.7330281 -0.400834E-05  0.186E-02    8.95       1.1  T
   5    -50.7330285 -0.364810E-06  0.346E-03    8.95       5.7  T
   6    -50.7330285 -0.155156E-07  0.165E-03    8.95      11.9  T
speedup  0.94
cpu  time for SCC    0.00 s
wall time for SCC    0.01 s
speedup  1.01
cpu  time for grad    0.01 s
wall time for grad    0.01 s
 E :    -50.43204703  G :  0.032948    pred/act E change: -0.492D-02 -0.285D-02
Maxdispl :   0.2119   ||displ|| :   0.3721   Lambda : -0.281D-02
Largest |displ|/coords:  0.2119 (   9)  0.1289 (   2)  0.1243 (  10)
................................................................................
.............................. CYCLE    5 ......................................
................................................................................
   1    -50.7354925 -0.507355E+02  0.332E-01    8.73       0.0  T
   2    -50.7356312 -0.138690E-03  0.255E-01    8.74       1.0  T
   3    -50.7356715 -0.403066E-04  0.838E-02    8.77       1.0  T
   4    -50.7356880 -0.164929E-04  0.247E-02    8.78       1.0  T
   5    -50.7356887 -0.765058E-06  0.415E-03    8.78       4.7  T
   6    -50.7356887 -0.180909E-07  0.223E-03    8.78       8.8  T
speedup  1.09
cpu  time for SCC    0.01 s
wall time for SCC    0.01 s
speedup  0.98
cpu  time for grad    0.01 s
wall time for grad    0.01 s
 E :    -50.43275594  G :  0.031018    pred/act E change: -0.217D-02 -0.709D-03
Maxdispl :   0.2535   ||displ|| :   0.3831   Lambda : -0.249D-02
Largest |displ|/coords:  0.2535 (  13)  0.1150 (  21)  0.1095 (  15)
................................................................................
.............................. CYCLE    6 ......................................
................................................................................
   1    -50.7257212 -0.507257E+02  0.508E-01    8.58       0.0  T
   2    -50.7258101 -0.889495E-04  0.384E-01    8.58       1.0  T
   3    -50.7258760 -0.658435E-04  0.538E-02    8.56       1.0  T
   4    -50.7258882 -0.122501E-04  0.164E-02    8.57       1.2  T
   5    -50.7258886 -0.418316E-06  0.494E-03    8.57       4.0  T
   6    -50.7258887 -0.343079E-07  0.294E-03    8.57       6.7  T
speedup  0.93
cpu  time for SCC    0.01 s
wall time for SCC    0.01 s
speedup  1.01
cpu  time for grad    0.01 s
wall time for grad    0.01 s
 E :    -50.43330307  G :  0.040871    pred/act E change: -0.160D-02 -0.547D-03
Maxdispl :   0.0941   ||displ|| :   0.2224   Lambda : -0.246D-02
Largest |displ|/coords:  0.0941 (  12)  0.0757 (   6)  0.0683 (   2)
................................................................................
.............................. CYCLE    7 ......................................
................................................................................
   1    -50.7328189 -0.507328E+02  0.338E-01    8.66       0.0  T
   2    -50.7328807 -0.618728E-04  0.256E-01    8.66       1.0  T
   3    -50.7329146 -0.338952E-04  0.483E-02    8.67       1.0  T
   4    -50.7329241 -0.946913E-05  0.147E-02    8.66       1.3  T
   5    -50.7329248 -0.673961E-06  0.417E-03    8.66       4.7  T
   6    -50.7329248 -0.774932E-08  0.233E-03    8.66       8.4  T
speedup  1.11
cpu  time for SCC    0.01 s
wall time for SCC    0.01 s
speedup  1.00
cpu  time for grad    0.01 s
wall time for grad    0.01 s
 E :    -50.43395449  G :  0.015263    pred/act E change: -0.143D-02 -0.651D-03
Maxdispl :   0.1068   ||displ|| :   0.2277   Lambda : -0.887D-03
Largest |displ|/coords:  0.1068 (   6)  0.0723 (   9)  0.0658 (  14)
................................................................................
.............................. CYCLE    8 ......................................
................................................................................
   1    -50.7319627 -0.507320E+02  0.259E-01    8.65       0.0  T
   2    -50.7319718 -0.915328E-05  0.196E-01    8.66       1.0  T
   3    -50.7319812 -0.938530E-05  0.153E-02    8.68       1.3  T
   4    -50.7319820 -0.809901E-06  0.626E-03    8.67       3.1  T
   5    -50.7319821 -0.331290E-07  0.199E-03    8.67       9.8  T
   6    -50.7319821 -0.191858E-08  0.927E-04    8.67      21.2  T
speedup  0.93
cpu  time for SCC    0.00 s
wall time for SCC    0.01 s
speedup  1.00
cpu  time for grad    0.01 s
wall time for grad    0.01 s
 E :    -50.43429507  G :  0.011759    pred/act E change: -0.129D-02 -0.341D-03
Maxdispl :   0.1468   ||displ|| :   0.2606   Lambda : -0.831D-03
Largest |displ|/coords:  0.1468 (  13)  0.1127 (   2)  0.0821 (  15)
................................................................................
.............................. CYCLE    9 ......................................
................................................................................
   1    -50.7296341 -0.507296E+02  0.235E-01    8.63       0.0  T
   2    -50.7296479 -0.137630E-04  0.178E-01    8.63       1.0  T
   3    -50.7296609 -0.130452E-04  0.222E-02    8.65       1.0  T
   4    -50.7296622 -0.134525E-05  0.561E-03    8.65       3.5  T
   5    -50.7296623 -0.498540E-07  0.219E-03    8.65       8.9  T
   6    -50.7296623 -0.442480E-08  0.115E-03    8.65      17.1  T
speedup  0.94
cpu  time for SCC    0.00 s
wall time for SCC    0.01 s
speedup  0.99
cpu  time for grad    0.01 s
wall time for grad    0.01 s
 E :    -50.43485499  G :  0.015893    pred/act E change: -0.467D-03 -0.560D-03
Maxdispl :   0.2011   ||displ|| :   0.3813   Lambda : -0.908D-03
Largest |displ|/coords:  0.2011 (   2)  0.1641 (  13)  0.0885 (   9)
................................................................................
.............................. CYCLE   10 ......................................
................................................................................
   1    -50.7275736 -0.507276E+02  0.308E-01    8.66       0.0  T
   2    -50.7275978 -0.242026E-04  0.233E-01    8.67       1.0  T
   3    -50.7276192 -0.213412E-04  0.312E-02    8.68       1.0  T
   4    -50.7276219 -0.271722E-05  0.885E-03    8.68       2.2  T
   5    -50.7276220 -0.124325E-06  0.302E-03    8.68       6.5  T
   6    -50.7276220 -0.821317E-08  0.171E-03    8.68      11.5  T
   7    -50.7276220 -0.645776E-08  0.439E-04    8.68      44.7  T
speedup  0.95
cpu  time for SCC    0.01 s
wall time for SCC    0.01 s
speedup  1.00
cpu  time for grad    0.01 s
wall time for grad    0.01 s
 E :    -50.43502495  G :  0.027105    pred/act E change: -0.444D-03 -0.170D-03
Maxdispl :   0.1015   ||displ|| :   0.2311   Lambda : -0.108D-02
Largest |displ|/coords:  0.1015 (   2)  0.0966 (  10)  0.0696 (  12)
................................................................................
.............................. CYCLE   11 ......................................
................................................................................
   1    -50.7298938 -0.507299E+02  0.218E-01    8.69       0.0  T
   2    -50.7299096 -0.157741E-04  0.165E-01    8.70       1.0  T
   3    -50.7299222 -0.125930E-04  0.235E-02    8.71       1.0  T
   4    -50.7299241 -0.193041E-05  0.723E-03    8.71       2.7  T
   5    -50.7299242 -0.869002E-07  0.233E-03    8.71       8.4  T
   6    -50.7299242 -0.382268E-08  0.133E-03    8.71      14.7  T
speedup  0.93
cpu  time for SCC    0.00 s
wall time for SCC    0.01 s
speedup  0.99
cpu  time for grad    0.01 s
wall time for grad    0.01 s
 E :    -50.43566380  G :  0.016702    pred/act E change: -0.520D-03 -0.639D-03
Maxdispl :   0.1134   ||displ|| :   0.2740   Lambda : -0.854D-03
Largest |displ|/coords:  0.1134 (   9)  0.1064 (   4)  0.0929 (   2)
................................................................................
.............................. CYCLE   12 ......................................
................................................................................
   1    -50.7300735 -0.507301E+02  0.237E-01    8.78       0.0  T
   2    -50.7300926 -0.191638E-04  0.177E-01    8.80       1.0  T
   3    -50.7301053 -0.126514E-04  0.255E-02    8.85       1.0  T
   4    -50.7301080 -0.275420E-05  0.721E-03    8.84       2.7  T
   5    -50.7301081 -0.844194E-07  0.293E-03    8.84       6.7  T
   6    -50.7301081 -0.101065E-07  0.147E-03    8.84      13.3  T
speedup  1.11
cpu  time for SCC    0.01 s
wall time for SCC    0.01 s
speedup  0.98
cpu  time for grad    0.01 s
wall time for grad    0.01 s
 E :    -50.43586180  G :  0.018837    pred/act E change: -0.571D-03 -0.198D-03
Maxdispl :   0.1776   ||displ|| :   0.3086   Lambda : -0.108D-02
Largest |displ|/coords:  0.1776 (   6)  0.0883 (   2)  0.0794 (   7)
................................................................................
.............................. CYCLE   13 ......................................
................................................................................
   1    -50.7333834 -0.507334E+02  0.272E-01    8.93       0.0  T
   2    -50.7334023 -0.188368E-04  0.204E-01    8.95       1.0  T
   3    -50.7334163 -0.140604E-04  0.251E-02    8.99       1.0  T
   4    -50.7334188 -0.248600E-05  0.609E-03    8.98       3.2  T
   5    -50.7334189 -0.589668E-07  0.317E-03    8.98       6.2  T
   6    -50.7334189 -0.132964E-07  0.134E-03    8.98      14.6  T
   7    -50.7334189 -0.351522E-08  0.362E-04    8.98      54.2  T
speedup  0.95
cpu  time for SCC    0.01 s
wall time for SCC    0.01 s
speedup  0.99
cpu  time for grad    0.01 s
wall time for grad    0.01 s
 E :    -50.43618434  G :  0.020195    pred/act E change: -0.459D-03 -0.323D-03
Maxdispl :   0.1499   ||displ|| :   0.3274   Lambda : -0.103D-02
Largest |displ|/coords:  0.1499 (   7)  0.1304 (   2)  0.0930 (  14)
................................................................................
.............................. CYCLE   14 ......................................
................................................................................
   1    -50.7272272 -0.507272E+02  0.297E-01    8.94       0.0  T
   2    -50.7272483 -0.210919E-04  0.224E-01    8.94       1.0  T
   3    -50.7272681 -0.198528E-04  0.268E-02    8.93       1.0  T
   4    -50.7272702 -0.203719E-05  0.666E-03    8.94       2.9  T
   5    -50.7272702 -0.408135E-07  0.340E-03    8.94       5.8  T
   6    -50.7272702 -0.148759E-07  0.137E-03    8.94      14.3  T
speedup  0.93
cpu  time for SCC    0.00 s
wall time for SCC    0.01 s
speedup  0.99
cpu  time for grad    0.01 s
wall time for grad    0.01 s
 E :    -50.43628330  G :  0.027549    pred/act E change: -0.593D-03 -0.990D-04
Maxdispl :   0.1801   ||displ|| :   0.2764   Lambda : -0.167D-02
Largest |displ|/coords:  0.1801 (   6)  0.1052 (   8)  0.0791 (  12)
................................................................................
.............................. CYCLE   15 ......................................
................................................................................
   1    -50.7350991 -0.507351E+02  0.297E-01    8.93       0.0  T
   2    -50.7351515 -0.524064E-04  0.222E-01    8.93       1.0  T
   3    -50.7351883 -0.367156E-04  0.417E-02    8.92       1.0  T
   4    -50.7351945 -0.627052E-05  0.134E-02    8.92       1.5  T
   5    -50.7351949 -0.403816E-06  0.484E-03    8.92       4.1  T
   6    -50.7351949 -0.155884E-07  0.254E-03    8.92       7.7  T
speedup  1.09
cpu  time for SCC    0.01 s
wall time for SCC    0.01 s
speedup  1.06
cpu  time for grad    0.01 s
wall time for grad    0.01 s
 E :    -50.43524117  G :  0.045859    pred/act E change: -0.570D-03  0.104D-02
Maxdispl :   0.1347   ||displ|| :   0.3017   Lambda : -0.343D-02
Largest |displ|/coords:  0.1347 (   6)  0.1261 (  17)  0.0914 (  19)
................................................................................
.............................. CYCLE   16 ......................................
................................................................................
   1    -50.7310383 -0.507310E+02  0.317E-01    8.98       0.0  T
   2    -50.7310712 -0.329297E-04  0.236E-01    9.00       1.0  T
   3    -50.7310940 -0.228122E-04  0.330E-02    9.04       1.0  T
   4    -50.7310983 -0.429830E-05  0.108E-02    9.02       1.8  T
   5    -50.7310985 -0.156864E-06  0.392E-03    9.02       5.0  T
   6    -50.7310985 -0.167012E-07  0.173E-03    9.02      11.3  T
speedup  1.03
cpu  time for SCC    0.01 s
wall time for SCC    0.01 s
speedup  0.96
cpu  time for grad    0.01 s
wall time for grad    0.01 s
 E :    -50.43655803  G :  0.017803    pred/act E change: -0.896D-03 -0.132D-02
Maxdispl :   0.1048   ||displ|| :   0.2570   Lambda : -0.139D-02
Largest |displ|/coords:  0.1048 (  19)  0.0865 (   6)  0.0849 (  10)
................................................................................
.............................. CYCLE   17 ......................................
................................................................................
   1    -50.7321507 -0.507322E+02  0.246E-01    9.06       0.0  T
   2    -50.7321704 -0.196688E-04  0.183E-01    9.05       1.0  T
   3    -50.7321850 -0.146085E-04  0.257E-02    9.06       1.0  T
   4    -50.7321871 -0.204947E-05  0.889E-03    9.07       2.2  T
   5    -50.7321872 -0.117437E-06  0.306E-03    9.07       6.4  T
   6    -50.7321872 -0.115846E-07  0.157E-03    9.07      12.5  T
   7    -50.7321872 -0.670051E-08  0.466E-04    9.07      42.1  T
speedup  0.95
cpu  time for SCC    0.01 s
wall time for SCC    0.01 s
speedup  1.00
cpu  time for grad    0.01 s
wall time for grad    0.01 s
 E :    -50.43660589  G :  0.025312    pred/act E change: -0.187D-02 -0.479D-04
Maxdispl :   0.0826   ||displ|| :   0.1801   Lambda : -0.103D-02
Largest |displ|/coords:  0.0826 (   9)  0.0766 (  19)  0.0641 (   2)
................................................................................
.............................. CYCLE   18 ......................................
................................................................................
   1    -50.7281414 -0.507281E+02  0.169E-01    9.00       0.0  T
   2    -50.7281536 -0.121696E-04  0.125E-01    9.01       1.0  T
   3    -50.7281599 -0.637214E-05  0.200E-02    9.03       1.0  T
   4    -50.7281617 -0.176646E-05  0.616E-03    9.02       3.2  T
   5    -50.7281617 -0.422015E-07  0.212E-03    9.02       9.2  T
   6    -50.7281617 -0.557848E-08  0.939E-04    9.02      20.9  T
speedup  1.09
cpu  time for SCC    0.01 s
wall time for SCC    0.01 s
speedup  0.98
cpu  time for grad    0.01 s
wall time for grad    0.01 s
 E :    -50.43703751  G :  0.014434    pred/act E change: -0.743D-03 -0.432D-03
Maxdispl :   0.1034   ||displ|| :   0.1825   Lambda : -0.693D-03
Largest |displ|/coords:  0.1034 (  17)  0.0779 (   4)  0.0526 (   8)
................................................................................
.............................. CYCLE   19 ......................................
................................................................................
   1    -50.7323153 -0.507323E+02  0.160E-01    9.06       0.0  T
   2    -50.7323286 -0.132435E-04  0.117E-01    9.05       1.0  T
   3    -50.7323364 -0.780533E-05  0.201E-02    9.03       1.0  T
   4    -50.7323378 -0.142436E-05  0.722E-03    9.03       2.7  T
   5    -50.7323379 -0.914576E-07  0.241E-03    9.03       8.1  T
   6    -50.7323379 -0.650140E-08  0.121E-03    9.03      16.2  T
speedup  1.05
cpu  time for SCC    0.01 s
wall time for SCC    0.01 s
speedup  0.96
cpu  time for grad    0.01 s
wall time for grad    0.01 s
 E :    -50.43696498  G :  0.020889    pred/act E change: -0.531D-03  0.725D-04
Maxdispl :   0.0607   ||displ|| :   0.1435   Lambda : -0.672D-03
Largest |displ|/coords:  0.0607 (  17)  0.0548 (   6)  0.0477 (  10)
................................................................................
.............................. CYCLE   20 ......................................
................................................................................
   1    -50.7303086 -0.507303E+02  0.137E-01    9.02       0.0  T
   2    -50.7303189 -0.103025E-04  0.102E-01    9.04       1.0  T
   3    -50.7303242 -0.535626E-05  0.184E-02    9.07       1.1  T
   4    -50.7303257 -0.147090E-05  0.587E-03    9.07       3.3  T
   5    -50.7303258 -0.629946E-07  0.201E-03    9.07       9.7  T
speedup  1.09
cpu  time for SCC    0.00 s
wall time for SCC    0.00 s
speedup  1.05
cpu  time for grad    0.01 s
wall time for grad    0.01 s
 E :    -50.43737051  G :  0.007547    pred/act E change: -0.358D-03 -0.406D-03
Maxdispl :   0.0842   ||displ|| :   0.2036   Lambda : -0.302D-03
Largest |displ|/coords:  0.0842 (   7)  0.0775 (   6)  0.0681 (   3)
................................................................................
.............................. CYCLE   21 ......................................
................................................................................
   1    -50.7299074 -0.507299E+02  0.138E-01    9.10       0.0  T
   2    -50.7299144 -0.700963E-05  0.103E-01    9.11       1.0  T
   3    -50.7299177 -0.326028E-05  0.167E-02    9.14       1.2  T
   4    -50.7299190 -0.124718E-05  0.506E-03    9.14       3.9  T
   5    -50.7299190 -0.439057E-07  0.164E-03    9.13      12.0  T
   6    -50.7299190 -0.289037E-08  0.935E-04    9.13      21.0  T
speedup  1.11
cpu  time for SCC    0.01 s
wall time for SCC    0.01 s
speedup  0.98
cpu  time for grad    0.01 s
wall time for grad    0.01 s
 E :    -50.43748490  G :  0.015314    pred/act E change: -0.343D-03 -0.114D-03
Maxdispl :   0.1417   ||displ|| :   0.2913   Lambda : -0.409D-03
Largest |displ|/coords:  0.1417 (   3)  0.1116 (   8)  0.0938 (   6)
................................................................................
.............................. CYCLE   22 ......................................
................................................................................
   1    -50.7280325 -0.507280E+02  0.171E-01    9.09       0.0  T
   2    -50.7280414 -0.898682E-05  0.128E-01    9.10       1.0  T
   3    -50.7280457 -0.421658E-05  0.192E-02    9.13       1.0  T
   4    -50.7280472 -0.155152E-05  0.615E-03    9.13       3.2  T
   5    -50.7280473 -0.393747E-07  0.166E-03    9.12      11.8  T
   6    -50.7280473 -0.390270E-08  0.945E-04    9.12      20.8  T
speedup  1.11
cpu  time for SCC    0.01 s
wall time for SCC    0.01 s
speedup  1.04
cpu  time for grad    0.01 s
wall time for grad    0.01 s
 E :    -50.43771268  G :  0.013682    pred/act E change: -0.157D-03 -0.228D-03
Maxdispl :   0.1843   ||displ|| :   0.3137   Lambda : -0.556D-03
Largest |displ|/coords:  0.1843 (   8)  0.1661 (   3)  0.0689 (   7)
................................................................................
.............................. CYCLE   23 ......................................
................................................................................
   1    -50.7308999 -0.507309E+02  0.180E-01    9.24       0.0  T
   2    -50.7309137 -0.138482E-04  0.135E-01    9.26       1.0  T
   3    -50.7309198 -0.608503E-05  0.218E-02    9.30       1.0  T
   4    -50.7309224 -0.256425E-05  0.610E-03    9.29       3.2  T
   5    -50.7309224 -0.574950E-07  0.205E-03    9.29       9.6  T
   6    -50.7309224 -0.369820E-08  0.108E-03    9.29      18.2  T
speedup  0.93
cpu  time for SCC    0.00 s
wall time for SCC    0.01 s
speedup  0.98
cpu  time for grad    0.01 s
wall time for grad    0.01 s
 E :    -50.43798457  G :  0.015262    pred/act E change: -0.222D-03 -0.272D-03
Maxdispl :   0.1951   ||displ|| :   0.3752   Lambda : -0.566D-03
Largest |displ|/coords:  0.1951 (   8)  0.1663 (   3)  0.0963 (   7)
................................................................................
.............................. CYCLE   24 ......................................
................................................................................
   1    -50.7285022 -0.507285E+02  0.223E-01    9.20       0.0  T
   2    -50.7285157 -0.134566E-04  0.167E-01    9.21       1.0  T
   3    -50.7285247 -0.902876E-05  0.251E-02    9.23       1.0  T
   4    -50.7285264 -0.173243E-05  0.864E-03    9.23       2.3  T
   5    -50.7285265 -0.969074E-07  0.235E-03    9.22       8.3  T
   6    -50.7285265 -0.590364E-08  0.138E-03    9.22      14.2  T
speedup  1.11
cpu  time for SCC    0.01 s
wall time for SCC    0.01 s
speedup  1.06
cpu  time for grad    0.01 s
wall time for grad    0.01 s
 E :    -50.43817838  G :  0.015065    pred/act E change: -0.305D-03 -0.194D-03
Maxdispl :   0.1194   ||displ|| :   0.2751   Lambda : -0.693D-03
Largest |displ|/coords:  0.1194 (   8)  0.1165 (   3)  0.0895 (   7)
................................................................................
.............................. CYCLE   25 ......................................
................................................................................
   1    -50.7322762 -0.507323E+02  0.151E-01    9.20       0.0  T
   2    -50.7322855 -0.928305E-05  0.112E-01    9.20       1.0  T
   3    -50.7322913 -0.572247E-05  0.190E-02    9.20       1.0  T
   4    -50.7322923 -0.106055E-05  0.646E-03    9.20       3.0  T
   5    -50.7322924 -0.766479E-07  0.198E-03    9.20       9.9  T
   6    -50.7322924 -0.257744E-08  0.109E-03    9.20      17.9  T
speedup  1.13
cpu  time for SCC    0.01 s
wall time for SCC    0.01 s
speedup  0.99
cpu  time for grad    0.01 s
wall time for grad    0.01 s
 E :    -50.43819942  G :  0.019304    pred/act E change: -0.323D-03 -0.210D-04
Maxdispl :   0.1044   ||displ|| :   0.2141   Lambda : -0.900D-03
Largest |displ|/coords:  0.1044 (   3)  0.0967 (   6)  0.0725 (  10)

generating ANC from model Hessian ...
 Shifting diagonal of input Hessian by   5.101395367449585E-003
 Lowest  eigenvalues of input Hessian
    0.005000   -0.000000   -0.000000   -0.000000    0.000000    0.000000
    0.000000    0.005150    0.005356    0.005383    0.005756    0.006159
    0.006221    0.006540    0.006868    0.007616    0.007988    0.008613
 Highest eigenvalues
    1.389129    1.435023    1.446700    2.814685    3.283811    3.679443
 
cpu  time for ANC gen    0.01 s
wall time for ANC gen    0.01 s
................................................................................
.............................. CYCLE   26 ......................................
................................................................................
   1    -50.7277946 -0.507278E+02  0.184E-01    9.36       0.0  T
   2    -50.7278175 -0.229207E-04  0.136E-01    9.37       1.0  T
   3    -50.7278306 -0.130557E-04  0.284E-02    9.38       1.0  T
   4    -50.7278336 -0.301311E-05  0.759E-03    9.38       2.6  T
   5    -50.7278337 -0.126031E-06  0.301E-03    9.38       6.5  T
   6    -50.7278337 -0.104764E-07  0.170E-03    9.38      11.5  T
   7    -50.7278337 -0.480834E-08  0.389E-04    9.38      50.5  T
   8    -50.7278337 -0.412683E-09  0.123E-04    9.38     159.2  T
speedup  0.99
cpu  time for SCC    0.01 s
wall time for SCC    0.01 s
speedup  0.96
cpu  time for grad    0.01 s
wall time for grad    0.02 s
 E :    -50.43832415  G :  0.023714    pred/act E change:  0.000D+00 -0.125D-03
Maxdispl :   0.0653   ||displ|| :   0.1594   Lambda : -0.948D-03
Largest |displ|/coords:  0.0653 (  27)  0.0527 (  11)  0.0509 (   7)
................................................................................
.............................. CYCLE   27 ......................................
................................................................................
   1    -50.7300242 -0.507300E+02  0.163E-01    9.34       0.0  T
   2    -50.7300291 -0.494028E-05  0.124E-01    9.34       1.0  T
   3    -50.7300347 -0.564134E-05  0.118E-02    9.35       1.7  T
   4    -50.7300351 -0.356213E-06  0.422E-03    9.35       4.6  T
   5    -50.7300351 -0.218119E-07  0.152E-03    9.35      12.9  T
speedup  0.89
cpu  time for SCC    0.00 s
wall time for SCC    0.00 s
speedup  0.98
cpu  time for grad    0.01 s
wall time for grad    0.01 s
 E :    -50.43897207  G :  0.009601    pred/act E change:  0.000D+00 -0.648D-03
Maxdispl :   0.1259   ||displ|| :   0.2451   Lambda : -0.610D-03
Largest |displ|/coords:  0.1259 (   3)  0.0829 (   2)  0.0734 (  14)
................................................................................
.............................. CYCLE   28 ......................................
................................................................................
   1    -50.7301390 -0.507301E+02  0.231E-01    9.28       0.0  T
   2    -50.7301476 -0.857666E-05  0.175E-01    9.30       1.0  T
   3    -50.7301558 -0.816459E-05  0.159E-02    9.32       1.2  T
   4    -50.7301567 -0.943147E-06  0.498E-03    9.32       3.9  T
   5    -50.7301567 -0.307610E-07  0.225E-03    9.32       8.7  T
   6    -50.7301567 -0.544528E-08  0.109E-03    9.31      17.9  T
speedup  0.93
cpu  time for SCC    0.00 s
wall time for SCC    0.01 s
speedup  0.96
cpu  time for grad    0.01 s
wall time for grad    0.01 s
 E :    -50.43934533  G :  0.012849    pred/act E change: -0.486D-03 -0.373D-03
Maxdispl :   0.1509   ||displ|| :   0.2867   Lambda : -0.523D-03
Largest |displ|/coords:  0.1509 (   3)  0.0922 (  23)  0.0820 (   1)
................................................................................
.............................. CYCLE   29 ......................................
................................................................................
   1    -50.7287039 -0.507287E+02  0.252E-01    9.28       0.0  T
   2    -50.7287166 -0.126473E-04  0.190E-01    9.28       1.0  T
   3    -50.7287267 -0.101737E-04  0.199E-02    9.28       1.0  T
   4    -50.7287286 -0.183855E-05  0.601E-03    9.28       3.3  T
   5    -50.7287286 -0.543070E-07  0.293E-03    9.28       6.7  T
   6    -50.7287286 -0.103553E-07  0.150E-03    9.28      13.1  T
speedup  0.93
cpu  time for SCC    0.00 s
wall time for SCC    0.01 s
speedup  0.98
cpu  time for grad    0.01 s
wall time for grad    0.01 s
 E :    -50.43964159  G :  0.012822    pred/act E change: -0.323D-03 -0.296D-03
Maxdispl :   0.1307   ||displ|| :   0.2498   Lambda : -0.473D-03
Largest |displ|/coords:  0.1307 (   3)  0.1100 (   1)  0.0899 (   2)
................................................................................
.............................. CYCLE   30 ......................................
................................................................................
   1    -50.7293067 -0.507293E+02  0.155E-01    9.26       0.0  T
   2    -50.7293126 -0.593060E-05  0.118E-01    9.26       1.0  T
   3    -50.7293184 -0.578030E-05  0.138E-02    9.26       1.4  T
   4    -50.7293191 -0.728914E-06  0.493E-03    9.26       4.0  T
   5    -50.7293191 -0.294443E-07  0.183E-03    9.26      10.7  T
   6    -50.7293191 -0.511506E-08  0.935E-04    9.26      21.0  T
speedup  0.91
cpu  time for SCC    0.01 s
wall time for SCC    0.01 s
speedup  0.97
cpu  time for grad    0.01 s
wall time for grad    0.01 s
 E :    -50.43993838  G :  0.007566    pred/act E change: -0.283D-03 -0.297D-03
Maxdispl :   0.1999   ||displ|| :   0.3459   Lambda : -0.419D-03
Largest |displ|/coords:  0.1999 (   3)  0.1452 (   2)  0.1187 (   1)
................................................................................
.............................. CYCLE   31 ......................................
................................................................................
   1    -50.7263400 -0.507263E+02  0.236E-01    9.21       0.0  T
   2    -50.7263528 -0.128131E-04  0.178E-01    9.22       1.0  T
   3    -50.7263630 -0.102156E-04  0.200E-02    9.25       1.0  T
   4    -50.7263649 -0.186350E-05  0.640E-03    9.24       3.1  T
   5    -50.7263649 -0.616600E-07  0.279E-03    9.24       7.0  T
   6    -50.7263649 -0.899728E-08  0.146E-03    9.24      13.5  T
speedup  0.91
cpu  time for SCC    0.00 s
wall time for SCC    0.01 s
speedup  0.96
cpu  time for grad    0.01 s
wall time for grad    0.01 s
 E :    -50.44011993  G :  0.016416    pred/act E change: -0.251D-03 -0.182D-03
Maxdispl :   0.0955   ||displ|| :   0.1679   Lambda : -0.407D-03
Largest |displ|/coords:  0.0955 (   3)  0.0494 (  13)  0.0433 (   5)
................................................................................
.............................. CYCLE   32 ......................................
................................................................................
   1    -50.7306810 -0.507307E+02  0.992E-02    9.28       0.0  T
   2    -50.7306868 -0.578921E-05  0.740E-02    9.28       1.0  T
   3    -50.7306904 -0.362947E-05  0.137E-02    9.27       1.4  T
   4    -50.7306911 -0.708792E-06  0.376E-03    9.27       5.2  T
   5    -50.7306912 -0.313554E-07  0.142E-03    9.27      13.9  T
   6    -50.7306912 -0.176179E-08  0.735E-04    9.27      26.7  T
speedup  1.11
cpu  time for SCC    0.01 s
wall time for SCC    0.01 s
speedup  1.04
cpu  time for grad    0.01 s
wall time for grad    0.01 s
 E :    -50.44024515  G :  0.014500    pred/act E change: -0.234D-03 -0.125D-03
Maxdispl :   0.1295   ||displ|| :   0.2691   Lambda : -0.478D-03
Largest |displ|/coords:  0.1295 (   3)  0.1077 (   8)  0.0967 (  14)
................................................................................
.............................. CYCLE   33 ......................................
................................................................................
   1    -50.7282808 -0.507283E+02  0.202E-01    9.28       0.0  T
   2    -50.7283005 -0.196637E-04  0.152E-01    9.28       1.0  T
   3    -50.7283138 -0.132957E-04  0.245E-02    9.27       1.0  T
   4    -50.7283167 -0.298805E-05  0.594E-03    9.27       3.3  T
   5    -50.7283168 -0.404617E-07  0.307E-03    9.27       6.4  T
   6    -50.7283168 -0.146282E-07  0.117E-03    9.27      16.7  T
   7    -50.7283168 -0.374560E-08  0.320E-04    9.27      61.2  T
speedup  0.95
cpu  time for SCC    0.01 s
wall time for SCC    0.01 s
speedup  0.99
cpu  time for grad    0.01 s
wall time for grad    0.01 s
 E :    -50.44006582  G :  0.020200    pred/act E change: -0.209D-03  0.179D-03
Maxdispl :   0.0868   ||displ|| :   0.1383   Lambda : -0.857D-03
Largest |displ|/coords:  0.0868 (   8)  0.0580 (  23)  0.0318 (  14)
................................................................................
.............................. CYCLE   34 ......................................
................................................................................
   1    -50.7293856 -0.507294E+02  0.141E-01    9.27       0.0  T
   2    -50.7293978 -0.121443E-04  0.106E-01    9.27       1.0  T
   3    -50.7294060 -0.820930E-05  0.199E-02    9.28       1.0  T
   4    -50.7294077 -0.176008E-05  0.451E-03    9.28       4.3  T
   5    -50.7294078 -0.296975E-07  0.246E-03    9.28       8.0  T
speedup  1.09
cpu  time for SCC    0.00 s
wall time for SCC    0.00 s
speedup  1.02
cpu  time for grad    0.01 s
wall time for grad    0.01 s
 E :    -50.44049899  G :  0.007176    pred/act E change: -0.256D-03 -0.433D-03
Maxdispl :   0.0808   ||displ|| :   0.1439   Lambda : -0.145D-03
Largest |displ|/coords:  0.0808 (   2)  0.0730 (   3)  0.0342 (   4)
................................................................................
.............................. CYCLE   35 ......................................
................................................................................
   1    -50.7294835 -0.507295E+02  0.868E-02    9.28       0.0  T
   2    -50.7294852 -0.165288E-05  0.652E-02    9.28       1.0  T
   3    -50.7294863 -0.112339E-05  0.731E-03    9.28       2.7  T
   4    -50.7294866 -0.247557E-06  0.294E-03    9.28       6.7  T
   5    -50.7294866 -0.116150E-07  0.879E-04    9.28      22.3  T
speedup  1.09
cpu  time for SCC    0.01 s
wall time for SCC    0.00 s
speedup  1.03
cpu  time for grad    0.01 s
wall time for grad    0.01 s
 E :    -50.44059371  G :  0.009681    pred/act E change: -0.437D-03 -0.947D-04
Maxdispl :   0.1534   ||displ|| :   0.2738   Lambda : -0.243D-03
Largest |displ|/coords:  0.1534 (   3)  0.1223 (   2)  0.0948 (   4)
................................................................................
.............................. CYCLE   36 ......................................
................................................................................
   1    -50.7303428 -0.507303E+02  0.140E-01    9.28       0.0  T
   2    -50.7303476 -0.489534E-05  0.105E-01    9.27       1.0  T
   3    -50.7303509 -0.327964E-05  0.136E-02    9.26       1.4  T
   4    -50.7303516 -0.697636E-06  0.523E-03    9.26       3.8  T
   5    -50.7303517 -0.268059E-07  0.141E-03    9.26      13.9  T
   6    -50.7303517 -0.278470E-08  0.773E-04    9.26      25.4  T
speedup  1.11
cpu  time for SCC    0.01 s
wall time for SCC    0.01 s
speedup  1.04
cpu  time for grad    0.01 s
wall time for grad    0.01 s
 E :    -50.44077415  G :  0.009648    pred/act E change: -0.739D-04 -0.180D-03
Maxdispl :   0.1842   ||displ|| :   0.3892   Lambda : -0.369D-03
Largest |displ|/coords:  0.1842 (   4)  0.1599 (   3)  0.1568 (   2)
................................................................................
.............................. CYCLE   37 ......................................
................................................................................
   1    -50.7325926 -0.507326E+02  0.219E-01    9.24       0.0  T
   2    -50.7326086 -0.160729E-04  0.165E-01    9.24       1.0  T
   3    -50.7326198 -0.111654E-04  0.251E-02    9.21       1.0  T
   4    -50.7326220 -0.217221E-05  0.862E-03    9.22       2.3  T
   5    -50.7326221 -0.921374E-07  0.239E-03    9.22       8.2  T
   6    -50.7326221 -0.710694E-08  0.132E-03    9.22      14.9  T
speedup  1.07
cpu  time for SCC    0.01 s
wall time for SCC    0.01 s
speedup  1.04
cpu  time for grad    0.01 s
wall time for grad    0.01 s
 E :    -50.44093727  G :  0.013725    pred/act E change: -0.130D-03 -0.163D-03
Maxdispl :   0.1893   ||displ|| :   0.3641   Lambda : -0.382D-03
Largest |displ|/coords:  0.1893 (   2)  0.1575 (   3)  0.1335 (   4)
................................................................................
.............................. CYCLE   38 ......................................
................................................................................
   1    -50.7282426 -0.507282E+02  0.221E-01    9.15       0.0  T
   2    -50.7282580 -0.153819E-04  0.166E-01    9.15       1.0  T
   3    -50.7282686 -0.106625E-04  0.226E-02    9.12       1.0  T
   4    -50.7282710 -0.237405E-05  0.813E-03    9.13       2.4  T
   5    -50.7282711 -0.100949E-06  0.274E-03    9.13       7.2  T
   6    -50.7282711 -0.914962E-08  0.149E-03    9.13      13.1  T
speedup  0.91
cpu  time for SCC    0.00 s
wall time for SCC    0.01 s
speedup  0.96
cpu  time for grad    0.01 s
wall time for grad    0.01 s
 E :    -50.44094384  G :  0.020367    pred/act E change: -0.212D-03 -0.657D-05
Maxdispl :   0.0825   ||displ|| :   0.1549   Lambda : -0.648D-03
Largest |displ|/coords:  0.0825 (   2)  0.0516 (   9)  0.0402 (   1)
................................................................................
.............................. CYCLE   39 ......................................
................................................................................
   1    -50.7335983 -0.507336E+02  0.129E-01    9.14       0.0  T
   2    -50.7336068 -0.852079E-05  0.965E-02    9.13       1.0  T
   3    -50.7336131 -0.627983E-05  0.164E-02    9.13       1.2  T
   4    -50.7336141 -0.105117E-05  0.461E-03    9.13       4.3  T
   5    -50.7336142 -0.289387E-07  0.188E-03    9.13      10.4  T
speedup  0.89
cpu  time for SCC    0.00 s
wall time for SCC    0.00 s
speedup  0.97
cpu  time for grad    0.01 s
wall time for grad    0.01 s
 E :    -50.44107433  G :  0.014228    pred/act E change: -0.216D-03 -0.130D-03
Maxdispl :   0.0582   ||displ|| :   0.1189   Lambda : -0.488D-03
Largest |displ|/coords:  0.0582 (  14)  0.0370 (   3)  0.0336 (   8)
................................................................................
.............................. CYCLE   40 ......................................
................................................................................
   1    -50.7321414 -0.507321E+02  0.127E-01    9.10       0.0  T
   2    -50.7321522 -0.108001E-04  0.954E-02    9.12       1.0  T
   3    -50.7321599 -0.774018E-05  0.184E-02    9.12       1.1  T
   4    -50.7321613 -0.138892E-05  0.399E-03    9.12       4.9  T
   5    -50.7321613 -0.199685E-07  0.198E-03    9.12       9.9  T
   6    -50.7321613 -0.521437E-08  0.761E-04    9.12      25.8  T
speedup  0.93
cpu  time for SCC    0.00 s
wall time for SCC    0.01 s
speedup  0.97
cpu  time for grad    0.01 s
wall time for grad    0.01 s
 E :    -50.44115525  G :  0.016783    pred/act E change: -0.332D-03 -0.809D-04
Maxdispl :   0.1183   ||displ|| :   0.1750   Lambda : -0.446D-03
Largest |displ|/coords:  0.1183 (   3)  0.0900 (   7)  0.0375 (   5)
................................................................................
.............................. CYCLE   41 ......................................
................................................................................
   1    -50.7339467 -0.507339E+02  0.126E-01    9.15       0.0  T
   2    -50.7339507 -0.397324E-05  0.946E-02    9.15       1.0  T
   3    -50.7339536 -0.289893E-05  0.114E-02    9.15       1.7  T
   4    -50.7339542 -0.599555E-06  0.354E-03    9.15       5.5  T
   5    -50.7339542 -0.160428E-07  0.168E-03    9.15      11.6  T
   6    -50.7339542 -0.311200E-08  0.754E-04    9.15      26.0  T
speedup  0.94
cpu  time for SCC    0.00 s
wall time for SCC    0.01 s
speedup  0.96
cpu  time for grad    0.01 s
wall time for grad    0.01 s
 E :    -50.44125406  G :  0.008853    pred/act E change: -0.248D-03 -0.988D-04
Maxdispl :   0.1068   ||displ|| :   0.2018   Lambda : -0.318D-03
Largest |displ|/coords:  0.1068 (   3)  0.0758 (   1)  0.0713 (   4)
................................................................................
.............................. CYCLE   42 ......................................
................................................................................
   1    -50.7319810 -0.507320E+02  0.139E-01    9.11       0.0  T
   2    -50.7319861 -0.519699E-05  0.105E-01    9.10       1.0  T
   3    -50.7319898 -0.364516E-05  0.127E-02    9.08       1.5  T
   4    -50.7319906 -0.809721E-06  0.460E-03    9.08       4.3  T
   5    -50.7319906 -0.292142E-07  0.153E-03    9.08      12.8  T
   6    -50.7319906 -0.327243E-08  0.796E-04    9.08      24.6  T
speedup  1.13
cpu  time for SCC    0.01 s
wall time for SCC    0.01 s
speedup  1.05
cpu  time for grad    0.01 s
wall time for grad    0.01 s
 E :    -50.44140940  G :  0.008545    pred/act E change: -0.230D-03 -0.155D-03
Maxdispl :   0.0616   ||displ|| :   0.1146   Lambda : -0.162D-03
Largest |displ|/coords:  0.0616 (   8)  0.0389 (  10)  0.0365 (   1)
................................................................................
.............................. CYCLE   43 ......................................
................................................................................
   1    -50.7331049 -0.507331E+02  0.889E-02    9.06       0.0  T
   2    -50.7331076 -0.270581E-05  0.672E-02    9.06       1.0  T
   3    -50.7331092 -0.167184E-05  0.926E-03    9.04       2.1  T
   4    -50.7331097 -0.465807E-06  0.280E-03    9.04       7.0  T
   5    -50.7331097 -0.125402E-07  0.105E-03    9.04      18.7  T
speedup  1.11
cpu  time for SCC    0.00 s
wall time for SCC    0.00 s
speedup  1.04
cpu  time for grad    0.01 s
wall time for grad    0.01 s
 E :    -50.44151122  G :  0.006626    pred/act E change: -0.165D-03 -0.102D-03
Maxdispl :   0.1122   ||displ|| :   0.2004   Lambda : -0.200D-03
Largest |displ|/coords:  0.1122 (   8)  0.0825 (   1)  0.0505 (   5)
................................................................................
.............................. CYCLE   44 ......................................
................................................................................
   1    -50.7331913 -0.507332E+02  0.145E-01    9.03       0.0  T
   2    -50.7331965 -0.522781E-05  0.110E-01    9.02       1.0  T
   3    -50.7332002 -0.374664E-05  0.122E-02    8.99       1.6  T
   4    -50.7332011 -0.831718E-06  0.424E-03    9.00       4.6  T
   5    -50.7332011 -0.250929E-07  0.156E-03    9.00      12.6  T
   6    -50.7332011 -0.300740E-08  0.810E-04    9.00      24.2  T
speedup  0.93
cpu  time for SCC    0.00 s
wall time for SCC    0.01 s
speedup  0.97
cpu  time for grad    0.01 s
wall time for grad    0.01 s
 E :    -50.44161466  G :  0.010795    pred/act E change: -0.821D-04 -0.103D-03
Maxdispl :   0.1076   ||displ|| :   0.2099   Lambda : -0.203D-03
Largest |displ|/coords:  0.1076 (   8)  0.0999 (   1)  0.0611 (   7)
................................................................................
.............................. CYCLE   45 ......................................
................................................................................
   1    -50.7343456 -0.507343E+02  0.148E-01    8.99       0.0  T
   2    -50.7343496 -0.401461E-05  0.112E-01    8.98       1.0  T
   3    -50.7343530 -0.334194E-05  0.112E-02    8.96       1.8  T
   4    -50.7343535 -0.545079E-06  0.367E-03    8.96       5.3  T
   5    -50.7343535 -0.181862E-07  0.145E-03    8.96      13.5  T
   6    -50.7343535 -0.221328E-08  0.683E-04    8.96      28.7  T
speedup  0.93
cpu  time for SCC    0.00 s
wall time for SCC    0.01 s
speedup  0.97
cpu  time for grad    0.01 s
wall time for grad    0.01 s
 E :    -50.44172097  G :  0.008998    pred/act E change: -0.104D-03 -0.106D-03
Maxdispl :   0.0524   ||displ|| :   0.0970   Lambda : -0.102D-03
Largest |displ|/coords:  0.0524 (   1)  0.0333 (   4)  0.0318 (   2)
................................................................................
.............................. CYCLE   46 ......................................
................................................................................
   1    -50.7354135 -0.507354E+02  0.522E-02    8.97       0.0  T
   2    -50.7354144 -0.882027E-06  0.387E-02    8.97       1.0  T
   3    -50.7354152 -0.745095E-06  0.657E-03    8.97       3.0  T
   4    -50.7354152 -0.919929E-07  0.218E-03    8.97       9.0  T
   5    -50.7354153 -0.749942E-08  0.664E-04    8.97      29.6  T
speedup  0.89
cpu  time for SCC    0.00 s
wall time for SCC    0.00 s
speedup  0.96
cpu  time for grad    0.01 s
wall time for grad    0.01 s
 E :    -50.44177995  G :  0.005204    pred/act E change: -0.106D-03 -0.590D-04
Maxdispl :   0.1292   ||displ|| :   0.2230   Lambda : -0.114D-03
Largest |displ|/coords:  0.1292 (   1)  0.0955 (   8)  0.0658 (   3)
................................................................................
.............................. CYCLE   47 ......................................
................................................................................
   1    -50.7340658 -0.507341E+02  0.142E-01    8.94       0.0  T
   2    -50.7340691 -0.324555E-05  0.107E-01    8.93       1.0  T
   3    -50.7340722 -0.311100E-05  0.117E-02    8.92       1.7  T
   4    -50.7340725 -0.328105E-06  0.364E-03    8.92       5.4  T
   5    -50.7340725 -0.197043E-07  0.137E-03    8.92      14.3  T
   6    -50.7340725 -0.268685E-08  0.736E-04    8.92      26.6  T
speedup  1.11
cpu  time for SCC    0.01 s
wall time for SCC    0.01 s
speedup  1.04
cpu  time for grad    0.01 s
wall time for grad    0.01 s
 E :    -50.44183497  G :  0.006528    pred/act E change: -0.517D-04 -0.550D-04
Maxdispl :   0.0616   ||displ|| :   0.1260   Lambda : -0.102D-03
Largest |displ|/coords:  0.0616 (   4)  0.0530 (   1)  0.0467 (   8)
................................................................................
.............................. CYCLE   48 ......................................
................................................................................
   1    -50.7356377 -0.507356E+02  0.771E-02    8.98       0.0  T
   2    -50.7356394 -0.167010E-05  0.572E-02    8.98       1.0  T
   3    -50.7356405 -0.114682E-05  0.964E-03    8.99       2.0  T
   4    -50.7356407 -0.225298E-06  0.360E-03    8.99       5.4  T
   5    -50.7356408 -0.127660E-07  0.798E-04    8.99      24.6  T
   6    -50.7356408 -0.769738E-09  0.519E-04    8.99      37.8  T
speedup  1.05
cpu  time for SCC    0.01 s
wall time for SCC    0.01 s
speedup  1.01
cpu  time for grad    0.01 s
wall time for grad    0.01 s
 E :    -50.44188444  G :  0.005477    pred/act E change: -0.601D-04 -0.495D-04
Maxdispl :   0.0761   ||displ|| :   0.1060   Lambda : -0.622D-04
Largest |displ|/coords:  0.0761 (   1)  0.0384 (   4)  0.0307 (   8)
................................................................................
.............................. CYCLE   49 ......................................
................................................................................
   1    -50.7350078 -0.507350E+02  0.670E-02    8.99       0.0  T
   2    -50.7350085 -0.702209E-06  0.500E-02    8.99       1.0  T
   3    -50.7350093 -0.745287E-06  0.659E-03    8.99       3.0  T
   4    -50.7350093 -0.512304E-07  0.191E-03    8.99      10.3  T
   5    -50.7350093 -0.518313E-08  0.601E-04    8.99      32.6  T
speedup  1.06
cpu  time for SCC    0.00 s
wall time for SCC    0.00 s
speedup  1.02
cpu  time for grad    0.01 s
wall time for grad    0.01 s
 E :    -50.44192677  G :  0.004859    pred/act E change: -0.517D-04 -0.423D-04
Maxdispl :   0.1074   ||displ|| :   0.1728   Lambda : -0.747D-04
Largest |displ|/coords:  0.1074 (   1)  0.0756 (   4)  0.0535 (   8)
................................................................................
.............................. CYCLE   50 ......................................
................................................................................
   1    -50.7340080 -0.507340E+02  0.101E-01    8.98       0.0  T
   2    -50.7340094 -0.132645E-05  0.748E-02    8.98       1.0  T
   3    -50.7340109 -0.150198E-05  0.102E-02    8.98       1.9  T
   4    -50.7340109 -0.811140E-07  0.233E-03    8.98       8.4  T
   5    -50.7340110 -0.110383E-07  0.926E-04    8.98      21.2  T
speedup  1.09
cpu  time for SCC    0.00 s
wall time for SCC    0.00 s
speedup  1.03
cpu  time for grad    0.01 s
wall time for grad    0.01 s
 E :    -50.44197430  G :  0.005264    pred/act E change: -0.314D-04 -0.475D-04
Maxdispl :   0.1077   ||displ|| :   0.1896   Lambda : -0.805D-04
Largest |displ|/coords:  0.1077 (   1)  0.1053 (   4)  0.0529 (   3)
................................................................................
.............................. CYCLE   51 ......................................
................................................................................
   1    -50.7333838 -0.507334E+02  0.828E-02    8.98       0.0  T
   2    -50.7333860 -0.215173E-05  0.618E-02    8.99       1.0  T
   3    -50.7333879 -0.189836E-05  0.101E-02    9.01       1.9  T
   4    -50.7333881 -0.257377E-06  0.372E-03    9.01       5.3  T
   5    -50.7333882 -0.199280E-07  0.111E-03    9.01      17.6  T
   6    -50.7333882 -0.199555E-08  0.703E-04    9.01      27.9  T
speedup  0.91
cpu  time for SCC    0.00 s
wall time for SCC    0.01 s
speedup  0.96
cpu  time for grad    0.01 s
wall time for grad    0.01 s
 E :    -50.44202117  G :  0.006960    pred/act E change: -0.384D-04 -0.469D-04
Maxdispl :   0.1810   ||displ|| :   0.3180   Lambda : -0.114D-03
Largest |displ|/coords:  0.1810 (   1)  0.1650 (   4)  0.0963 (   3)
................................................................................
.............................. CYCLE   52 ......................................
................................................................................
   1    -50.7310732 -0.507311E+02  0.149E-01    9.02       0.0  T
   2    -50.7310768 -0.357709E-05  0.112E-01    9.02       1.0  T
   3    -50.7310801 -0.331763E-05  0.112E-02    9.04       1.7  T
   4    -50.7310806 -0.449527E-06  0.406E-03    9.04       4.8  T
   5    -50.7310806 -0.197588E-07  0.154E-03    9.04      12.7  T
   6    -50.7310806 -0.389793E-08  0.864E-04    9.04      22.7  T
speedup  0.91
cpu  time for SCC    0.01 s
wall time for SCC    0.01 s
speedup  1.03
cpu  time for grad    0.01 s
wall time for grad    0.01 s
 E :    -50.44208577  G :  0.008808    pred/act E change: -0.417D-04 -0.646D-04
Maxdispl :   0.1894   ||displ|| :   0.3049   Lambda : -0.193D-03
Largest |displ|/coords:  0.1894 (   4)  0.1306 (   3)  0.0918 (   1)

generating ANC from model Hessian ...
 Shifting diagonal of input Hessian by   5.024638211010075E-003
 Lowest  eigenvalues of input Hessian
    0.005000   -0.000000   -0.000000   -0.000000   -0.000000    0.000000
    0.000000    0.005099    0.005253    0.005492    0.005509    0.005997
    0.006428    0.006507    0.007407    0.008229    0.008579    0.008786
 Highest eigenvalues
    1.397442    1.405473    1.412633    2.746892    3.283993    3.715212
 
cpu  time for ANC gen    0.01 s
wall time for ANC gen    0.02 s
................................................................................
.............................. CYCLE   53 ......................................
................................................................................
   1    -50.7322879 -0.507323E+02  0.980E-02    9.07       0.0  T
   2    -50.7322958 -0.789815E-05  0.724E-02    9.09       1.0  T
   3    -50.7322994 -0.359408E-05  0.181E-02    9.12       1.1  T
   4    -50.7323005 -0.109784E-05  0.464E-03    9.12       4.2  T
   5    -50.7323006 -0.362003E-07  0.195E-03    9.12      10.1  T
   6    -50.7323006 -0.630467E-08  0.966E-04    9.12      20.3  T
   7    -50.7323006 -0.160581E-08  0.313E-04    9.12      62.7  T
speedup  0.95
cpu  time for SCC    0.01 s
wall time for SCC    0.01 s
speedup  1.00
cpu  time for grad    0.01 s
wall time for grad    0.01 s
 E :    -50.44221162  G :  0.006348    pred/act E change:  0.000D+00 -0.126D-03
Maxdispl :   0.0473   ||displ|| :   0.1170   Lambda : -0.206D-03
Largest |displ|/coords:  0.0473 (   2)  0.0365 (   4)  0.0347 (   1)
................................................................................
.............................. CYCLE   54 ......................................
................................................................................
   1    -50.7329221 -0.507329E+02  0.116E-01    9.11       0.0  T
   2    -50.7329239 -0.176462E-05  0.876E-02    9.11       1.0  T
   3    -50.7329255 -0.162348E-05  0.976E-03    9.11       2.0  T
   4    -50.7329257 -0.204583E-06  0.272E-03    9.12       7.2  T
   5    -50.7329257 -0.746950E-08  0.926E-04    9.12      21.2  T
speedup  1.06
cpu  time for SCC    0.01 s
wall time for SCC    0.00 s
speedup  1.01
cpu  time for grad    0.01 s
wall time for grad    0.01 s
 E :    -50.44238228  G :  0.004247    pred/act E change:  0.000D+00 -0.171D-03
Maxdispl :   0.1628   ||displ|| :   0.3564   Lambda : -0.392D-03
Largest |displ|/coords:  0.1628 (   2)  0.1178 (   3)  0.1174 (   1)
................................................................................
.............................. CYCLE   55 ......................................
................................................................................
   1    -50.7311201 -0.507311E+02  0.319E-01    9.05       0.0  T
   2    -50.7311316 -0.114359E-04  0.240E-01    9.06       1.0  T
   3    -50.7311427 -0.111029E-04  0.260E-02    9.07       1.0  T
   4    -50.7311439 -0.126134E-05  0.765E-03    9.07       2.6  T
   5    -50.7311440 -0.634270E-07  0.299E-03    9.07       6.6  T
   6    -50.7311440 -0.787010E-08  0.134E-03    9.07      14.7  T
speedup  0.94
cpu  time for SCC    0.00 s
wall time for SCC    0.01 s
speedup  0.97
cpu  time for grad    0.01 s
wall time for grad    0.01 s
 E :    -50.44244579  G :  0.020461    pred/act E change: -0.104D-03 -0.635D-04
Maxdispl :   0.0530   ||displ|| :   0.1068   Lambda : -0.441D-03
Largest |displ|/coords:  0.0530 (   5)  0.0386 (  17)  0.0351 (  20)
................................................................................
.............................. CYCLE   56 ......................................
................................................................................
   1    -50.7337071 -0.507337E+02  0.125E-01    9.11       0.0  T
   2    -50.7337123 -0.526123E-05  0.942E-02    9.10       1.0  T
   3    -50.7337167 -0.439251E-05  0.127E-02    9.08       1.5  T
   4    -50.7337174 -0.694488E-06  0.361E-03    9.09       5.4  T
   5    -50.7337174 -0.156656E-07  0.168E-03    9.10      11.7  T
speedup  0.85
cpu  time for SCC    0.00 s
wall time for SCC    0.00 s
speedup  0.93
cpu  time for grad    0.01 s
wall time for grad    0.01 s
 E :    -50.44262346  G :  0.003723    pred/act E change: -0.221D-03 -0.178D-03
Maxdispl :   0.0607   ||displ|| :   0.1426   Lambda : -0.113D-03
Largest |displ|/coords:  0.0607 (   3)  0.0590 (   4)  0.0589 (   1)
................................................................................
.............................. CYCLE   57 ......................................
................................................................................
   1    -50.7335587 -0.507336E+02  0.879E-02    9.08       0.0  T
   2    -50.7335597 -0.107129E-05  0.661E-02    9.08       1.0  T
   3    -50.7335607 -0.995353E-06  0.845E-03    9.08       2.3  T
   4    -50.7335608 -0.121816E-06  0.222E-03    9.08       8.8  T
   5    -50.7335608 -0.556800E-08  0.722E-04    9.08      27.2  T
   6    -50.7335608 -0.501444E-09  0.402E-04    9.08      48.8  T
speedup  0.91
cpu  time for SCC    0.00 s
wall time for SCC    0.01 s
speedup  0.98
cpu  time for grad    0.01 s
wall time for grad    0.01 s
 E :    -50.44272786  G :  0.003889    pred/act E change: -0.223D-03 -0.104D-03
Maxdispl :   0.3247   ||displ|| :   0.7026   Lambda : -0.509D-03
Largest |displ|/coords:  0.3247 (   3)  0.3015 (   1)  0.2770 (   4)
................................................................................
.............................. CYCLE   58 ......................................
................................................................................
   1    -50.7275793 -0.507276E+02  0.436E-01    8.93       0.0  T
   2    -50.7276068 -0.275111E-04  0.327E-01    8.94       1.0  T
   3    -50.7276326 -0.258332E-04  0.404E-02    8.96       1.0  T
   4    -50.7276359 -0.328022E-05  0.116E-02    8.96       1.7  T
   5    -50.7276361 -0.151448E-06  0.430E-03    8.96       4.6  T
   6    -50.7276361 -0.196895E-07  0.215E-03    8.96       9.1  T
   7    -50.7276361 -0.682042E-08  0.489E-04    8.96      40.1  T
   8    -50.7276361 -0.902929E-09  0.186E-04    8.96     105.3  T
speedup  1.11
cpu  time for SCC    0.01 s
wall time for SCC    0.01 s
speedup  1.01
cpu  time for grad    0.02 s
wall time for grad    0.02 s
 E :    -50.44278638  G :  0.026077    pred/act E change: -0.576D-04 -0.585D-04
Maxdispl :   0.0719   ||displ|| :   0.1693   Lambda : -0.771D-03
Largest |displ|/coords:  0.0719 (   2)  0.0539 (  11)  0.0523 (   1)
................................................................................
.............................. CYCLE   59 ......................................
................................................................................
   1    -50.7329100 -0.507329E+02  0.157E-01    9.04       0.0  T
   2    -50.7329190 -0.905132E-05  0.118E-01    9.03       1.0  T
   3    -50.7329262 -0.724209E-05  0.189E-02    9.00       1.0  T
   4    -50.7329274 -0.114749E-05  0.535E-03    9.02       3.7  T
   5    -50.7329274 -0.509282E-07  0.227E-03    9.02       8.6  T
speedup  1.11
cpu  time for SCC    0.00 s
wall time for SCC    0.00 s
speedup  0.96
cpu  time for grad    0.01 s
wall time for grad    0.01 s
 E :    -50.44309587  G :  0.005087    pred/act E change: -0.380D-03 -0.309D-03
Maxdispl :   0.1363   ||displ|| :   0.2734   Lambda : -0.192D-03
Largest |displ|/coords:  0.1363 (   3)  0.1279 (   4)  0.1214 (   1)
................................................................................
.............................. CYCLE   60 ......................................
................................................................................
   1    -50.7326045 -0.507326E+02  0.129E-01    8.99       0.0  T
   2    -50.7326082 -0.369620E-05  0.966E-02    8.99       1.0  T
   3    -50.7326104 -0.221350E-05  0.146E-02    8.99       1.3  T
   4    -50.7326110 -0.645565E-06  0.378E-03    8.99       5.2  T
   5    -50.7326110 -0.165343E-07  0.135E-03    8.99      14.5  T
   6    -50.7326110 -0.217921E-08  0.715E-04    8.99      27.4  T
speedup  0.88
cpu  time for SCC    0.00 s
wall time for SCC    0.01 s
speedup  0.95
cpu  time for grad    0.01 s
wall time for grad    0.01 s
 E :    -50.44328450  G :  0.006096    pred/act E change: -0.397D-03 -0.189D-03
Maxdispl :   0.4430   ||displ|| :   0.9071   Lambda : -0.713D-03
Largest |displ|/coords:  0.4430 (   3)  0.4316 (   4)  0.4094 (   1)
................................................................................
.............................. CYCLE   61 ......................................
................................................................................
   1    -50.7264302 -0.507264E+02  0.438E-01    8.84       0.0  T
   2    -50.7264856 -0.554245E-04  0.329E-01    8.85       1.0  T
   3    -50.7265171 -0.314583E-04  0.525E-02    8.86       1.0  T
   4    -50.7265272 -0.101278E-04  0.145E-02    8.86       1.4  T
   5    -50.7265274 -0.237897E-06  0.518E-03    8.86       3.8  T
   6    -50.7265274 -0.305381E-07  0.261E-03    8.86       7.5  T
   7    -50.7265275 -0.152142E-07  0.766E-04    8.86      25.6  T
speedup  0.97
cpu  time for SCC    0.01 s
wall time for SCC    0.01 s
speedup  0.99
cpu  time for grad    0.01 s
wall time for grad    0.01 s
 E :    -50.44362522  G :  0.026477    pred/act E change: -0.103D-03 -0.341D-03
Maxdispl :   0.0540   ||displ|| :   0.1057   Lambda : -0.630D-03
Largest |displ|/coords:  0.0540 (   5)  0.0338 (   4)  0.0334 (   1)
................................................................................
.............................. CYCLE   62 ......................................
................................................................................
   1    -50.7301445 -0.507301E+02  0.685E-02    8.92       0.0  T
   2    -50.7301488 -0.433006E-05  0.510E-02    8.91       1.0  T
   3    -50.7301520 -0.320700E-05  0.121E-02    8.90       1.6  T
   4    -50.7301525 -0.485703E-06  0.324E-03    8.91       6.0  T
   5    -50.7301525 -0.192593E-07  0.130E-03    8.91      15.1  T
speedup  0.87
cpu  time for SCC    0.00 s
wall time for SCC    0.00 s
speedup  0.96
cpu  time for grad    0.01 s
wall time for grad    0.01 s
 E :    -50.44403263  G :  0.011625    pred/act E change: -0.650D-03 -0.407D-03
Maxdispl :   0.2938   ||displ|| :   0.5238   Lambda : -0.654D-03
Largest |displ|/coords:  0.2938 (   4)  0.2175 (   3)  0.2148 (   1)
................................................................................
.............................. CYCLE   63 ......................................
................................................................................
   1    -50.7322004 -0.507322E+02  0.198E-01    8.91       0.0  T
   2    -50.7322330 -0.326446E-04  0.148E-01    8.91       1.0  T
   3    -50.7322460 -0.130490E-04  0.360E-02    8.90       1.0  T
   4    -50.7322509 -0.486027E-05  0.115E-02    8.91       1.7  T
   5    -50.7322511 -0.206766E-06  0.327E-03    8.91       6.0  T
   6    -50.7322511 -0.173923E-07  0.182E-03    8.91      10.8  T
   7    -50.7322511 -0.627873E-08  0.609E-04    8.91      32.2  T
speedup  0.94
cpu  time for SCC    0.01 s
wall time for SCC    0.01 s
speedup  0.98
cpu  time for grad    0.01 s
wall time for grad    0.01 s
 E :    -50.44455078  G :  0.014851    pred/act E change: -0.318D-03 -0.518D-03
Maxdispl :   0.3918   ||displ|| :   0.7860   Lambda : -0.107D-02
Largest |displ|/coords:  0.3918 (   4)  0.3520 (   1)  0.3304 (   3)
................................................................................
.............................. CYCLE   64 ......................................
................................................................................
   1    -50.7271104 -0.507271E+02  0.365E-01    8.86       0.0  T
   2    -50.7272243 -0.113844E-03  0.274E-01    8.87       1.0  T
   3    -50.7272676 -0.433008E-04  0.666E-02    8.88       1.0  T
   4    -50.7272856 -0.179912E-04  0.210E-02    8.89       1.0  T
   5    -50.7272863 -0.726873E-06  0.578E-03    8.89       3.4  T
   6    -50.7272863 -0.526247E-07  0.323E-03    8.89       6.1  T
   7    -50.7272864 -0.204512E-07  0.109E-03    8.89      18.0  T
   8    -50.7272864 -0.232800E-08  0.234E-04    8.89      83.9  T
speedup  0.97
cpu  time for SCC    0.01 s
wall time for SCC    0.01 s
speedup  0.99
cpu  time for grad    0.01 s
wall time for grad    0.02 s
 E :    -50.44546635  G :  0.016983    pred/act E change: -0.416D-03 -0.916D-03
Maxdispl :   0.3161   ||displ|| :   0.5951   Lambda : -0.130D-02
Largest |displ|/coords:  0.3161 (   4)  0.1854 (   6)  0.1831 (   1)
................................................................................
.............................. CYCLE   65 ......................................
................................................................................
   1    -50.7258636 -0.507259E+02  0.339E-01    8.93       0.0  T
   2    -50.7260518 -0.188205E-03  0.252E-01    8.94       1.0  T
   3    -50.7261212 -0.693978E-04  0.824E-02    8.97       1.0  T
   4    -50.7261403 -0.190904E-04  0.274E-02    8.98       1.0  T
   5    -50.7261414 -0.105118E-05  0.627E-03    8.98       3.1  T
   6    -50.7261415 -0.818969E-07  0.347E-03    8.97       5.7  T
   7    -50.7261415 -0.241132E-07  0.131E-03    8.97      15.0  T
   8    -50.7261415 -0.254133E-08  0.270E-04    8.97      72.6  T
speedup  0.99
cpu  time for SCC    0.01 s
wall time for SCC    0.01 s
speedup  0.99
cpu  time for grad    0.01 s
wall time for grad    0.02 s
 E :    -50.44622995  G :  0.031745    pred/act E change: -0.866D-03 -0.764D-03
Maxdispl :   0.2022   ||displ|| :   0.3671   Lambda : -0.194D-02
Largest |displ|/coords:  0.2022 (   4)  0.1397 (   7)  0.1206 (   6)
[...]
................................................................................
.............................. CYCLE  129 ......................................
................................................................................
   1    -50.7367240 -0.507367E+02  0.180E-02    9.09       0.0  T
   2    -50.7367241 -0.418920E-07  0.136E-02    9.09       1.4  T
   3    -50.7367241 -0.552377E-07  0.108E-03    9.09      18.2  T
   4    -50.7367241 -0.182783E-08  0.331E-04    9.09      59.3  T
   5    -50.7367241 -0.133923E-09  0.131E-04    9.09     149.4  T
speedup  0.85
cpu  time for SCC    0.00 s
wall time for SCC    0.00 s
speedup  0.99
cpu  time for grad    0.01 s
wall time for grad    0.01 s
 E :    -50.45442473  G :  0.000641    pred/act E change: -0.788D-06 -0.945D-06
Maxdispl :   0.0272   ||displ|| :   0.0437   Lambda : -0.129D-05
Largest |displ|/coords:  0.0272 (   1)  0.0202 (   3)  0.0197 (   6)
................................................................................
.............................. CYCLE  130 ......................................
................................................................................
   1    -50.7366740 -0.507367E+02  0.214E-02    9.10       0.0  T
   2    -50.7366741 -0.592558E-07  0.162E-02    9.09       1.2  T
   3    -50.7366742 -0.752126E-07  0.114E-03    9.09      17.2  T
   4    -50.7366742 -0.324221E-08  0.506E-04    9.09      38.8  T
   5    -50.7366742 -0.240213E-09  0.161E-04    9.09     121.8  T
speedup  1.06
cpu  time for SCC    0.01 s
wall time for SCC    0.00 s
speedup  0.99
cpu  time for grad    0.01 s
wall time for grad    0.01 s
 E :    -50.45442567  G :  0.000609    pred/act E change: -0.652D-06 -0.938D-06
Maxdispl :   0.0328   ||displ|| :   0.0476   Lambda : -0.133D-05
Largest |displ|/coords:  0.0328 (   1)  0.0232 (   6)  0.0196 (   3)
................................................................................
.............................. CYCLE  131 ......................................
................................................................................
   1    -50.7365990 -0.507366E+02  0.226E-02    9.10       0.0  T
   2    -50.7365991 -0.675309E-07  0.171E-02    9.10       1.1  T
   3    -50.7365992 -0.807757E-07  0.121E-03    9.09      16.2  T
   4    -50.7365992 -0.507890E-08  0.631E-04    9.09      31.1  T
   5    -50.7365992 -0.403624E-09  0.175E-04    9.09     111.8  T
speedup  0.91
cpu  time for SCC    0.00 s
wall time for SCC    0.00 s
speedup  1.01
cpu  time for grad    0.01 s
wall time for grad    0.01 s
 E :    -50.45442661  G :  0.000542    pred/act E change: -0.648D-06 -0.945D-06
Maxdispl :   0.0285   ||displ|| :   0.0420   Lambda : -0.114D-05
Largest |displ|/coords:  0.0285 (   1)  0.0204 (   6)  0.0188 (   3)
................................................................................
.............................. CYCLE  132 ......................................
................................................................................
   1    -50.7365225 -0.507365E+02  0.194E-02    9.10       0.0  T
   2    -50.7365226 -0.522786E-07  0.147E-02    9.09       1.3  T
   3    -50.7365226 -0.561086E-07  0.117E-03    9.09      16.8  T
   4    -50.7365226 -0.525941E-08  0.542E-04    9.09      36.2  T
   5    -50.7365226 -0.315367E-09  0.138E-04    9.09     142.0  T
speedup  0.87
cpu  time for SCC    0.00 s
wall time for SCC    0.00 s
speedup  1.00
cpu  time for grad    0.01 s
wall time for grad    0.01 s
 E :    -50.45442744  G :  0.000543    pred/act E change: -0.664D-06 -0.834D-06
Maxdispl :   0.0235   ||displ|| :   0.0371   Lambda : -0.106D-05
Largest |displ|/coords:  0.0235 (   1)  0.0184 (   6)  0.0177 (   3)
................................................................................
.............................. CYCLE  133 ......................................
................................................................................
   1    -50.7365091 -0.507365E+02  0.159E-02    9.10       0.0  T
   2    -50.7365092 -0.348258E-07  0.120E-02    9.09       1.6  T
   3    -50.7365092 -0.374832E-07  0.104E-03    9.09      18.8  T
   4    -50.7365092 -0.354316E-08  0.428E-04    9.09      45.8  T
   5    -50.7365092 -0.193289E-09  0.911E-05    9.09     215.2  T
speedup  1.11
cpu  time for SCC    0.00 s
wall time for SCC    0.00 s
speedup  1.01
cpu  time for grad    0.01 s
wall time for grad    0.01 s
 E :    -50.45442820  G :  0.000557    pred/act E change: -0.570D-06 -0.756D-06
Maxdispl :   0.0244   ||displ|| :   0.0415   Lambda : -0.812D-06
Largest |displ|/coords:  0.0244 (   3)  0.0213 (   1)  0.0195 (   6)
................................................................................
.............................. CYCLE  134 ......................................
................................................................................
   1    -50.7364959 -0.507365E+02  0.174E-02    9.10       0.0  T
   2    -50.7364959 -0.393388E-07  0.132E-02    9.10       1.5  T
   3    -50.7364960 -0.464361E-07  0.104E-03    9.09      18.8  T
   4    -50.7364960 -0.280850E-08  0.462E-04    9.10      42.5  T
   5    -50.7364960 -0.199378E-09  0.122E-04    9.10     160.6  T
speedup  1.09
cpu  time for SCC    0.00 s
wall time for SCC    0.00 s
speedup  1.00
cpu  time for grad    0.01 s
wall time for grad    0.01 s
 E :    -50.45442878  G :  0.000566    pred/act E change: -0.533D-06 -0.578D-06
Maxdispl :   0.0208   ||displ|| :   0.0364   Lambda : -0.795D-06
Largest |displ|/coords:  0.0208 (   1)  0.0204 (   3)  0.0161 (   6)
................................................................................
.............................. CYCLE  135 ......................................
................................................................................
   1    -50.7366209 -0.507366E+02  0.147E-02    9.10       0.0  T
   2    -50.7366209 -0.284013E-07  0.111E-02    9.10       1.8  T
   3    -50.7366209 -0.321101E-07  0.864E-04    9.10      22.7  T
   4    -50.7366209 -0.236184E-08  0.396E-04    9.10      49.5  T
speedup  1.11
cpu  time for SCC    0.00 s
wall time for SCC    0.00 s
speedup  1.00
cpu  time for grad    0.01 s
wall time for grad    0.01 s
 E :    -50.45442925  G :  0.000417    pred/act E change: -0.406D-06 -0.471D-06
Maxdispl :   0.0255   ||displ|| :   0.0416   Lambda : -0.516D-06
Largest |displ|/coords:  0.0255 (   3)  0.0210 (   2)  0.0156 (   6)
................................................................................
.............................. CYCLE  136 ......................................
................................................................................
   1    -50.7365887 -0.507366E+02  0.177E-02    9.10       0.0  T
   2    -50.7365888 -0.372466E-07  0.134E-02    9.10       1.5  T
   3    -50.7365888 -0.458703E-07  0.977E-04    9.10      20.1  T
   4    -50.7365888 -0.205496E-08  0.465E-04    9.10      42.2  T
speedup  1.11
cpu  time for SCC    0.00 s
wall time for SCC    0.00 s
speedup  1.00
cpu  time for grad    0.01 s
wall time for grad    0.01 s
 E :    -50.45442954  G :  0.000312    pred/act E change: -0.398D-06 -0.287D-06
Maxdispl :   0.0023   ||displ|| :   0.0045   Lambda : -0.249D-06
Largest |displ|/coords:  0.0023 (   6)  0.0016 (   7)  0.0015 (  19)
................................................................................
.............................. CYCLE  137 ......................................
................................................................................
   1    -50.7366676 -0.507367E+02  0.313E-03    9.10       0.0  T
   2    -50.7366676 -0.213664E-08  0.236E-03    9.10       8.3  T
   3    -50.7366676 -0.188461E-08  0.290E-04    9.10      67.7  T
   4    -50.7366676 -0.227082E-09  0.102E-04    9.10     191.5  T
speedup  1.11
cpu  time for SCC    0.00 s
wall time for SCC    0.00 s
speedup  1.00
cpu  time for grad    0.01 s
wall time for grad    0.01 s
 E :    -50.45442971  G :  0.000164    pred/act E change: -0.258D-06 -0.169D-06
Maxdispl :   0.0109   ||displ|| :   0.0174   Lambda : -0.151D-06
Largest |displ|/coords:  0.0109 (   3)  0.0102 (   1)  0.0054 (   6)
................................................................................
.............................. CYCLE  138 ......................................
................................................................................
   1    -50.7366641 -0.507367E+02  0.768E-03    9.10       0.0  T
   2    -50.7366641 -0.679718E-08  0.581E-03    9.10       3.4  T
   3    -50.7366641 -0.898574E-08  0.392E-04    9.10      50.1  T
   4    -50.7366641 -0.287159E-09  0.124E-04    9.10     158.2  T
speedup  1.11
cpu  time for SCC    0.00 s
wall time for SCC    0.00 s
speedup  1.00
cpu  time for grad    0.01 s
wall time for grad    0.01 s
 E :    -50.45442978  G :  0.000197    pred/act E change: -0.125D-06 -0.729D-07
Maxdispl :   0.0026   ||displ|| :   0.0042   Lambda : -0.728D-07
Largest |displ|/coords:  0.0026 (   6)  0.0013 (   2)  0.0013 (   5)

   *** GEOMETRY OPTIMIZATION CONVERGED AFTER 138 ITERATIONS ***

------------------------------------------------------------------------
 total energy gain (kcal):     -0.0401
------------------------------------------------------------------------
================
 final structure:
================
$coord
       -0.91432765608201        0.89353386934393        1.34941863474770      S 
       -0.76413275590247        2.77628553483370        3.37402478686852      O 
       -2.14482336991011       -1.41553815919887        2.21359106351633      O 
        1.61773057704029        0.36221997483434        0.36275011532054      O 
       -2.56489233163271        1.93990002829486       -0.80525654700848      O 
       -1.54454456782642        3.19618320007513       -1.81771839865960      H 
        3.53827526857059        0.46587172674763        2.93255681018809      H 
       -2.91784930351301       -4.17826354613583       -1.95863854954988      O 
       -2.80993300550699       -3.08740376149527       -0.47067139545069      H 
       -3.02090031539208       -5.87328480116865       -1.32614465864619      H 
       -0.14093914855110        4.91759371238884       -3.73356216875398      O 
       -0.02285031576238        3.61323606045551       -5.09236032232938      H 
       -1.24121216443448        6.21259371318212       -4.36664242271297      H 
       -0.43771945053711        1.18122756599297       -6.95637917935803      O 
       -2.16698806777449        0.63537093042539       -6.90681476096928      H 
        0.51020252684983       -0.15599834687409       -6.03711491854808      H 
        0.47233269752152       -2.98594294657064        6.14664030755085      O 
       -0.69250973988976       -2.98228088176216        7.53533325487569      H 
       -0.55504279416397       -2.60181803647631        4.63529856536545      H 
        1.46555981850763       -2.31669120272788       -3.98167484768495      O 
        1.81578886911967       -1.32046591407795       -2.47430693039185      H 
       -0.07424522764001       -3.23762383846989       -3.56408439407622      H 
        3.34004232403210        0.90041064206970        4.85469677409349      N 
        2.66270601359400       -0.73329144072422        5.75205237350315      H 
        1.69949867561040        2.11573687145755        4.66783196984000      H 
        4.89077348130401        1.67843900781148        5.66717481934282      H 
$end
 
 Bond Distances (Angstroems)
 ---------------------------
S1-O2=1.4652         S1-O3=1.4581         S1-O4=1.4653         S1-O5=1.5393         O2-S1=1.4652         O3-S1=1.4581         
O4-S1=1.4653         O5-S1=1.5393         O5-H6=1.0102         H6-O5=1.0102         H7-N23=1.0481        O8-H9=0.9780         
O8-H10=0.9589        H9-O8=0.9780         H10-O8=0.9589        O11-H12=0.9987       O11-H13=0.9596       H12-O11=0.9987       
H13-O11=0.9596       O14-H15=0.9600       O14-H16=0.9945       H15-O14=0.9600       H16-O14=0.9945       O17-H18=0.9592       
O17-H19=0.9882       H18-O17=0.9592       H19-O17=0.9882       O20-H21=0.9739       O20-H22=0.9748       H21-O20=0.9739       
H22-O20=0.9748       N23-H7=1.0481        N23-H24=1.0495       N23-H25=1.0849       N23-H26=1.0138       H24-N23=1.0495       
H25-N23=1.0849       H26-N23=1.0138       
 N  H  Rav=1.0491 sigma=0.0252  Rmin=1.0138  Rmax=1.0849     4
 O  H  Rav=0.9778 sigma=0.0172  Rmin=0.9589  Rmax=1.0102    11
 S  O  Rav=1.4820 sigma=0.0332  Rmin=1.4581  Rmax=1.5393     4
 
 selected bond angles (degree)
 --------------------
O3-S1-O2=111.39                O4-S1-O2=109.96                O4-S1-O3=111.06                O5-S1-O2=109.14                
O5-S1-O3=106.28                O5-S1-O4=108.90                H6-O5-S1=109.04                H10-O8-H9=105.93               
 
 selected dihedral angles (degree)
 ---------------------------------
H6-O5-S1-O2= 77.35            H6-O5-S1-O3=197.58            H6-O5-S1-O4=317.29            
 
 CMA Distance (Angstroems)
 ---------------------------
R(CMA):  1.5112

========================================================================
 FINAL SINGLEPOINT CALCULATION ON OPTIMIZED GEOMETRY
========================================================================

 Ncao       : 65
 Nao        : 64
 Nshell     : 38
 Nel        : 80
 T(el)      :   300.0
 intcut     :    25.0
 scfconv/Eh :  0.100E-05
   qconv/e  :  0.100E-03
 intneglect :  0.100E-07
 broydamp   :      0.250
 iter      E             dE          RMSdq      gap      omega  full diag
   1    -50.7366641 -0.507367E+02  0.441E-05    9.10       0.0  T
   2    -50.7366641 -0.269296E-11  0.295E-05    9.10     665.9  T
   3    -50.7366641 -0.144951E-11  0.781E-06    9.10    2511.0  T
speedup  0.74
cpu  time for SCC    0.00 s
wall time for SCC    0.00 s

   *** convergence criteria satisfied after 3 iterations ***

          eigenvalues
 #    :          28         29         30         31         32         33         34         35
 occ. :        2.000      2.000      2.000      2.000      2.000      2.000      2.000      2.000
 eps  :       -13.154    -13.110    -12.533    -12.467    -12.255    -12.143    -12.075    -11.886
 #    :          36         37         38         39         40         41         42         43
 occ. :        2.000      2.000      2.000      2.000      2.000      0.000      0.000      0.000
 eps  :       -11.787    -11.677    -11.644    -11.577    -11.199     -2.100     -0.792      0.019
 #    :          44         45         46         47         48         49         50         51
 occ. :        0.000      0.000      0.000      0.000      0.000      0.000      0.000      0.000
 eps  :         0.787      1.014      1.381      2.283      2.527      3.676      4.036      5.198


   #   Z            q   n(s)   n(p)   n(d)      C6AA      α(0)
   1  16 S      1.692  1.588  1.779  0.941    88.959    15.874
   2   8 O     -0.743  1.773  4.970  0.000    29.890     7.331
   3   8 O     -0.751  1.773  4.978  0.000    30.132     7.360
   4   8 O     -0.770  1.775  4.995  0.000    30.691     7.428
   5   8 O     -0.617  1.752  4.864  0.000    25.565     6.826
   6   1 H      0.388  0.612  0.000  0.000     0.504     1.114
   7   1 H      0.287  0.713  0.000  0.000     0.753     1.360
   8   8 O     -0.610  1.743  4.867  0.000    25.434     6.807
   9   1 H      0.316  0.684  0.000  0.000     0.675     1.290
  10   1 H      0.284  0.716  0.000  0.000     0.770     1.379
  11   8 O     -0.610  1.761  4.849  0.000    25.432     6.806
  12   1 H      0.348  0.652  0.000  0.000     0.593     1.210
  13   1 H      0.293  0.707  0.000  0.000     0.743     1.354
  14   8 O     -0.618  1.757  4.861  0.000    25.619     6.831
  15   1 H      0.286  0.714  0.000  0.000     0.766     1.375
  16   1 H      0.337  0.663  0.000  0.000     0.619     1.236
  17   8 O     -0.611  1.742  4.869  0.000    25.449     6.809
  18   1 H      0.292  0.708  0.000  0.000     0.745     1.356
  19   1 H      0.329  0.671  0.000  0.000     0.639     1.256
  20   8 O     -0.627  1.755  4.871  0.000    25.836     6.860
  21   1 H      0.310  0.690  0.000  0.000     0.691     1.306
  22   1 H      0.314  0.686  0.000  0.000     0.680     1.296
  23   7 N     -0.353  1.268  4.085  0.000    29.063     8.007
  24   1 H      0.290  0.710  0.000  0.000     0.744     1.351
  25   1 H      0.303  0.697  0.000  0.000     0.704     1.314
  26   1 H      0.239  0.761  0.000  0.000     0.925     1.507

 Mol. C6AA /au·bohr⁶  :       5455.839259
 Mol. C8AA /au·bohr⁸  :     118060.220284
 Mol. α(0) /au        :        106.640222

 
 Wiberg/Mayer (AO) data. WBOs > 0.1 written file <wbo>
 largest (>0.05) Wiberg bond orders for each atom
           total WBO             WBO to atom ...
     1  S   4.827    O    3 1.277    O    2 1.258    O    4 1.251    O    5 1.000
     2  O   1.744    S    1 1.258    H   25 0.139    O    4 0.104    O    3 0.103    O    5 0.077    N   23 0.057
     3  O   1.732    S    1 1.277    O    4 0.104    O    2 0.103    H   19 0.069    O    5 0.067    H    9 0.053
     4  O   1.702    S    1 1.251    O    3 0.104    O    2 0.104    O    5 0.080    H    7 0.067
     5  O   1.975    S    1 1.000    H    6 0.695    O    4 0.080    O    2 0.077    O    3 0.067
     6  H   0.849    O    5 0.695    O   11 0.137
     7  H   0.918    N   23 0.841    O    4 0.067
     8  O   1.854    H   10 0.916    H    9 0.844
     9  H   0.900    O    8 0.844    O    3 0.053
    10  H   0.919    O    8 0.916
    11  O   1.929    H   13 0.912    H   12 0.785    H    6 0.137
    12  H   0.879    O   11 0.785    O   14 0.092
    13  H   0.914    O   11 0.912
    14  O   1.890    H   15 0.916    H   16 0.800    H   12 0.092
    15  H   0.918    O   14 0.916
    16  H   0.886    O   14 0.800    O   20 0.086
    17  O   1.890    H   18 0.910    H   19 0.818    H   24 0.084
    18  H   0.915    O   17 0.910
    19  H   0.891    O   17 0.818    O    3 0.069
    20  O   1.886    H   21 0.857    H   22 0.855    H   16 0.086
    21  H   0.904    O   20 0.857
    22  H   0.901    O   20 0.855
    23  N   3.513    H   26 0.937    H    7 0.841    H   24 0.827    H   25 0.758    O    2 0.057
    24  H   0.916    N   23 0.827    O   17 0.084
    25  H   0.908    N   23 0.758    O    2 0.139
    26  H   0.943    N   23 0.937
 MOs/occ written to file <molden.input>
 
molecular dipole:
                 x           y           z       tot (Debye)
 q only:        1.185       0.423       1.963
   full:        0.491       0.418       2.118       5.627
molecular quadrupole (traceless):
                xx          xy          yy          xz          yz          zz
 q only:       -1.206       3.450      -4.409      18.642      -4.287       5.614
  q+dip:       -0.279       4.097      -2.184      18.536      -5.806       2.463
   full:       -0.428       4.152      -2.288      18.841      -5.971       2.717

SCC energy    :     -50.7366641
rep           :       0.2820286
ES            :       0.2715352
AES           :      -0.0744119
AXC           :      -0.0092881
disp          :      -0.0188346
XB            :       0.0000000
fix           :       0.0000000
total E       :     -50.4544298
atomizationE  :       4.9847339     3127.97
(atE without considering molecular charge,
 total energy contains solvation terms)
H-L gap (eV)  :          9.0992
optimized geometry written to: xtbopt.xyz


------------------------------------------------------------------------
 * finished run on 2019/09/16 at 12:35:40.693     
------------------------------------------------------------------------
 total:
 * wall-time:     0 d,  0 h,  0 min,  3.368 sec
 *  cpu-time:     0 d,  0 h,  0 min,  2.993 sec
 * ratio c/w:     0.889 speedup
 SCF:
 * wall-time:     0 d,  0 h,  0 min,  0.159 sec
 *  cpu-time:     0 d,  0 h,  0 min,  0.155 sec
 * ratio c/w:     0.974 speedup
 ANC optimizer:
 * wall-time:     0 d,  0 h,  0 min,  3.182 sec
 *  cpu-time:     0 d,  0 h,  0 min,  2.814 sec
 * ratio c/w:     0.884 speedup

