      -----------------------------------------------------------      
     |                   =====================                   |     
     |                           x T B                           |     
     |                   =====================                   |     
     |                         S. Grimme                         |     
     |          Mulliken Center for Theoretical Chemistry        |     
     |                    University of Bonn                     |     
     |                 Version 6.0.1 (SAW181210)                 |     
      -----------------------------------------------------------      

   This program is distributed in the hope that it will be useful,
   but WITHOUT ANY WARRANTY; without even the implied warranty of
   MERCHANTABILITY or FITNESS FOR A PARTICULAR PURPOSE.
   
   FOR NON-COMMERCIAL, ACADEMIA USE ONLY.
   
   Cite this work as:
   S. Grimme, C. Bannwarth, P. Shushkov, J. Comput. Theory Chem., 2017,
   13, 1989-2009.
   C. Bannwarth, S. Ehlert and S. Grimme., ChemRxiv, 2018, preprint.
   http://doi.org/10.26434/chemrxiv.7246238.v1
   
   for sTDA-xTB:
   S. Grimme and C. Bannwarth, J. Chem. Phys., 2016, 145, 054103.
   
   in the mass-spec context:
   V. Asgeirsson, C. Bauer and S. Grimme, Chem. Sci., 2017, 8, 4879.
   
   if GBSA is used:
   P. Shushkov, F. März and S. Grimme, unpublished.
   
   for ANC optimizer:
   S. Grimme, unpublished.
   Rational Function algorithm used in ANCopt:
   F. Eckert, P. Pulay, H.-J. Werner, J. Comput. Chem., 1997, 18, 1473.
   
   with help from (in alphabetical order)
   C. Bannwarth, F. Bohle, G. Brandenburg, E. Caldeweyher, M. Checinski,
   S. Dohm, S. Ehlert, S. Ehrlich, F. März, H. Neugebauer, J. Pisarek,
   P. Pracht, P. Shushkov, and S. Spicher.
   
 * started run on 2019/09/16 at 12:25:23.676     
========================================================================
 # omp threads = 1
========================================================================
number of atoms            : 26
number of electrons        : 80
charge                     : 0
spin                       : .0
first test random number   : .5087

########################################################################
# WARNING! Please study the warnings concerning your input carefully
#  - XTBPATH is not set, using XTBHOME instead
#  - the use of '-opt' is discouraged, please use '--opt' next time
#  - the use of '-chrg' is discouraged, please use '--chrg' next time
#  - the use of '-uhf' is discouraged, please use '--uhf' next time
########################################################################

           ------------------------------------------------- 
          |                 G F N 2 - x T B                 |
          | Geometry, Frequencies, Noncovalent interactions |
          |            JCTC 2018 parametrisation            |
           ------------------------------------------------- 
      method parameters     
 k(s)        :  1.8500
 k(p)        :  2.2300
 k(d)        :  2.2300
 k(f)        :  2.0000
 kEN (H0ij)  : -2.0000
 D4 a1       :  0.5200
 D4 a2       :  5.0000
 D4 s6       :  1.0000
 D4 s8       :  2.7000
 D4 s9       :  5.0000
 alphaj      :  2.0000


            Z     q(EN)     CN     RAES       Cart. coordinates
     1  S   6.0    0.64    4.28    4.20     0.05206    -0.81994    -2.91137
     2  O   6.0   -0.32    1.24    1.80     0.15503    -3.50201    -2.06047
     3  O   6.0   -0.32    1.22    1.80    -1.95142     0.54333    -1.47760
     4  O   6.0   -0.31    1.21    1.80     2.54185     0.40920    -2.44416
     5  O   6.0   -0.25    2.10    1.84    -0.52916    -0.73152    -5.62557
     6  H   1.0    0.15    1.28    1.49    -2.13324    -1.52327    -5.92748
     7  O   6.0   -0.36    1.51    1.80     1.37495     6.13223     2.47313
     8  H   1.0    0.18    0.94    1.42     1.35303     7.99743     2.53855
     9  O   6.0   -0.39    1.69    1.81     1.95232    -0.40728     4.31551
    10  H   1.0    0.17    0.95    1.42     2.28774    -0.28371     6.14744
    11  O   6.0   -0.22    2.90    2.54     1.74789    -4.53224     2.42979
    12  H   1.0    0.16    1.21    1.47     1.73836    -2.89642     3.33192
    13  H   1.0    0.16    1.08    1.44     0.96402    -4.40413     0.73889
    14  H   1.0    0.12    0.96    1.42     3.45947    -5.27783     2.35187
    15  O   6.0   -0.23    2.94    2.63    -1.33870     2.55876     2.98724
    16  H   1.0    0.16    1.15    1.45    -0.23469     1.27406     3.77499
    17  H   1.0    0.16    1.20    1.46    -0.50641     4.22797     2.88213
    18  H   1.0    0.15    1.05    1.44    -1.99138     1.99769     1.32872
    19  O   6.0   -0.23    2.94    2.64     4.12879     2.65500     1.63989
    20  H   1.0    0.16    1.15    1.45     3.57280     1.36829     2.87484
    21  H   1.0    0.16    1.04    1.44     3.92710     2.06789    -0.12210
    22  H   1.0    0.16    1.20    1.46     3.29814     4.30408     1.92637
    23  N   5.0   -0.22    3.01    1.93    -5.46289    -2.66888    -5.51480
    24  H   1.0    0.11    0.99    1.43    -5.87363    -1.60811    -3.96009
    25  H   1.0    0.11    0.99    1.43    -5.61706    -4.50455    -4.95125
    26  H   1.0    0.10    0.99    1.43    -6.91496    -2.37605    -6.74639

  Z AO/shell   Hii/eV     exponent
  1     Wed Apr 25 08:07:45 CEST 2018   EN: 2.200 GM2: 0.406  GM3: 0.0800  RAES: 1.40
     1s    -10.707211    1.230000
  7     Wed Apr 25 08:07:45 CEST 2018   EN: 3.040 GM2: 0.461  GM3:-0.0640  RAES: 1.90
     2s    -16.686243    2.339881
     2p    -12.523956    2.014332
  8     Wed Apr 25 08:07:45 CEST 2018   EN: 3.440 GM2: 0.452  GM3:-0.0517  RAES: 1.80
     2s    -20.229985    2.439742
     2p    -15.503117    2.137023
 16     Tue Apr 24 11:44:34 CEST 2018   EN: 2.580 GM2: 0.340  GM3:-0.0502  RAES: 3.10
     3s    -20.029654    1.981333
     3p    -11.377694    2.025643
     3d     -0.420282    1.702555
 no old-style atom pair restraining (fixing) potential

molecular fragmentation (1/2 indicates fragments):
11111122222222222222222222
# atoms in fragment 1/2:     6    20
 fragment masses (1/2) :       97.07      108.11
CMA distance (Bohr)    :   4.636
constraining FC (au)   :  0.0500
           ------------------------------------------------- 
          |        Self-Consistent Charge Iterations        |
           ------------------------------------------------- 

 Ncao       : 65
 Nao        : 64
 Nshell     : 38
 Nel        : 80
 T(el)      :   300.0
 intcut     :    25.0
 scfconv/Eh :  0.100E-05
   qconv/e  :  0.100E-03
 intneglect :  0.100E-07
 broydamp   :      0.250
 iter      E             dE          RMSdq      gap      omega  full diag
   1    -50.5182301 -0.505182E+02  0.707E+00   10.06       0.0  T
   2    -50.5664286 -0.481985E-01  0.510E+00    9.39       1.0  T
   3    -50.6048664 -0.384378E-01  0.132E+00    5.87       1.0  T
   4    -50.6101367 -0.527034E-02  0.583E-01    6.23       1.0  T
   5    -50.6107980 -0.661209E-03  0.314E-01    6.18       1.0  T
   6    -50.6112338 -0.435809E-03  0.137E-01    6.31       1.0  T
   7    -50.6113381 -0.104290E-03  0.475E-02    6.34       1.0  T
   8    -50.6113480 -0.994653E-05  0.313E-02    6.33       1.0  T
   9    -50.6113542 -0.617903E-05  0.106E-02    6.35       1.9  T
  10    -50.6113548 -0.658262E-06  0.218E-03    6.35       9.0  T
  11    -50.6113549 -0.167362E-07  0.118E-03    6.35      16.6  T
  12    -50.6113549 -0.454479E-08  0.487E-04    6.35      40.2  T
  13    -50.6113549 -0.130293E-08  0.158E-04    6.35     123.9  T
speedup  1.03
cpu  time for SCC    0.01 s
wall time for SCC    0.01 s

   *** convergence criteria satisfied after 13 iterations ***

          eigenvalues
 #    :          28         29         30         31         32         33         34         35
 occ. :        2.000      2.000      2.000      2.000      2.000      2.000      2.000      2.000
 eps  :       -12.630    -11.822    -11.617    -11.503    -11.345    -11.210    -11.187    -11.053
 #    :          36         37         38         39         40         41         42         43
 occ. :        2.000      2.000      2.000      2.000      2.000      0.000      0.000      0.000
 eps  :       -11.000    -10.943    -10.733     -8.720     -8.236     -1.884     -0.798      0.186
 #    :          44         45         46         47         48         49         50         51
 occ. :        0.000      0.000      0.000      0.000      0.000      0.000      0.000      0.000
 eps  :         0.791      1.096      1.252      1.734      3.319      3.713      4.835      4.978


   #   Z            q   n(s)   n(p)   n(d)      C6AA      α(0)
   1  16 S      1.598  1.586  1.838  0.977    91.109    16.065
   2   8 O     -0.772  1.772  5.001  0.000    30.752     7.435
   3   8 O     -0.763  1.771  4.992  0.000    30.482     7.402
   4   8 O     -0.734  1.762  4.972  0.000    29.655     7.301
   5   8 O     -0.557  1.718  4.839  0.000    24.150     6.634
   6   1 H      0.372  0.628  0.000  0.000     0.532     1.141
   7   8 O     -0.896  1.813  5.082  0.000    34.571     7.885
   8   1 H      0.176  0.824  0.000  0.000     1.250     1.757
   9   8 O     -0.838  1.829  5.009  0.000    32.701     7.669
  10   1 H      0.223  0.777  0.000  0.000     1.007     1.577
  11   8 O     -0.426  1.655  4.771  0.000    21.299     6.233
  12   1 H      0.410  0.590  0.000  0.000     0.461     1.063
  13   1 H      0.410  0.590  0.000  0.000     0.466     1.073
  14   1 H      0.365  0.635  0.000  0.000     0.555     1.171
  15   8 O     -0.482  1.667  4.814  0.000    22.439     6.398
  16   1 H      0.387  0.613  0.000  0.000     0.507     1.117
  17   1 H      0.405  0.595  0.000  0.000     0.470     1.074
  18   1 H      0.384  0.616  0.000  0.000     0.516     1.129
  19   8 O     -0.480  1.667  4.814  0.000    22.413     6.394
  20   1 H      0.388  0.612  0.000  0.000     0.504     1.113
  21   1 H      0.386  0.614  0.000  0.000     0.511     1.124
  22   1 H      0.405  0.595  0.000  0.000     0.470     1.074
  23   7 N     -0.447  1.394  4.053  0.000    31.743     8.367
  24   1 H      0.171  0.829  0.000  0.000     1.267     1.763
  25   1 H      0.159  0.841  0.000  0.000     1.344     1.816
  26   1 H      0.158  0.842  0.000  0.000     1.351     1.821

 Mol. C6AA /au·bohr⁶  :       5561.639275
 Mol. C8AA /au·bohr⁸  :     120443.526962
 Mol. α(0) /au        :        107.596006

 
 Wiberg/Mayer (AO) data. WBOs > 0.1 written file <wbo>
 largest (>0.05) Wiberg bond orders for each atom
           total WBO             WBO to atom ...
     1  S   4.913    O    4 1.322    O    3 1.276    O    2 1.246    O    5 1.029
     2  O   1.685    S    1 1.246    O    4 0.110    O    3 0.109    H   13 0.108    O    5 0.070
     3  O   1.675    S    1 1.276    O    4 0.115    O    2 0.109    O    5 0.074    H   18 0.071
     4  O   1.704    S    1 1.322    O    3 0.115    O    2 0.110    H   21 0.066    O    5 0.057
     5  O   2.047    S    1 1.029    H    6 0.783    O    3 0.074    O    2 0.070    O    4 0.057
     6  H   0.861    O    5 0.783    N   23 0.058
     7  O   1.453    H    8 0.943    H   22 0.191    H   17 0.190    O   19 0.057    O   15 0.057
     8  H   0.969    O    7 0.943
     9  O   1.658    H   10 0.945    H   12 0.213    H   16 0.155    H   20 0.154    O   11 0.065    O   15 0.055    O   19 0.053
    10  H   0.950    O    9 0.945
    11  O   2.301    H   14 0.859    H   13 0.714    H   12 0.614    O    9 0.065
    12  H   0.832    O   11 0.614    O    9 0.213
    13  H   0.832    O   11 0.714    O    2 0.108
    14  H   0.867    O   11 0.859
    15  O   2.261    H   18 0.772    H   16 0.691    H   17 0.639    O    7 0.057    O    9 0.055
    16  H   0.851    O   15 0.691    O    9 0.155
    17  H   0.836    O   15 0.639    O    7 0.190
    18  H   0.853    O   15 0.772    O    3 0.071
    19  O   2.262    H   21 0.776    H   20 0.690    H   22 0.639    O    7 0.057    O    9 0.053
    20  H   0.849    O   19 0.690    O    9 0.154
    21  H   0.851    O   19 0.776    O    4 0.066
    22  H   0.836    O   19 0.639    O    7 0.191
    23  N   2.995    H   25 0.973    H   26 0.972    H   24 0.967    H    6 0.058
    24  H   0.971    N   23 0.967
    25  H   0.975    N   23 0.973
    26  H   0.975    N   23 0.972
 MOs/occ written to file <molden.input>
 
molecular dipole:
                 x           y           z       tot (Debye)
 q only:       -0.107      -2.910       0.966
   full:       -0.581      -2.878       0.538       7.587
molecular quadrupole (traceless):
                xx          xy          yy          xz          yz          zz
 q only:        9.451      -6.717      -8.494      12.339      -9.009      -0.958
  q+dip:        9.864      -5.114      -8.225      16.912      -6.782      -1.640
   full:        9.337      -5.182      -7.977      17.340      -6.671      -1.359

SCC energy    :     -50.6113549
rep           :       0.2758987
ES            :       0.3232123
AES           :      -0.0639815
AXC           :      -0.0075672
disp          :      -0.0180717
XB            :       0.0000000
fix           :       0.0000000
total E       :     -50.3352694
atomizationE  :       4.8655736     3053.19
(atE without considering molecular charge,
 total energy contains solvation terms)
H-L gap (eV)  :          6.3518
           ------------------------------------------------- 
          |                 ===============                 |
          |                   A N C O P T                   |
          |                 ===============                 |
          |          Approximate Normal Coordinate          |
          |           Rational Function Optimizer           |
           ------------------------------------------------- 
dumping coords to <xtbopt.coord> and <xtbopt.log>
 optlevel               2
 Maxcycle             520
 Maxmicro              25
 Econv         1.000000000000000E-007
 Gconv         2.000000000000000E-004
 Maxdispl       1.00000000000000     
 Hlow          5.000000000000000E-003
 S6             20.0000000000000     
 Nvar               72

generating ANC from model Hessian ...
 Shifting diagonal of input Hessian by   5.053150514377999E-003
 Lowest  eigenvalues of input Hessian
    0.005000   -0.000000    0.000000    0.000000    0.000000    0.000000
    0.000000    0.005160    0.005502    0.006116    0.006138    0.007022
    0.007881    0.008497    0.009410    0.009769    0.009975    0.010124
 Highest eigenvalues
    1.587998    1.591813    1.596232    3.145076    3.221184    3.319809
 
cpu  time for ANC gen    0.01 s
wall time for ANC gen    0.01 s
................................................................................
.............................. CYCLE    1 ......................................
................................................................................
   1    -50.6113549 -0.506114E+02  0.740E-05    6.35       0.0  T
   2    -50.6113549 -0.133440E-10  0.558E-05    6.35     351.3  T
   3    -50.6113549 -0.117524E-10  0.269E-05    6.35     728.4  T
speedup  1.07
cpu  time for SCC    0.00 s
wall time for SCC    0.00 s
speedup  1.00
cpu  time for grad    0.01 s
wall time for grad    0.01 s
 E :    -50.33526936  G :  0.228463    pred/act E change:  0.000D+00  0.474D-07
Maxdispl :   0.1215   ||displ|| :   0.3036   Lambda : -0.457D-01
Largest |displ|/coords:  0.1215 (  54)  0.1024 (  55)  0.0885 (  26)
................................................................................
.............................. CYCLE    2 ......................................
................................................................................
   1    -50.6282766 -0.506283E+02  0.328E-01    6.46       0.0  T
   2    -50.6285906 -0.314054E-03  0.245E-01    6.60       1.0  T
   3    -50.6287515 -0.160845E-03  0.866E-02    6.86       1.0  T
   4    -50.6287684 -0.169293E-04  0.197E-02    6.85       1.0  T
   5    -50.6287693 -0.892253E-06  0.710E-03    6.83       2.8  T
   6    -50.6287694 -0.821779E-07  0.390E-03    6.83       5.0  T
   7    -50.6287694 -0.316326E-07  0.109E-03    6.83      18.0  T
speedup  0.98
cpu  time for SCC    0.01 s
wall time for SCC    0.01 s
speedup  1.02
cpu  time for grad    0.01 s
wall time for grad    0.01 s
 E :    -50.37189079  G :  0.142001    pred/act E change:  0.000D+00 -0.366D-01
Maxdispl :   0.1277   ||displ|| :   0.3314   Lambda : -0.243D-01
Largest |displ|/coords:  0.1277 (  28)  0.1225 (  26)  0.1036 (  54)
................................................................................
.............................. CYCLE    3 ......................................
................................................................................
   1    -50.6368586 -0.506369E+02  0.298E-01    6.97       0.0  T
   2    -50.6373157 -0.457012E-03  0.216E-01    7.13       1.0  T
   3    -50.6375313 -0.215681E-03  0.962E-02    7.39       1.0  T
   4    -50.6375421 -0.107858E-04  0.197E-02    7.40       1.0  T
   5    -50.6375430 -0.847951E-06  0.720E-03    7.39       2.7  T
   6    -50.6375431 -0.857847E-07  0.402E-03    7.39       4.9  T
   7    -50.6375431 -0.321756E-07  0.118E-03    7.39      16.6  T
speedup  0.97
cpu  time for SCC    0.01 s
wall time for SCC    0.01 s
speedup  1.01
cpu  time for grad    0.01 s
wall time for grad    0.01 s
 E :    -50.39171024  G :  0.096218    pred/act E change: -0.249D-01 -0.198D-01
Maxdispl :   0.1032   ||displ|| :   0.3411   Lambda : -0.134D-01
Largest |displ|/coords:  0.1032 (  26)  0.0988 (  14)  0.0980 (   8)
................................................................................
.............................. CYCLE    4 ......................................
................................................................................
   1    -50.6418298 -0.506418E+02  0.289E-01    7.53       0.0  T
   2    -50.6423302 -0.500414E-03  0.203E-01    7.71       1.0  T
   3    -50.6425617 -0.231463E-03  0.926E-02    7.97       1.0  T
   4    -50.6425720 -0.103155E-04  0.192E-02    8.00       1.0  T
   5    -50.6425728 -0.813107E-06  0.698E-03    7.99       2.8  T
   6    -50.6425729 -0.802850E-07  0.395E-03    7.99       5.0  T
   7    -50.6425729 -0.281901E-07  0.113E-03    7.99      17.3  T
speedup  0.98
cpu  time for SCC    0.01 s
wall time for SCC    0.01 s
speedup  1.02
cpu  time for grad    0.01 s
wall time for grad    0.01 s
 E :    -50.40291917  G :  0.070235    pred/act E change: -0.135D-01 -0.112D-01
Maxdispl :   0.1653   ||displ|| :   0.3822   Lambda : -0.879D-02
Largest |displ|/coords:  0.1653 (  10)  0.1481 (   2)  0.1406 (  14)
................................................................................
.............................. CYCLE    5 ......................................
................................................................................
   1    -50.6436977 -0.506437E+02  0.411E-01    8.08       0.0  T
   2    -50.6442395 -0.541758E-03  0.294E-01    8.30       1.0  T
   3    -50.6444851 -0.245617E-03  0.106E-01    8.66       1.0  T
   4    -50.6445127 -0.275771E-04  0.195E-02    8.65       1.0  T
   5    -50.6445136 -0.950918E-06  0.749E-03    8.63       2.6  T
   6    -50.6445137 -0.105259E-06  0.416E-03    8.63       4.7  T
   7    -50.6445138 -0.252382E-07  0.105E-03    8.63      18.8  T
speedup  0.97
cpu  time for SCC    0.01 s
wall time for SCC    0.01 s
speedup  1.00
cpu  time for grad    0.01 s
wall time for grad    0.01 s
 E :    -50.41042273  G :  0.064330    pred/act E change: -0.751D-02 -0.750D-02
Maxdispl :   0.1150   ||displ|| :   0.3160   Lambda : -0.767D-02
Largest |displ|/coords:  0.1150 (  15)  0.1067 (   8)  0.0924 (   3)
................................................................................
.............................. CYCLE    6 ......................................
................................................................................
   1    -50.6560889 -0.506561E+02  0.251E-01    8.88       0.0  T
   2    -50.6563277 -0.238774E-03  0.182E-01    9.00       1.0  T
   3    -50.6564397 -0.112062E-03  0.682E-02    9.21       1.0  T
   4    -50.6564527 -0.129456E-04  0.139E-02    9.22       1.4  T
   5    -50.6564530 -0.309428E-06  0.490E-03    9.22       4.0  T
   6    -50.6564530 -0.390161E-07  0.251E-03    9.22       7.8  T
speedup  0.94
cpu  time for SCC    0.01 s
wall time for SCC    0.01 s
speedup  0.92
cpu  time for grad    0.01 s
wall time for grad    0.01 s
 E :    -50.41563563  G :  0.048554    pred/act E change: -0.504D-02 -0.521D-02
Maxdispl :   0.2484   ||displ|| :   0.6134   Lambda : -0.150D-01
Largest |displ|/coords:  0.2484 (  10)  0.2058 (  14)  0.1664 (  12)
................................................................................
.............................. CYCLE    7 ......................................
................................................................................
   1    -50.6612643 -0.506613E+02  0.831E-01    9.17       0.0  T
   2    -50.6644071 -0.314280E-02  0.568E-01    9.17       1.0  T
   3    -50.6657336 -0.132655E-02  0.227E-01    9.16       1.0  T
   4    -50.6658292 -0.955421E-04  0.413E-02    9.16       1.0  T
   5    -50.6658340 -0.488470E-05  0.223E-02    9.16       1.0  T
   6    -50.6658350 -0.987005E-06  0.803E-03    9.16       2.4  T
   7    -50.6658351 -0.934048E-07  0.169E-03    9.16      11.6  T
   8    -50.6658351 -0.704085E-08  0.722E-04    9.16      27.2  T
speedup  1.00
cpu  time for SCC    0.01 s
wall time for SCC    0.01 s
speedup  0.95
cpu  time for grad    0.01 s
wall time for grad    0.01 s
 E :    -50.42500239  G :  0.066634    pred/act E change: -0.422D-02 -0.937D-02
Maxdispl :   0.1375   ||displ|| :   0.3293   Lambda : -0.739D-02
Largest |displ|/coords:  0.1375 (  15)  0.1185 (   8)  0.1061 (   3)
................................................................................
.............................. CYCLE    8 ......................................
................................................................................
   1    -50.6805908 -0.506806E+02  0.317E-01    9.14       0.0  T
   2    -50.6806674 -0.766145E-04  0.236E-01    9.13       1.0  T
   3    -50.6807213 -0.538769E-04  0.523E-02    9.12       1.0  T
   4    -50.6807294 -0.813375E-05  0.167E-02    9.12       1.2  T
   5    -50.6807299 -0.500352E-06  0.515E-03    9.12       3.8  T
   6    -50.6807299 -0.244026E-07  0.264E-03    9.12       7.4  T
speedup  0.94
cpu  time for SCC    0.00 s
wall time for SCC    0.01 s
speedup  1.00
cpu  time for grad    0.01 s
wall time for grad    0.01 s
 E :    -50.42773346  G :  0.052509    pred/act E change: -0.103D-01 -0.273D-02
Maxdispl :   0.1536   ||displ|| :   0.3890   Lambda : -0.695D-02
Largest |displ|/coords:  0.1536 (   2)  0.1498 (   7)  0.1397 (   6)
................................................................................
.............................. CYCLE    9 ......................................
................................................................................
   1    -50.6785437 -0.506785E+02  0.438E-01    9.04       0.0  T
   2    -50.6790193 -0.475606E-03  0.312E-01    9.03       1.0  T
   3    -50.6792314 -0.212035E-03  0.103E-01    9.00       1.0  T
   4    -50.6792641 -0.326671E-04  0.182E-02    9.00       1.1  T
   5    -50.6792644 -0.397131E-06  0.857E-03    9.00       2.3  T
   6    -50.6792647 -0.217778E-06  0.349E-03    9.00       5.6  T
   7    -50.6792647 -0.219064E-07  0.674E-04    9.00      29.1  T
speedup  0.97
cpu  time for SCC    0.01 s
wall time for SCC    0.01 s
speedup  1.01
cpu  time for grad    0.01 s
wall time for grad    0.01 s
 E :    -50.43095206  G :  0.063037    pred/act E change: -0.409D-02 -0.322D-02
Maxdispl :   0.1126   ||displ|| :   0.2535   Lambda : -0.489D-02
Largest |displ|/coords:  0.1126 (   3)  0.0886 (   7)  0.0869 (   2)
................................................................................
.............................. CYCLE   10 ......................................
................................................................................
   1    -50.6875267 -0.506875E+02  0.218E-01    9.02       0.0  T
   2    -50.6876389 -0.112155E-03  0.159E-01    9.02       1.0  T
   3    -50.6876936 -0.546747E-04  0.538E-02    9.01       1.0  T
   4    -50.6877021 -0.853116E-05  0.142E-02    9.01       1.4  T
   5    -50.6877024 -0.314740E-06  0.520E-03    9.01       3.8  T
   6    -50.6877024 -0.205842E-07  0.252E-03    9.01       7.8  T
speedup  1.11
cpu  time for SCC    0.01 s
wall time for SCC    0.01 s
speedup  0.99
cpu  time for grad    0.01 s
wall time for grad    0.01 s
 E :    -50.43344701  G :  0.037876    pred/act E change: -0.400D-02 -0.249D-02
Maxdispl :   0.1794   ||displ|| :   0.3478   Lambda : -0.384D-02
Largest |displ|/coords:  0.1794 (   6)  0.1661 (   3)  0.0877 (  25)
................................................................................
.............................. CYCLE   11 ......................................
................................................................................
   1    -50.6953417 -0.506953E+02  0.230E-01    8.99       0.0  T
   2    -50.6954116 -0.699520E-04  0.171E-01    8.98       1.0  T
   3    -50.6954568 -0.451416E-04  0.438E-02    8.95       1.0  T
   4    -50.6954653 -0.852633E-05  0.130E-02    8.95       1.5  T
   5    -50.6954655 -0.250425E-06  0.532E-03    8.95       3.7  T
   6    -50.6954656 -0.468845E-07  0.260E-03    8.95       7.5  T
speedup  0.94
cpu  time for SCC    0.00 s
wall time for SCC    0.01 s
speedup  1.00
cpu  time for grad    0.01 s
wall time for grad    0.01 s
 E :    -50.43652502  G :  0.030916    pred/act E change: -0.260D-02 -0.308D-02
Maxdispl :   0.1824   ||displ|| :   0.5296   Lambda : -0.659D-02
Largest |displ|/coords:  0.1824 (   2)  0.1656 (  30)  0.1574 (   3)
................................................................................
.............................. CYCLE   12 ......................................
................................................................................
   1    -50.7006426 -0.507006E+02  0.432E-01    8.91       0.0  T
   2    -50.7007987 -0.156086E-03  0.320E-01    8.88       1.0  T
   3    -50.7008984 -0.996601E-04  0.745E-02    8.83       1.0  T
   4    -50.7009171 -0.187204E-04  0.265E-02    8.84       1.0  T
   5    -50.7009181 -0.103057E-05  0.783E-03    8.84       2.5  T
   6    -50.7009183 -0.144389E-06  0.465E-03    8.84       4.2  T
   7    -50.7009183 -0.498952E-07  0.149E-03    8.84      13.2  T
speedup  0.97
cpu  time for SCC    0.01 s
wall time for SCC    0.01 s
speedup  1.01
cpu  time for grad    0.01 s
wall time for grad    0.01 s
 E :    -50.43821307  G :  0.058332    pred/act E change: -0.215D-02 -0.169D-02
Maxdispl :   0.0982   ||displ|| :   0.2488   Lambda : -0.553D-02
Largest |displ|/coords:  0.0982 (   6)  0.0911 (  15)  0.0730 (   2)
................................................................................
.............................. CYCLE   13 ......................................
................................................................................
   1    -50.6989197 -0.506989E+02  0.230E-01    8.95       0.0  T
   2    -50.6989792 -0.594654E-04  0.169E-01    8.95       1.0  T
   3    -50.6990173 -0.381877E-04  0.437E-02    8.95       1.0  T
   4    -50.6990233 -0.594917E-05  0.124E-02    8.95       1.6  T
   5    -50.6990235 -0.240721E-06  0.473E-03    8.95       4.1  T
   6    -50.6990236 -0.246838E-07  0.218E-03    8.95       9.0  T
speedup  1.11
cpu  time for SCC    0.01 s
wall time for SCC    0.01 s
speedup  1.07
cpu  time for grad    0.01 s
wall time for grad    0.01 s
 E :    -50.43913749  G :  0.027534    pred/act E change: -0.422D-02 -0.924D-03
Maxdispl :   0.1107   ||displ|| :   0.2176   Lambda : -0.203D-02
Largest |displ|/coords:  0.1107 (   3)  0.0775 (   2)  0.0608 (  16)
................................................................................
.............................. CYCLE   14 ......................................
................................................................................
   1    -50.7024854 -0.507025E+02  0.155E-01    8.94       0.0  T
   2    -50.7024988 -0.134487E-04  0.114E-01    8.93       1.0  T
   3    -50.7025083 -0.949611E-05  0.210E-02    8.92       1.0  T
   4    -50.7025099 -0.160876E-05  0.745E-03    8.92       2.6  T
   5    -50.7025100 -0.733364E-07  0.255E-03    8.92       7.7  T
   6    -50.7025100 -0.100729E-07  0.136E-03    8.92      14.4  T
speedup  0.96
cpu  time for SCC    0.00 s
wall time for SCC    0.01 s
speedup  1.01
cpu  time for grad    0.01 s
wall time for grad    0.01 s
 E :    -50.44045558  G :  0.017129    pred/act E change: -0.293D-02 -0.132D-02
Maxdispl :   0.1296   ||displ|| :   0.2765   Lambda : -0.121D-02
Largest |displ|/coords:  0.1296 (   3)  0.1021 (   6)  0.0773 (   8)
................................................................................
.............................. CYCLE   15 ......................................
................................................................................
   1    -50.7006225 -0.507006E+02  0.203E-01    8.90       0.0  T
   2    -50.7006452 -0.227285E-04  0.150E-01    8.89       1.0  T
   3    -50.7006599 -0.146717E-04  0.248E-02    8.87       1.0  T
   4    -50.7006628 -0.288490E-05  0.102E-02    8.87       1.9  T
   5    -50.7006629 -0.151360E-06  0.316E-03    8.88       6.2  T
   6    -50.7006629 -0.178818E-07  0.181E-03    8.88      10.9  T
   7    -50.7006629 -0.941932E-08  0.545E-04    8.87      36.0  T
speedup  0.98
cpu  time for SCC    0.01 s
wall time for SCC    0.01 s
speedup  1.01
cpu  time for grad    0.01 s
wall time for grad    0.01 s
 E :    -50.44097805  G :  0.030434    pred/act E change: -0.107D-02 -0.522D-03
Maxdispl :   0.1051   ||displ|| :   0.1877   Lambda : -0.102D-02
Largest |displ|/coords:  0.1051 (   3)  0.0675 (   2)  0.0512 (   4)
................................................................................
.............................. CYCLE   16 ......................................
................................................................................
   1    -50.7060678 -0.507061E+02  0.123E-01    8.94       0.0  T
   2    -50.7060814 -0.136038E-04  0.906E-02    8.93       1.0  T
   3    -50.7060897 -0.832357E-05  0.190E-02    8.91       1.0  T
   4    -50.7060914 -0.164447E-05  0.553E-03    8.91       3.5  T
   5    -50.7060914 -0.466855E-07  0.235E-03    8.91       8.4  T
speedup  0.91
cpu  time for SCC    0.00 s
wall time for SCC    0.00 s
speedup  0.98
cpu  time for grad    0.01 s
wall time for grad    0.01 s
 E :    -50.44166666  G :  0.024757    pred/act E change: -0.649D-03 -0.689D-03
Maxdispl :   0.1214   ||displ|| :   0.2547   Lambda : -0.127D-02
Largest |displ|/coords:  0.1214 (  11)  0.1013 (   3)  0.0917 (   2)
................................................................................
.............................. CYCLE   17 ......................................
................................................................................
   1    -50.7080909 -0.507081E+02  0.199E-01    8.98       0.0  T
   2    -50.7081394 -0.485084E-04  0.143E-01    8.97       1.0  T
   3    -50.7081602 -0.208454E-04  0.322E-02    8.96       1.0  T
   4    -50.7081651 -0.489208E-05  0.742E-03    8.96       2.6  T
   5    -50.7081652 -0.968692E-07  0.323E-03    8.96       6.1  T
   6    -50.7081652 -0.885328E-08  0.149E-03    8.96      13.1  T
speedup  1.13
cpu  time for SCC    0.01 s
wall time for SCC    0.01 s
speedup  0.99
cpu  time for grad    0.01 s
wall time for grad    0.01 s
 E :    -50.44242665  G :  0.020721    pred/act E change: -0.527D-03 -0.760D-03
Maxdispl :   0.1023   ||displ|| :   0.2670   Lambda : -0.123D-02
Largest |displ|/coords:  0.1023 (   2)  0.0991 (   3)  0.0920 (   5)
................................................................................
.............................. CYCLE   18 ......................................
................................................................................
   1    -50.7121483 -0.507121E+02  0.191E-01    9.03       0.0  T
   2    -50.7122165 -0.681894E-04  0.139E-01    9.01       1.0  T
   3    -50.7122444 -0.279396E-04  0.410E-02    8.96       1.0  T
   4    -50.7122506 -0.616572E-05  0.826E-03    8.97       2.4  T
   5    -50.7122508 -0.184895E-06  0.358E-03    8.97       5.5  T
   6    -50.7122508 -0.122311E-07  0.175E-03    8.97      11.2  T
speedup  0.94
cpu  time for SCC    0.00 s
wall time for SCC    0.01 s
speedup  0.99
cpu  time for grad    0.01 s
wall time for grad    0.01 s
 E :    -50.44302720  G :  0.022883    pred/act E change: -0.674D-03 -0.601D-03
Maxdispl :   0.2111   ||displ|| :   0.4017   Lambda : -0.128D-02
Largest |displ|/coords:  0.2111 (  11)  0.1601 (   3)  0.1358 (   2)
................................................................................
.............................. CYCLE   19 ......................................
................................................................................
   1    -50.7032261 -0.507032E+02  0.334E-01    8.87       0.0  T
   2    -50.7033062 -0.801334E-04  0.245E-01    8.87       1.0  T
   3    -50.7033491 -0.429424E-04  0.443E-02    8.86       1.0  T
   4    -50.7033585 -0.936613E-05  0.130E-02    8.85       1.5  T
   5    -50.7033588 -0.283222E-06  0.535E-03    8.85       3.7  T
   6    -50.7033588 -0.414722E-07  0.266E-03    8.85       7.4  T
speedup  1.09
cpu  time for SCC    0.01 s
wall time for SCC    0.01 s
speedup  0.98
cpu  time for grad    0.01 s
wall time for grad    0.01 s
 E :    -50.44338685  G :  0.031680    pred/act E change: -0.660D-03 -0.360D-03
Maxdispl :   0.0779   ||displ|| :   0.2232   Lambda : -0.186D-02
Largest |displ|/coords:  0.0779 (   6)  0.0771 (   8)  0.0757 (   2)
................................................................................
.............................. CYCLE   20 ......................................
................................................................................
   1    -50.7074963 -0.507075E+02  0.134E-01    8.87       0.0  T
   2    -50.7075230 -0.266106E-04  0.998E-02    8.86       1.0  T
   3    -50.7075361 -0.131526E-04  0.298E-02    8.85       1.0  T
   4    -50.7075393 -0.314777E-05  0.833E-03    8.85       2.4  T
   5    -50.7075394 -0.168853E-06  0.298E-03    8.85       6.6  T
   6    -50.7075394 -0.101656E-07  0.143E-03    8.85      13.8  T
speedup  0.94
cpu  time for SCC    0.01 s
wall time for SCC    0.01 s
speedup  1.00
cpu  time for grad    0.01 s
wall time for grad    0.01 s
 E :    -50.44452655  G :  0.025474    pred/act E change: -0.741D-03 -0.114D-02
Maxdispl :   0.1182   ||displ|| :   0.3206   Lambda : -0.217D-02
Largest |displ|/coords:  0.1182 (   2)  0.1082 (   1)  0.0956 (  16)
................................................................................
.............................. CYCLE   21 ......................................
................................................................................
   1    -50.7225417 -0.507225E+02  0.187E-01    8.89       0.0  T
   2    -50.7226107 -0.689662E-04  0.138E-01    8.88       1.0  T
   3    -50.7226465 -0.358496E-04  0.453E-02    8.86       1.0  T
   4    -50.7226526 -0.608248E-05  0.138E-02    8.86       1.4  T
   5    -50.7226530 -0.382712E-06  0.410E-03    8.86       4.8  T
   6    -50.7226530 -0.179990E-07  0.216E-03    8.86       9.1  T
speedup  0.94
cpu  time for SCC    0.00 s
wall time for SCC    0.01 s
speedup  0.99
cpu  time for grad    0.01 s
wall time for grad    0.01 s
 E :    -50.44564611  G :  0.033998    pred/act E change: -0.974D-03 -0.112D-02
Maxdispl :   0.2094   ||displ|| :   0.4672   Lambda : -0.232D-02
Largest |displ|/coords:  0.2094 (   2)  0.1111 (   7)  0.1080 (  20)
................................................................................
.............................. CYCLE   22 ......................................
................................................................................
   1    -50.7216003 -0.507216E+02  0.294E-01    8.74       0.0  T
   2    -50.7216824 -0.821648E-04  0.222E-01    8.72       1.0  T
   3    -50.7217351 -0.526634E-04  0.478E-02    8.68       1.0  T
   4    -50.7217466 -0.115082E-04  0.166E-02    8.69       1.2  T
   5    -50.7217471 -0.535121E-06  0.572E-03    8.69       3.4  T
   6    -50.7217472 -0.355116E-07  0.289E-03    8.69       6.8  T
speedup  0.94
cpu  time for SCC    0.00 s
wall time for SCC    0.01 s
speedup  1.00
cpu  time for grad    0.01 s
wall time for grad    0.01 s
 E :    -50.44723530  G :  0.030181    pred/act E change: -0.120D-02 -0.159D-02
Maxdispl :   0.1294   ||displ|| :   0.3395   Lambda : -0.216D-02
Largest |displ|/coords:  0.1294 (   1)  0.1256 (   2)  0.0985 (   7)
................................................................................
.............................. CYCLE   23 ......................................
................................................................................
   1    -50.7204008 -0.507204E+02  0.183E-01    8.63       0.0  T
   2    -50.7204351 -0.343465E-04  0.137E-01    8.64       1.0  T
   3    -50.7204589 -0.238000E-04  0.314E-02    8.64       1.0  T
   4    -50.7204630 -0.407551E-05  0.924E-03    8.63       2.1  T
   5    -50.7204631 -0.120870E-06  0.353E-03    8.63       5.6  T
   6    -50.7204631 -0.123565E-07  0.172E-03    8.63      11.4  T
speedup  1.11
cpu  time for SCC    0.01 s
wall time for SCC    0.01 s
speedup  0.98
cpu  time for grad    0.01 s
wall time for grad    0.01 s
 E :    -50.44844217  G :  0.027195    pred/act E change: -0.141D-02 -0.121D-02
Maxdispl :   0.1030   ||displ|| :   0.2337   Lambda : -0.173D-02
Largest |displ|/coords:  0.1030 (   4)  0.0844 (   1)  0.0675 (  12)
................................................................................
.............................. CYCLE   24 ......................................
................................................................................
   1    -50.7216113 -0.507216E+02  0.155E-01    8.60       0.0  T
   2    -50.7216443 -0.330131E-04  0.113E-01    8.60       1.0  T
   3    -50.7216602 -0.158389E-04  0.326E-02    8.61       1.0  T
   4    -50.7216629 -0.275946E-05  0.950E-03    8.61       2.1  T
   5    -50.7216632 -0.246001E-06  0.294E-03    8.61       6.7  T
   6    -50.7216632 -0.816637E-08  0.160E-03    8.61      12.2  T
speedup  0.94
cpu  time for SCC    0.00 s
wall time for SCC    0.01 s
speedup  0.99
cpu  time for grad    0.01 s
wall time for grad    0.01 s
 E :    -50.44932928  G :  0.027495    pred/act E change: -0.120D-02 -0.887D-03
Maxdispl :   0.1010   ||displ|| :   0.2548   Lambda : -0.170D-02
Largest |displ|/coords:  0.1010 (   1)  0.0681 (  31)  0.0645 (  12)
................................................................................
.............................. CYCLE   25 ......................................
................................................................................
   1    -50.7245576 -0.507246E+02  0.194E-01    8.68       0.0  T
   2    -50.7245790 -0.213479E-04  0.142E-01    8.68       1.0  T
   3    -50.7245917 -0.127688E-04  0.272E-02    8.69       1.0  T
   4    -50.7245939 -0.213281E-05  0.104E-02    8.69       1.9  T
   5    -50.7245940 -0.154109E-06  0.275E-03    8.69       7.1  T
   6    -50.7245940 -0.817580E-08  0.154E-03    8.69      12.7  T
speedup  0.94
cpu  time for SCC    0.00 s
wall time for SCC    0.01 s
speedup  0.99
cpu  time for grad    0.01 s
wall time for grad    0.01 s
 E :    -50.45018770  G :  0.022777    pred/act E change: -0.914D-03 -0.858D-03
Maxdispl :   0.1365   ||displ|| :   0.3434   Lambda : -0.130D-02
Largest |displ|/coords:  0.1365 (   5)  0.1208 (   2)  0.1063 (   4)

generating ANC from model Hessian ...
 Shifting diagonal of input Hessian by   5.007582661800232E-003
 Lowest  eigenvalues of input Hessian
    0.005000    0.005005   -0.000000   -0.000000   -0.000000   -0.000000
   -0.000000    0.000000    0.005123    0.005339    0.006006    0.006108
    0.006554    0.007244    0.007837    0.008056    0.009686    0.011403
 Highest eigenvalues
    1.376080    1.394378    1.419776    2.719191    3.284862    3.583705
 
cpu  time for ANC gen    0.01 s
wall time for ANC gen    0.02 s
................................................................................
.............................. CYCLE   26 ......................................
................................................................................
   1    -50.7229262 -0.507229E+02  0.221E-01    8.62       0.0  T
   2    -50.7229575 -0.312608E-04  0.166E-01    8.63       1.0  T
   3    -50.7229764 -0.189203E-04  0.324E-02    8.63       1.0  T
   4    -50.7229805 -0.411564E-05  0.120E-02    8.62       1.6  T
   5    -50.7229808 -0.281679E-06  0.354E-03    8.62       5.5  T
   6    -50.7229808 -0.106880E-07  0.204E-03    8.62       9.6  T
   7    -50.7229808 -0.645800E-08  0.449E-04    8.62      43.6  T
   8    -50.7229808 -0.492982E-09  0.152E-04    8.62     129.1  T
speedup  0.99
cpu  time for SCC    0.01 s
wall time for SCC    0.01 s
speedup  0.97
cpu  time for grad    0.01 s
wall time for grad    0.02 s
 E :    -50.45028121  G :  0.025928    pred/act E change:  0.000D+00 -0.935D-04
Maxdispl :   0.0887   ||displ|| :   0.2277   Lambda : -0.158D-02
Largest |displ|/coords:  0.0887 (   8)  0.0740 (   5)  0.0678 (  11)
................................................................................
.............................. CYCLE   27 ......................................
................................................................................
   1    -50.7267966 -0.507268E+02  0.139E-01    8.71       0.0  T
   2    -50.7268037 -0.712014E-05  0.103E-01    8.71       1.0  T
   3    -50.7268081 -0.436449E-05  0.148E-02    8.72       1.3  T
   4    -50.7268091 -0.964408E-06  0.462E-03    8.73       4.2  T
   5    -50.7268091 -0.333700E-07  0.168E-03    8.73      11.7  T
speedup  0.89
cpu  time for SCC    0.00 s
wall time for SCC    0.00 s
speedup  0.98
cpu  time for grad    0.01 s
wall time for grad    0.01 s
 E :    -50.45141284  G :  0.011603    pred/act E change:  0.000D+00 -0.113D-02
Maxdispl :   0.1434   ||displ|| :   0.3489   Lambda : -0.997D-03
Largest |displ|/coords:  0.1434 (   2)  0.1331 (   8)  0.1107 (  11)
................................................................................
.............................. CYCLE   28 ......................................
................................................................................
   1    -50.7271856 -0.507272E+02  0.230E-01    8.82       0.0  T
   2    -50.7271973 -0.116616E-04  0.173E-01    8.82       1.0  T
   3    -50.7272067 -0.937312E-05  0.190E-02    8.84       1.0  T
   4    -50.7272082 -0.153006E-05  0.687E-03    8.84       2.9  T
   5    -50.7272083 -0.720807E-07  0.269E-03    8.84       7.3  T
   6    -50.7272083 -0.558153E-08  0.131E-03    8.84      15.0  T
speedup  1.13
cpu  time for SCC    0.01 s
wall time for SCC    0.01 s
speedup  1.06
cpu  time for grad    0.01 s
wall time for grad    0.01 s
 E :    -50.45205581  G :  0.011473    pred/act E change: -0.831D-03 -0.643D-03
Maxdispl :   0.1385   ||displ|| :   0.2893   Lambda : -0.455D-03
Largest |displ|/coords:  0.1385 (   2)  0.1048 (   8)  0.0969 (   4)
................................................................................
.............................. CYCLE   29 ......................................
................................................................................
   1    -50.7261930 -0.507262E+02  0.171E-01    8.88       0.0  T
   2    -50.7262009 -0.793432E-05  0.127E-01    8.89       1.0  T
   3    -50.7262059 -0.496017E-05  0.166E-02    8.92       1.2  T
   4    -50.7262070 -0.111266E-05  0.532E-03    8.91       3.7  T
   5    -50.7262070 -0.472561E-07  0.196E-03    8.91      10.0  T
   6    -50.7262070 -0.266396E-08  0.942E-04    8.91      20.8  T
speedup  1.13
cpu  time for SCC    0.01 s
wall time for SCC    0.01 s
speedup  0.99
cpu  time for grad    0.01 s
wall time for grad    0.01 s
 E :    -50.45238049  G :  0.012560    pred/act E change: -0.559D-03 -0.325D-03
Maxdispl :   0.1525   ||displ|| :   0.3162   Lambda : -0.447D-03
Largest |displ|/coords:  0.1525 (   2)  0.1298 (   7)  0.1220 (   4)
................................................................................
.............................. CYCLE   30 ......................................
................................................................................
   1    -50.7253050 -0.507253E+02  0.183E-01    8.93       0.0  T
   2    -50.7253140 -0.905459E-05  0.136E-01    8.95       1.0  T
   3    -50.7253194 -0.544390E-05  0.176E-02    8.98       1.1  T
   4    -50.7253207 -0.126054E-05  0.543E-03    8.97       3.6  T
   5    -50.7253208 -0.439648E-07  0.212E-03    8.97       9.2  T
   6    -50.7253208 -0.406658E-08  0.958E-04    8.97      20.5  T
speedup  0.94
cpu  time for SCC    0.00 s
wall time for SCC    0.01 s
speedup  0.98
cpu  time for grad    0.01 s
wall time for grad    0.01 s
 E :    -50.45266215  G :  0.010509    pred/act E change: -0.247D-03 -0.282D-03
Maxdispl :   0.1399   ||displ|| :   0.2369   Lambda : -0.300D-03
Largest |displ|/coords:  0.1399 (   4)  0.0876 (   8)  0.0736 (   1)
................................................................................
.............................. CYCLE   31 ......................................
................................................................................
   1    -50.7258758 -0.507259E+02  0.131E-01    8.98       0.0  T
   2    -50.7258799 -0.411942E-05  0.981E-02    8.98       1.0  T
   3    -50.7258834 -0.347872E-05  0.120E-02    9.00       1.6  T
   4    -50.7258839 -0.466057E-06  0.384E-03    9.00       5.1  T
   5    -50.7258839 -0.207529E-07  0.143E-03    9.00      13.7  T
   6    -50.7258839 -0.250335E-08  0.695E-04    9.00      28.2  T
speedup  0.91
cpu  time for SCC    0.00 s
wall time for SCC    0.01 s
speedup  0.96
cpu  time for grad    0.01 s
wall time for grad    0.01 s
 E :    -50.45281207  G :  0.010620    pred/act E change: -0.246D-03 -0.150D-03
Maxdispl :   0.0828   ||displ|| :   0.1730   Lambda : -0.237D-03
Largest |displ|/coords:  0.0828 (   4)  0.0787 (   1)  0.0734 (   2)
................................................................................
.............................. CYCLE   32 ......................................
................................................................................
   1    -50.7273036 -0.507273E+02  0.968E-02    9.00       0.0  T
   2    -50.7273059 -0.231666E-05  0.724E-02    9.00       1.0  T
   3    -50.7273081 -0.216339E-05  0.836E-03    9.01       2.3  T
   4    -50.7273083 -0.207791E-06  0.339E-03    9.01       5.8  T
   5    -50.7273083 -0.106800E-07  0.103E-03    9.01      19.1  T
   6    -50.7273083 -0.144762E-08  0.520E-04    9.01      37.7  T
speedup  0.96
cpu  time for SCC    0.01 s
wall time for SCC    0.01 s
speedup  1.00
cpu  time for grad    0.01 s
wall time for grad    0.01 s
 E :    -50.45293246  G :  0.007451    pred/act E change: -0.158D-03 -0.120D-03
Maxdispl :   0.1547   ||displ|| :   0.2788   Lambda : -0.252D-03
Largest |displ|/coords:  0.1547 (   4)  0.1083 (   7)  0.1027 (   3)
................................................................................
.............................. CYCLE   33 ......................................
................................................................................
   1    -50.7239677 -0.507240E+02  0.177E-01    8.99       0.0  T
   2    -50.7239752 -0.751673E-05  0.132E-01    9.00       1.0  T
   3    -50.7239813 -0.600241E-05  0.152E-02    9.03       1.3  T
   4    -50.7239822 -0.940910E-06  0.630E-03    9.02       3.1  T
   5    -50.7239822 -0.371238E-07  0.202E-03    9.02       9.7  T
   6    -50.7239822 -0.609370E-08  0.840E-04    9.02      23.3  T
speedup  0.94
cpu  time for SCC    0.00 s
wall time for SCC    0.01 s
speedup  0.99
cpu  time for grad    0.01 s
wall time for grad    0.01 s
 E :    -50.45300907  G :  0.013157    pred/act E change: -0.122D-03 -0.766D-04
Maxdispl :   0.0601   ||displ|| :   0.1414   Lambda : -0.348D-03
Largest |displ|/coords:  0.0601 (   4)  0.0574 (  11)  0.0479 (  15)
................................................................................
.............................. CYCLE   34 ......................................
................................................................................
   1    -50.7281423 -0.507281E+02  0.878E-02    9.02       0.0  T
   2    -50.7281491 -0.685742E-05  0.644E-02    9.01       1.0  T
   3    -50.7281532 -0.402124E-05  0.148E-02    9.01       1.3  T
   4    -50.7281539 -0.758796E-06  0.381E-03    9.02       5.2  T
   5    -50.7281540 -0.245366E-07  0.162E-03    9.02      12.1  T
   6    -50.7281540 -0.210741E-08  0.776E-04    9.02      25.3  T
speedup  0.93
cpu  time for SCC    0.00 s
wall time for SCC    0.01 s
speedup  0.98
cpu  time for grad    0.01 s
wall time for grad    0.01 s
 E :    -50.45309976  G :  0.010758    pred/act E change: -0.136D-03 -0.907D-04
Maxdispl :   0.0649   ||displ|| :   0.1224   Lambda : -0.259D-03
Largest |displ|/coords:  0.0649 (   3)  0.0476 (   4)  0.0426 (   6)
................................................................................
.............................. CYCLE   35 ......................................
................................................................................
   1    -50.7287393 -0.507287E+02  0.919E-02    9.03       0.0  T
   2    -50.7287437 -0.443363E-05  0.676E-02    9.02       1.0  T
   3    -50.7287459 -0.215660E-05  0.116E-02    9.00       1.7  T
   4    -50.7287465 -0.663814E-06  0.314E-03    9.00       6.3  T
   5    -50.7287465 -0.118705E-07  0.127E-03    9.00      15.4  T
   6    -50.7287465 -0.155466E-08  0.538E-04    9.00      36.5  T
speedup  0.94
cpu  time for SCC    0.00 s
wall time for SCC    0.01 s
speedup  0.99
cpu  time for grad    0.01 s
wall time for grad    0.01 s
 E :    -50.45317911  G :  0.008236    pred/act E change: -0.178D-03 -0.793D-04
Maxdispl :   0.0887   ||displ|| :   0.1617   Lambda : -0.164D-03
Largest |displ|/coords:  0.0887 (   7)  0.0791 (   2)  0.0629 (   4)
................................................................................
.............................. CYCLE   36 ......................................
................................................................................
   1    -50.7261367 -0.507261E+02  0.921E-02    8.98       0.0  T
   2    -50.7261397 -0.296697E-05  0.680E-02    8.99       1.0  T
   3    -50.7261410 -0.130552E-05  0.983E-03    9.01       2.0  T
   4    -50.7261415 -0.496712E-06  0.274E-03    9.00       7.2  T
   5    -50.7261415 -0.942944E-08  0.111E-03    9.00      17.7  T
speedup  0.89
cpu  time for SCC    0.00 s
wall time for SCC    0.00 s
speedup  0.97
cpu  time for grad    0.01 s
wall time for grad    0.01 s
 E :    -50.45325838  G :  0.005915    pred/act E change: -0.132D-03 -0.793D-04
Maxdispl :   0.0622   ||displ|| :   0.1217   Lambda : -0.115D-03
Largest |displ|/coords:  0.0622 (   3)  0.0561 (   4)  0.0479 (   5)
................................................................................
.............................. CYCLE   37 ......................................
................................................................................
   1    -50.7277001 -0.507277E+02  0.679E-02    9.01       0.0  T
   2    -50.7277016 -0.148933E-05  0.510E-02    9.01       1.0  T
   3    -50.7277028 -0.126471E-05  0.702E-03    9.01       2.8  T
   4    -50.7277030 -0.182557E-06  0.250E-03    9.01       7.9  T
   5    -50.7277030 -0.103993E-07  0.880E-04    9.01      22.3  T
speedup  1.11
cpu  time for SCC    0.00 s
wall time for SCC    0.00 s
speedup  1.05
cpu  time for grad    0.01 s
wall time for grad    0.01 s
 E :    -50.45330306  G :  0.008038    pred/act E change: -0.843D-04 -0.447D-04
Maxdispl :   0.1124   ||displ|| :   0.1831   Lambda : -0.128D-03
Largest |displ|/coords:  0.1124 (   3)  0.0990 (   4)  0.0611 (   7)
................................................................................
.............................. CYCLE   38 ......................................
................................................................................
   1    -50.7270274 -0.507270E+02  0.930E-02    9.01       0.0  T
   2    -50.7270288 -0.140737E-05  0.698E-02    9.01       1.0  T
   3    -50.7270301 -0.122010E-05  0.709E-03    9.02       2.8  T
   4    -50.7270302 -0.170575E-06  0.269E-03    9.01       7.3  T
   5    -50.7270302 -0.897825E-08  0.861E-04    9.01      22.8  T
speedup  1.09
cpu  time for SCC    0.00 s
wall time for SCC    0.00 s
speedup  1.04
cpu  time for grad    0.01 s
wall time for grad    0.01 s
 E :    -50.45337339  G :  0.006176    pred/act E change: -0.581D-04 -0.703D-04
Maxdispl :   0.1115   ||displ|| :   0.1792   Lambda : -0.135D-03
Largest |displ|/coords:  0.1115 (   3)  0.0652 (   6)  0.0601 (   4)
................................................................................
.............................. CYCLE   39 ......................................
................................................................................
   1    -50.7286352 -0.507286E+02  0.766E-02    9.01       0.0  T
   2    -50.7286362 -0.108461E-05  0.570E-02    9.01       1.0  T
   3    -50.7286370 -0.749469E-06  0.708E-03    9.00       2.8  T
   4    -50.7286371 -0.141333E-06  0.220E-03    9.00       8.9  T
   5    -50.7286371 -0.660748E-08  0.687E-04    9.00      28.5  T
speedup  1.11
cpu  time for SCC    0.00 s
wall time for SCC    0.00 s
speedup  0.98
cpu  time for grad    0.01 s
wall time for grad    0.01 s
 E :    -50.45344882  G :  0.003750    pred/act E change: -0.662D-04 -0.754D-04
Maxdispl :   0.2237   ||displ|| :   0.3726   Lambda : -0.127D-03
Largest |displ|/coords:  0.2237 (   3)  0.1980 (   4)  0.1275 (   7)
................................................................................
.............................. CYCLE   40 ......................................
................................................................................
   1    -50.7251399 -0.507251E+02  0.187E-01    8.98       0.0  T
   2    -50.7251458 -0.586455E-05  0.141E-01    8.99       1.0  T
   3    -50.7251515 -0.569374E-05  0.143E-02    8.99       1.4  T
   4    -50.7251521 -0.676180E-06  0.550E-03    8.99       3.6  T
   5    -50.7251522 -0.384101E-07  0.194E-03    8.99      10.1  T
   6    -50.7251522 -0.407837E-08  0.991E-04    8.99      19.8  T
   7    -50.7251522 -0.264835E-08  0.212E-04    8.99      92.6  T
speedup  0.98
cpu  time for SCC    0.01 s
wall time for SCC    0.01 s
speedup  1.03
cpu  time for grad    0.01 s
wall time for grad    0.01 s
 E :    -50.45345556  G :  0.010649    pred/act E change: -0.694D-04 -0.675D-05
Maxdispl :   0.0460   ||displ|| :   0.0959   Lambda : -0.166D-03
Largest |displ|/coords:  0.0460 (   7)  0.0359 (   4)  0.0354 (   1)
................................................................................
.............................. CYCLE   41 ......................................
................................................................................
   1    -50.7282807 -0.507283E+02  0.677E-02    9.02       0.0  T
   2    -50.7282825 -0.183375E-05  0.500E-02    9.01       1.0  T
   3    -50.7282838 -0.126517E-05  0.742E-03    9.00       2.6  T
   4    -50.7282840 -0.210549E-06  0.277E-03    9.01       7.1  T
   5    -50.7282840 -0.115287E-07  0.944E-04    9.01      20.8  T
speedup  0.91
cpu  time for SCC    0.00 s
wall time for SCC    0.00 s
speedup  0.98
cpu  time for grad    0.01 s
wall time for grad    0.01 s
 E :    -50.45352463  G :  0.003630    pred/act E change: -0.721D-04 -0.691D-04
Maxdispl :   0.0435   ||displ|| :   0.0836   Lambda : -0.542D-04
Largest |displ|/coords:  0.0435 (   7)  0.0374 (   3)  0.0319 (   1)
................................................................................
.............................. CYCLE   42 ......................................
................................................................................
   1    -50.7284745 -0.507285E+02  0.443E-02    9.00       0.0  T
   2    -50.7284749 -0.453376E-06  0.331E-02    9.00       1.0  T
   3    -50.7284753 -0.370123E-06  0.361E-03    9.00       5.4  T
   4    -50.7284754 -0.521746E-07  0.128E-03    9.00      15.3  T
   5    -50.7284754 -0.203973E-08  0.463E-04    9.00      42.3  T
   6    -50.7284754 -0.318664E-09  0.226E-04    9.00      86.7  T
speedup  0.96
cpu  time for SCC    0.00 s
wall time for SCC    0.01 s
speedup  1.03
cpu  time for grad    0.01 s
wall time for grad    0.01 s
 E :    -50.45355048  G :  0.003567    pred/act E change: -0.840D-04 -0.258D-04
Maxdispl :   0.1113   ||displ|| :   0.1716   Lambda : -0.408D-04
Largest |displ|/coords:  0.1113 (   3)  0.0862 (   4)  0.0482 (   7)
................................................................................
.............................. CYCLE   43 ......................................
................................................................................
   1    -50.7277534 -0.507278E+02  0.833E-02    9.00       0.0  T
   2    -50.7277544 -0.100236E-05  0.628E-02    9.00       1.0  T
   3    -50.7277555 -0.113631E-05  0.562E-03    9.00       3.5  T
   4    -50.7277556 -0.843315E-07  0.239E-03    9.00       8.2  T
   5    -50.7277556 -0.604848E-08  0.716E-04    9.00      27.4  T
   6    -50.7277556 -0.582773E-09  0.393E-04    9.00      49.9  T
speedup  1.11
cpu  time for SCC    0.01 s
wall time for SCC    0.01 s
speedup  1.02
cpu  time for grad    0.01 s
wall time for grad    0.01 s
 E :    -50.45357882  G :  0.003129    pred/act E change: -0.273D-04 -0.283D-04
Maxdispl :   0.0882   ||displ|| :   0.1451   Lambda : -0.291D-04
Largest |displ|/coords:  0.0882 (   3)  0.0645 (   4)  0.0453 (   1)
................................................................................
.............................. CYCLE   44 ......................................
................................................................................
   1    -50.7275051 -0.507275E+02  0.676E-02    9.00       0.0  T
   2    -50.7275057 -0.656109E-06  0.509E-02    9.00       1.0  T
   3    -50.7275065 -0.729735E-06  0.450E-03    9.00       4.4  T
   4    -50.7275065 -0.542010E-07  0.212E-03    9.00       9.2  T
   5    -50.7275065 -0.447636E-08  0.583E-04    9.00      33.6  T
   6    -50.7275065 -0.367372E-09  0.348E-04    9.00      56.3  T
speedup  0.94
cpu  time for SCC    0.01 s
wall time for SCC    0.01 s
speedup  0.96
cpu  time for grad    0.01 s
wall time for grad    0.01 s
 E :    -50.45359750  G :  0.002487    pred/act E change: -0.210D-04 -0.187D-04
Maxdispl :   0.0321   ||displ|| :   0.0749   Lambda : -0.216D-04
Largest |displ|/coords:  0.0321 (   3)  0.0297 (   1)  0.0238 (  12)
................................................................................
.............................. CYCLE   45 ......................................
................................................................................
   1    -50.7288603 -0.507289E+02  0.347E-02    9.01       0.0  T
   2    -50.7288607 -0.400745E-06  0.259E-02    9.01       1.0  T
   3    -50.7288610 -0.250413E-06  0.401E-03    9.00       4.9  T
   4    -50.7288610 -0.611509E-07  0.140E-03    9.01      14.0  T
   5    -50.7288610 -0.226166E-08  0.391E-04    9.01      50.1  T
   6    -50.7288610 -0.203642E-09  0.218E-04    9.01      90.1  T
speedup  0.93
cpu  time for SCC    0.00 s
wall time for SCC    0.01 s
speedup  1.01
cpu  time for grad    0.01 s
wall time for grad    0.01 s
 E :    -50.45360407  G :  0.002738    pred/act E change: -0.149D-04 -0.657D-05
Maxdispl :   0.0359   ||displ|| :   0.0673   Lambda : -0.183D-04
Largest |displ|/coords:  0.0359 (   7)  0.0357 (   3)  0.0274 (   1)
................................................................................
.............................. CYCLE   46 ......................................
................................................................................
   1    -50.7283807 -0.507284E+02  0.320E-02    9.00       0.0  T
   2    -50.7283810 -0.224338E-06  0.240E-02    9.00       1.0  T
   3    -50.7283811 -0.157131E-06  0.266E-03    9.00       7.4  T
   4    -50.7283811 -0.320575E-07  0.100E-03    9.00      19.6  T
   5    -50.7283811 -0.137935E-08  0.324E-04    9.00      60.5  T
   6    -50.7283811 -0.133866E-09  0.177E-04    9.00     111.0  T
speedup  0.94
cpu  time for SCC    0.00 s
wall time for SCC    0.01 s
speedup  0.95
cpu  time for grad    0.01 s
wall time for grad    0.01 s
 E :    -50.45361252  G :  0.001798    pred/act E change: -0.109D-04 -0.845D-05
Maxdispl :   0.0112   ||displ|| :   0.0239   Lambda : -0.878D-05
Largest |displ|/coords:  0.0112 (   8)  0.0094 (   5)  0.0087 (   7)
................................................................................
.............................. CYCLE   47 ......................................
................................................................................
   1    -50.7282157 -0.507282E+02  0.152E-02    9.00       0.0  T
   2    -50.7282158 -0.495680E-07  0.114E-02    9.00       1.7  T
   3    -50.7282158 -0.510605E-07  0.137E-03    9.00      14.3  T
   4    -50.7282158 -0.441690E-08  0.496E-04    9.00      39.6  T
   5    -50.7282158 -0.368686E-09  0.150E-04    9.00     130.3  T
speedup  1.11
cpu  time for SCC    0.00 s
wall time for SCC    0.00 s
speedup  1.01
cpu  time for grad    0.01 s
wall time for grad    0.01 s
 E :    -50.45361702  G :  0.002465    pred/act E change: -0.923D-05 -0.450D-05
Maxdispl :   0.0097   ||displ|| :   0.0236   Lambda : -0.999D-05
Largest |displ|/coords:  0.0097 (   7)  0.0091 (   5)  0.0081 (  11)
................................................................................
.............................. CYCLE   48 ......................................
................................................................................
   1    -50.7282634 -0.507283E+02  0.163E-02    9.00       0.0  T
   2    -50.7282634 -0.520107E-07  0.121E-02    9.00       1.6  T
   3    -50.7282635 -0.576114E-07  0.136E-03    9.01      14.4  T
   4    -50.7282635 -0.314252E-08  0.503E-04    9.01      39.0  T
   5    -50.7282635 -0.348194E-09  0.141E-04    9.01     139.5  T
speedup  0.89
cpu  time for SCC    0.00 s
wall time for SCC    0.00 s
speedup  0.93
cpu  time for grad    0.01 s
wall time for grad    0.01 s
 E :    -50.45362449  G :  0.001897    pred/act E change: -0.439D-05 -0.747D-05
Maxdispl :   0.0263   ||displ|| :   0.0601   Lambda : -0.152D-04
Largest |displ|/coords:  0.0263 (   5)  0.0252 (   7)  0.0239 (   2)
................................................................................
.............................. CYCLE   49 ......................................
................................................................................
   1    -50.7284095 -0.507284E+02  0.383E-02    9.01       0.0  T
   2    -50.7284097 -0.248028E-06  0.287E-02    9.01       1.0  T
   3    -50.7284100 -0.274580E-06  0.316E-03    9.01       6.2  T
   4    -50.7284100 -0.182353E-07  0.123E-03    9.01      15.9  T
   5    -50.7284100 -0.172258E-08  0.368E-04    9.01      53.2  T
   6    -50.7284100 -0.146038E-09  0.215E-04    9.01      91.3  T
speedup  0.96
cpu  time for SCC    0.00 s
wall time for SCC    0.01 s
speedup  1.03
cpu  time for grad    0.01 s
wall time for grad    0.01 s
 E :    -50.45363463  G :  0.001784    pred/act E change: -0.500D-05 -0.101D-04
Maxdispl :   0.0424   ||displ|| :   0.0909   Lambda : -0.122D-04
Largest |displ|/coords:  0.0424 (   7)  0.0368 (   1)  0.0311 (   5)
................................................................................
.............................. CYCLE   50 ......................................
................................................................................
   1    -50.7280858 -0.507281E+02  0.528E-02    9.01       0.0  T
   2    -50.7280862 -0.459813E-06  0.396E-02    9.02       1.0  T
   3    -50.7280867 -0.443420E-06  0.445E-03    9.02       4.4  T
   4    -50.7280867 -0.506072E-07  0.179E-03    9.02      11.0  T
   5    -50.7280867 -0.293360E-08  0.453E-04    9.02      43.3  T
   6    -50.7280867 -0.223764E-09  0.280E-04    9.02      70.0  T
speedup  1.13
cpu  time for SCC    0.01 s
wall time for SCC    0.01 s
speedup  1.02
cpu  time for grad    0.01 s
wall time for grad    0.01 s
 E :    -50.45364335  G :  0.002196    pred/act E change: -0.764D-05 -0.872D-05
Maxdispl :   0.0589   ||displ|| :   0.1287   Lambda : -0.214D-04
Largest |displ|/coords:  0.0589 (   2)  0.0474 (   1)  0.0461 (   5)
................................................................................
.............................. CYCLE   51 ......................................
................................................................................
   1    -50.7278263 -0.507278E+02  0.766E-02    9.02       0.0  T
   2    -50.7278273 -0.930771E-06  0.576E-02    9.02       1.0  T
   3    -50.7278282 -0.942367E-06  0.620E-03    9.03       3.2  T
   4    -50.7278283 -0.908600E-07  0.261E-03    9.03       7.5  T
   5    -50.7278283 -0.560800E-08  0.628E-04    9.03      31.2  T
   6    -50.7278283 -0.389633E-09  0.392E-04    9.03      50.1  T
speedup  0.94
cpu  time for SCC    0.00 s
wall time for SCC    0.01 s
speedup  1.01
cpu  time for grad    0.01 s
wall time for grad    0.01 s
 E :    -50.45365647  G :  0.002723    pred/act E change: -0.616D-05 -0.131D-04
Maxdispl :   0.0669   ||displ|| :   0.1507   Lambda : -0.264D-04
Largest |displ|/coords:  0.0669 (   1)  0.0639 (   2)  0.0517 (   5)
................................................................................
.............................. CYCLE   52 ......................................
................................................................................
   1    -50.7271406 -0.507271E+02  0.880E-02    9.02       0.0  T
   2    -50.7271419 -0.123816E-05  0.663E-02    9.02       1.0  T
   3    -50.7271432 -0.134470E-05  0.708E-03    9.02       2.8  T
   4    -50.7271433 -0.113367E-06  0.289E-03    9.02       6.8  T
   5    -50.7271433 -0.787801E-08  0.744E-04    9.02      26.4  T
   6    -50.7271433 -0.616254E-09  0.463E-04    9.02      42.4  T
speedup  1.11
cpu  time for SCC    0.01 s
wall time for SCC    0.01 s
speedup  1.02
cpu  time for grad    0.01 s
wall time for grad    0.01 s
 E :    -50.45367205  G :  0.003302    pred/act E change: -0.109D-04 -0.156D-04
Maxdispl :   0.0792   ||displ|| :   0.1124   Lambda : -0.286D-04
Largest |displ|/coords:  0.0792 (   3)  0.0329 (   2)  0.0312 (   5)

generating ANC from model Hessian ...
 Shifting diagonal of input Hessian by   4.841688849542788E-003
 Lowest  eigenvalues of input Hessian
   -0.000000   -0.000000    0.000000    0.000000    0.000000    0.000000
    0.005000    0.005196    0.005402    0.005936    0.006248    0.006845
    0.006988    0.007508    0.008561    0.009179    0.010199    0.011195
 Highest eigenvalues
    1.383595    1.385519    1.388290    2.829295    3.318960    3.586084
 
cpu  time for ANC gen    0.02 s
wall time for ANC gen    0.02 s
................................................................................
.............................. CYCLE   53 ......................................
................................................................................
   1    -50.7276104 -0.507276E+02  0.555E-02    9.03       0.0  T
   2    -50.7276108 -0.406310E-06  0.420E-02    9.03       1.0  T
   3    -50.7276113 -0.510490E-06  0.336E-03    9.03       5.8  T
   4    -50.7276113 -0.214668E-07  0.149E-03    9.03      13.2  T
   5    -50.7276113 -0.184254E-08  0.428E-04    9.03      45.8  T
   6    -50.7276113 -0.249983E-09  0.262E-04    9.03      74.9  T
speedup  1.09
cpu  time for SCC    0.01 s
wall time for SCC    0.01 s
speedup  1.01
cpu  time for grad    0.01 s
wall time for grad    0.01 s
 E :    -50.45369191  G :  0.003099    pred/act E change:  0.000D+00 -0.199D-04
Maxdispl :   0.0118   ||displ|| :   0.0276   Lambda : -0.186D-04
Largest |displ|/coords:  0.0118 (  10)  0.0100 (   5)  0.0087 (   7)
................................................................................
.............................. CYCLE   54 ......................................
................................................................................
   1    -50.7279342 -0.507279E+02  0.227E-02    9.03       0.0  T
   2    -50.7279343 -0.104839E-06  0.171E-02    9.03       1.1  T
   3    -50.7279344 -0.124262E-06  0.176E-03    9.03      11.2  T
   4    -50.7279344 -0.565644E-08  0.779E-04    9.03      25.2  T
   5    -50.7279344 -0.591996E-09  0.196E-04    9.03     100.1  T
speedup  0.91
cpu  time for SCC    0.00 s
wall time for SCC    0.00 s
speedup  0.94
cpu  time for grad    0.01 s
wall time for grad    0.01 s
 E :    -50.45370489  G :  0.001446    pred/act E change:  0.000D+00 -0.130D-04
Maxdispl :   0.0277   ||displ|| :   0.0518   Lambda : -0.164D-04
Largest |displ|/coords:  0.0277 (   2)  0.0191 (   5)  0.0158 (  15)
................................................................................
.............................. CYCLE   55 ......................................
................................................................................
   1    -50.7283053 -0.507283E+02  0.339E-02    9.04       0.0  T
   2    -50.7283055 -0.173056E-06  0.255E-02    9.04       1.0  T
   3    -50.7283057 -0.200656E-06  0.238E-03    9.03       8.2  T
   4    -50.7283057 -0.119044E-07  0.992E-04    9.04      19.8  T
   5    -50.7283057 -0.100674E-08  0.303E-04    9.04      64.8  T
speedup  1.14
cpu  time for SCC    0.00 s
wall time for SCC    0.00 s
speedup  1.02
cpu  time for grad    0.01 s
wall time for grad    0.01 s
 E :    -50.45371406  G :  0.001119    pred/act E change: -0.928D-05 -0.918D-05
Maxdispl :   0.0255   ||displ|| :   0.0479   Lambda : -0.106D-04
Largest |displ|/coords:  0.0255 (   7)  0.0188 (  15)  0.0165 (   2)
................................................................................
.............................. CYCLE   56 ......................................
................................................................................
   1    -50.7284511 -0.507285E+02  0.304E-02    9.04       0.0  T
   2    -50.7284512 -0.177770E-06  0.230E-02    9.04       1.0  T
   3    -50.7284515 -0.207511E-06  0.217E-03    9.04       9.0  T
   4    -50.7284515 -0.118288E-07  0.110E-03    9.04      17.9  T
   5    -50.7284515 -0.104011E-08  0.262E-04    9.04      74.7  T
   6    -50.7284515 -0.846185E-10  0.154E-04    9.04     127.6  T
speedup  0.94
cpu  time for SCC    0.00 s
wall time for SCC    0.01 s
speedup  0.96
cpu  time for grad    0.01 s
wall time for grad    0.01 s
 E :    -50.45372010  G :  0.001504    pred/act E change: -0.823D-05 -0.603D-05
Maxdispl :   0.0293   ||displ|| :   0.0562   Lambda : -0.954D-05
Largest |displ|/coords:  0.0293 (   2)  0.0210 (   7)  0.0194 (  16)
................................................................................
.............................. CYCLE   57 ......................................
................................................................................
   1    -50.7284076 -0.507284E+02  0.326E-02    9.04       0.0  T
   2    -50.7284078 -0.162423E-06  0.244E-02    9.04       1.0  T
   3    -50.7284080 -0.178326E-06  0.218E-03    9.04       9.0  T
   4    -50.7284080 -0.110753E-07  0.930E-04    9.04      21.1  T
   5    -50.7284080 -0.726693E-09  0.275E-04    9.04      71.2  T
speedup  1.09
cpu  time for SCC    0.00 s
wall time for SCC    0.00 s
speedup  1.00
cpu  time for grad    0.01 s
wall time for grad    0.01 s
 E :    -50.45372717  G :  0.001222    pred/act E change: -0.529D-05 -0.707D-05
Maxdispl :   0.0404   ||displ|| :   0.0768   Lambda : -0.100D-04
Largest |displ|/coords:  0.0404 (   2)  0.0295 (   7)  0.0261 (  15)
................................................................................
.............................. CYCLE   58 ......................................
................................................................................
   1    -50.7282348 -0.507282E+02  0.426E-02    9.04       0.0  T
   2    -50.7282350 -0.280119E-06  0.320E-02    9.04       1.0  T
   3    -50.7282353 -0.309477E-06  0.296E-03    9.04       6.6  T
   4    -50.7282354 -0.202860E-07  0.107E-03    9.04      18.4  T
   5    -50.7282354 -0.121388E-08  0.363E-04    9.04      54.0  T
   6    -50.7282354 -0.237605E-09  0.201E-04    9.04      97.4  T
speedup  0.94
cpu  time for SCC    0.00 s
wall time for SCC    0.01 s
speedup  0.95
cpu  time for grad    0.01 s
wall time for grad    0.01 s
 E :    -50.45373355  G :  0.000895    pred/act E change: -0.478D-05 -0.638D-05
Maxdispl :   0.0251   ||displ|| :   0.0469   Lambda : -0.449D-05
Largest |displ|/coords:  0.0251 (   2)  0.0151 (   7)  0.0150 (  15)
................................................................................
.............................. CYCLE   59 ......................................
................................................................................
   1    -50.7281744 -0.507282E+02  0.254E-02    9.04       0.0  T
   2    -50.7281745 -0.998056E-07  0.191E-02    9.04       1.0  T
   3    -50.7281746 -0.110659E-06  0.182E-03    9.04      10.8  T
   4    -50.7281746 -0.774071E-08  0.685E-04    9.04      28.6  T
   5    -50.7281746 -0.500187E-09  0.199E-04    9.04      98.3  T
speedup  1.11
cpu  time for SCC    0.01 s
wall time for SCC    0.00 s
speedup  1.01
cpu  time for grad    0.01 s
wall time for grad    0.01 s
 E :    -50.45373706  G :  0.000775    pred/act E change: -0.506D-05 -0.352D-05
Maxdispl :   0.0501   ||displ|| :   0.0963   Lambda : -0.851D-05
Largest |displ|/coords:  0.0501 (   2)  0.0317 (   7)  0.0308 (  10)
................................................................................
.............................. CYCLE   60 ......................................
................................................................................
   1    -50.7280144 -0.507280E+02  0.535E-02    9.04       0.0  T
   2    -50.7280148 -0.437295E-06  0.403E-02    9.04       1.0  T
   3    -50.7280153 -0.490998E-06  0.397E-03    9.04       4.9  T
   4    -50.7280153 -0.328752E-07  0.155E-03    9.04      12.7  T
   5    -50.7280153 -0.245041E-08  0.415E-04    9.04      47.2  T
   6    -50.7280153 -0.226585E-09  0.262E-04    9.04      74.9  T
speedup  0.96
cpu  time for SCC    0.00 s
wall time for SCC    0.01 s
speedup  0.96
cpu  time for grad    0.01 s
wall time for grad    0.01 s
 E :    -50.45374310  G :  0.001102    pred/act E change: -0.225D-05 -0.604D-05
Maxdispl :   0.0467   ||displ|| :   0.0917   Lambda : -0.794D-05
Largest |displ|/coords:  0.0467 (   2)  0.0294 (  10)  0.0252 (   7)
................................................................................
.............................. CYCLE   61 ......................................
................................................................................
   1    -50.7279785 -0.507280E+02  0.511E-02    9.04       0.0  T
   2    -50.7279789 -0.418412E-06  0.385E-02    9.04       1.0  T
   3    -50.7279794 -0.459408E-06  0.397E-03    9.04       4.9  T
   4    -50.7279794 -0.336792E-07  0.168E-03    9.04      11.7  T
   5    -50.7279794 -0.247188E-08  0.387E-04    9.04      50.7  T
   6    -50.7279794 -0.160789E-09  0.253E-04    9.04      77.6  T
speedup  1.13
cpu  time for SCC    0.01 s
wall time for SCC    0.01 s
speedup  1.03
cpu  time for grad    0.01 s
wall time for grad    0.01 s
 E :    -50.45374912  G :  0.001572    pred/act E change: -0.430D-05 -0.602D-05
Maxdispl :   0.0562   ||displ|| :   0.1172   Lambda : -0.109D-04
Largest |displ|/coords:  0.0562 (   2)  0.0391 (  13)  0.0371 (  10)
................................................................................
.............................. CYCLE   62 ......................................
................................................................................
   1    -50.7279666 -0.507280E+02  0.676E-02    9.04       0.0  T
   2    -50.7279674 -0.790122E-06  0.509E-02    9.04       1.0  T
   3    -50.7279682 -0.839299E-06  0.552E-03    9.04       3.6  T
   4    -50.7279683 -0.675490E-07  0.242E-03    9.04       8.1  T
   5    -50.7279683 -0.478541E-08  0.528E-04    9.04      37.1  T
   6    -50.7279683 -0.294307E-09  0.342E-04    9.04      57.3  T
speedup  0.93
cpu  time for SCC    0.00 s
wall time for SCC    0.01 s
speedup  0.95
cpu  time for grad    0.01 s
wall time for grad    0.01 s
 E :    -50.45375712  G :  0.002017    pred/act E change: -0.400D-05 -0.800D-05
Maxdispl :   0.0408   ||displ|| :   0.0975   Lambda : -0.116D-04
Largest |displ|/coords:  0.0408 (   2)  0.0391 (  13)  0.0307 (  10)
................................................................................
.............................. CYCLE   63 ......................................
................................................................................
   1    -50.7282502 -0.507283E+02  0.569E-02    9.06       0.0  T
   2    -50.7282508 -0.650599E-06  0.428E-02    9.06       1.0  T
   3    -50.7282515 -0.630010E-06  0.515E-03    9.06       3.8  T
   4    -50.7282515 -0.667741E-07  0.226E-03    9.06       8.7  T
   5    -50.7282515 -0.407975E-08  0.468E-04    9.06      41.9  T
   6    -50.7282515 -0.232532E-09  0.300E-04    9.06      65.4  T
speedup  0.94
cpu  time for SCC    0.00 s
wall time for SCC    0.01 s
speedup  1.01
cpu  time for grad    0.01 s
wall time for grad    0.01 s
 E :    -50.45376557  G :  0.001859    pred/act E change: -0.550D-05 -0.845D-05
Maxdispl :   0.0453   ||displ|| :   0.1120   Lambda : -0.108D-04
Largest |displ|/coords:  0.0453 (   2)  0.0447 (  13)  0.0371 (  10)
................................................................................
.............................. CYCLE   64 ......................................
................................................................................
   1    -50.7280976 -0.507281E+02  0.655E-02    9.06       0.0  T
   2    -50.7280985 -0.889545E-06  0.494E-02    9.06       1.0  T
   3    -50.7280994 -0.852108E-06  0.581E-03    9.07       3.4  T
   4    -50.7280995 -0.964935E-07  0.265E-03    9.06       7.4  T
   5    -50.7280995 -0.579324E-08  0.544E-04    9.06      36.0  T
   6    -50.7280995 -0.376332E-09  0.352E-04    9.06      55.7  T
speedup  0.96
cpu  time for SCC    0.00 s
wall time for SCC    0.01 s
speedup  0.96
cpu  time for grad    0.01 s
wall time for grad    0.01 s
 E :    -50.45377287  G :  0.001366    pred/act E change: -0.587D-05 -0.730D-05
Maxdispl :   0.0292   ||displ|| :   0.0570   Lambda : -0.107D-04
Largest |displ|/coords:  0.0292 (  13)  0.0179 (   7)  0.0167 (   6)
................................................................................
.............................. CYCLE   65 ......................................
................................................................................
   1    -50.7289158 -0.507289E+02  0.304E-02    9.09       0.0  T
   2    -50.7289161 -0.259131E-06  0.227E-02    9.09       1.0  T
   3    -50.7289163 -0.186024E-06  0.368E-03    9.09       5.3  T
   4    -50.7289163 -0.347712E-07  0.129E-03    9.09      15.2  T
   5    -50.7289163 -0.190587E-08  0.310E-04    9.09      63.2  T
   6    -50.7289163 -0.120473E-09  0.185E-04    9.09     106.1  T
speedup  0.94
cpu  time for SCC    0.01 s
wall time for SCC    0.01 s
speedup  0.96
cpu  time for grad    0.01 s
wall time for grad    0.01 s
 E :    -50.45377666  G :  0.001372    pred/act E change: -0.547D-05 -0.379D-05
Maxdispl :   0.0341   ||displ|| :   0.0854   Lambda : -0.671D-05
[...]
 E :    -50.45378730  G :  0.000419    pred/act E change: -0.843D-06 -0.129D-05
Maxdispl :   0.0188   ||displ|| :   0.0288   Lambda : -0.109D-05
Largest |displ|/coords:  0.0188 (   3)  0.0132 (   2)  0.0114 (   1)
................................................................................
.............................. CYCLE   71 ......................................
................................................................................
   1    -50.7285624 -0.507286E+02  0.112E-02    9.08       0.0  T
   2    -50.7285625 -0.343102E-07  0.828E-03    9.08       2.4  T
   3    -50.7285625 -0.269270E-07  0.113E-03    9.08      17.4  T
   4    -50.7285625 -0.356598E-08  0.475E-04    9.08      41.3  T
   5    -50.7285625 -0.246764E-09  0.118E-04    9.08     166.0  T
speedup  1.11
cpu  time for SCC    0.00 s
wall time for SCC    0.00 s
speedup  1.01
cpu  time for grad    0.01 s
wall time for grad    0.01 s
 E :    -50.45378807  G :  0.000460    pred/act E change: -0.956D-06 -0.765D-06
Maxdispl :   0.0205   ||displ|| :   0.0294   Lambda : -0.915D-06
Largest |displ|/coords:  0.0205 (   3)  0.0145 (   1)  0.0090 (   2)
................................................................................
.............................. CYCLE   72 ......................................
................................................................................
   1    -50.7285789 -0.507286E+02  0.104E-02    9.08       0.0  T
   2    -50.7285789 -0.308003E-07  0.770E-03    9.08       2.5  T
   3    -50.7285790 -0.230164E-07  0.108E-03    9.08      18.2  T
   4    -50.7285790 -0.346426E-08  0.478E-04    9.08      41.0  T
   5    -50.7285790 -0.229647E-09  0.104E-04    9.08     188.3  T
speedup  0.89
cpu  time for SCC    0.00 s
wall time for SCC    0.00 s
speedup  1.01
cpu  time for grad    0.01 s
wall time for grad    0.01 s
 E :    -50.45378871  G :  0.000420    pred/act E change: -0.548D-06 -0.641D-06
Maxdispl :   0.0164   ||displ|| :   0.0233   Lambda : -0.766D-06
Largest |displ|/coords:  0.0164 (   3)  0.0096 (   1)  0.0084 (   2)
................................................................................
.............................. CYCLE   73 ......................................
................................................................................
   1    -50.7285917 -0.507286E+02  0.814E-03    9.08       0.0  T
   2    -50.7285917 -0.116963E-07  0.606E-03    9.08       3.2  T
   3    -50.7285917 -0.105746E-07  0.596E-04    9.08      32.9  T
   4    -50.7285917 -0.107502E-08  0.284E-04    9.08      69.2  T
speedup  0.83
cpu  time for SCC    0.00 s
wall time for SCC    0.00 s
speedup  0.99
cpu  time for grad    0.01 s
wall time for grad    0.01 s
 E :    -50.45378924  G :  0.000383    pred/act E change: -0.458D-06 -0.535D-06
Maxdispl :   0.0159   ||displ|| :   0.0216   Lambda : -0.643D-06
Largest |displ|/coords:  0.0159 (   3)  0.0100 (   1)  0.0053 (   7)
................................................................................
.............................. CYCLE   74 ......................................
................................................................................
   1    -50.7285551 -0.507286E+02  0.777E-03    9.08       0.0  T
   2    -50.7285551 -0.116251E-07  0.578E-03    9.08       3.4  T
   3    -50.7285551 -0.929742E-08  0.588E-04    9.08      33.4  T
   4    -50.7285551 -0.127299E-08  0.253E-04    9.08      77.6  T
speedup  1.11
cpu  time for SCC    0.00 s
wall time for SCC    0.00 s
speedup  1.00
cpu  time for grad    0.01 s
wall time for grad    0.01 s
 E :    -50.45378971  G :  0.000323    pred/act E change: -0.383D-06 -0.466D-06
Maxdispl :   0.0173   ||displ|| :   0.0220   Lambda : -0.566D-06
Largest |displ|/coords:  0.0173 (   3)  0.0096 (   1)  0.0064 (   7)
................................................................................
.............................. CYCLE   75 ......................................
................................................................................
   1    -50.7285205 -0.507285E+02  0.866E-03    9.08       0.0  T
   2    -50.7285206 -0.209644E-07  0.641E-03    9.08       3.1  T
   3    -50.7285206 -0.151661E-07  0.780E-04    9.08      25.2  T
   4    -50.7285206 -0.252644E-08  0.254E-04    9.08      77.2  T
speedup  1.11
cpu  time for SCC    0.00 s
wall time for SCC    0.00 s
speedup  1.00
cpu  time for grad    0.01 s
wall time for grad    0.01 s
 E :    -50.45379011  G :  0.000254    pred/act E change: -0.322D-06 -0.401D-06
Maxdispl :   0.0141   ||displ|| :   0.0189   Lambda : -0.446D-06
Largest |displ|/coords:  0.0141 (   3)  0.0075 (   7)  0.0074 (   1)
................................................................................
.............................. CYCLE   76 ......................................
................................................................................
   1    -50.7285108 -0.507285E+02  0.892E-03    9.08       0.0  T
   2    -50.7285108 -0.211562E-07  0.658E-03    9.08       3.0  T
   3    -50.7285109 -0.147326E-07  0.753E-04    9.08      26.1  T
   4    -50.7285109 -0.251644E-08  0.220E-04    9.08      89.2  T
speedup  0.83
cpu  time for SCC    0.00 s
wall time for SCC    0.00 s
speedup  1.00
cpu  time for grad    0.01 s
wall time for grad    0.01 s
 E :    -50.45379042  G :  0.000222    pred/act E change: -0.283D-06 -0.313D-06
Maxdispl :   0.0155   ||displ|| :   0.0216   Lambda : -0.363D-06
Largest |displ|/coords:  0.0155 (   3)  0.0087 (   1)  0.0058 (   7)
................................................................................
.............................. CYCLE   77 ......................................
................................................................................
   1    -50.7284873 -0.507285E+02  0.101E-02    9.08       0.0  T
   2    -50.7284873 -0.322028E-07  0.748E-03    9.08       2.6  T
   3    -50.7284873 -0.259761E-07  0.892E-04    9.08      22.0  T
   4    -50.7284873 -0.357171E-08  0.344E-04    9.08      57.0  T
speedup  1.11
cpu  time for SCC    0.00 s
wall time for SCC    0.00 s
speedup  1.07
cpu  time for grad    0.01 s
wall time for grad    0.01 s
 E :    -50.45379067  G :  0.000212    pred/act E change: -0.223D-06 -0.246D-06
Maxdispl :   0.0045   ||displ|| :   0.0107   Lambda : -0.233D-06
Largest |displ|/coords:  0.0045 (   3)  0.0043 (   7)  0.0034 (  16)
................................................................................
.............................. CYCLE   78 ......................................
................................................................................
   1    -50.7285239 -0.507285E+02  0.669E-03    9.08       0.0  T
   2    -50.7285239 -0.714531E-08  0.497E-03    9.08       3.9  T
   3    -50.7285239 -0.655601E-08  0.456E-04    9.08      43.1  T
   4    -50.7285239 -0.572726E-09  0.195E-04    9.08     100.5  T
speedup  1.11
cpu  time for SCC    0.00 s
wall time for SCC    0.00 s
speedup  1.00
cpu  time for grad    0.01 s
wall time for grad    0.01 s
 E :    -50.45379084  G :  0.000178    pred/act E change: -0.182D-06 -0.166D-06
Maxdispl :   0.0094   ||displ|| :   0.0151   Lambda : -0.199D-06
Largest |displ|/coords:  0.0094 (   3)  0.0064 (   2)  0.0058 (   1)
................................................................................
.............................. CYCLE   79 ......................................
................................................................................
   1    -50.7285309 -0.507285E+02  0.747E-03    9.08       0.0  T
   2    -50.7285310 -0.144967E-07  0.557E-03    9.08       3.5  T
   3    -50.7285310 -0.127739E-07  0.651E-04    9.08      30.1  T
   4    -50.7285310 -0.143736E-08  0.296E-04    9.08      66.2  T
speedup  1.08
cpu  time for SCC    0.00 s
wall time for SCC    0.00 s
speedup  0.99
cpu  time for grad    0.01 s
wall time for grad    0.01 s
 E :    -50.45379096  G :  0.000146    pred/act E change: -0.116D-06 -0.124D-06
Maxdispl :   0.0026   ||displ|| :   0.0053   Lambda : -0.943D-07
Largest |displ|/coords:  0.0026 (   8)  0.0023 (   2)  0.0018 (  15)
................................................................................
.............................. CYCLE   80 ......................................
................................................................................
   1    -50.7285557 -0.507286E+02  0.275E-03    9.08       0.0  T
   2    -50.7285557 -0.190182E-08  0.206E-03    9.08       9.5  T
   3    -50.7285557 -0.157814E-08  0.272E-04    9.08      72.0  T
   4    -50.7285557 -0.235339E-09  0.118E-04    9.08     165.6  T
speedup  0.81
cpu  time for SCC    0.00 s
wall time for SCC    0.00 s
speedup  0.99
cpu  time for grad    0.01 s
wall time for grad    0.01 s
 E :    -50.45379103  G :  0.000120    pred/act E change: -0.994D-07 -0.711D-07
Maxdispl :   0.0029   ||displ|| :   0.0062   Lambda : -0.657D-07
Largest |displ|/coords:  0.0029 (   3)  0.0029 (   1)  0.0028 (   2)

   *** GEOMETRY OPTIMIZATION CONVERGED AFTER 80 ITERATIONS ***

------------------------------------------------------------------------
 total energy gain (kcal):     -0.0622
------------------------------------------------------------------------
================
 final structure:
================
$coord
       -0.06152206477991       -0.92223388338461       -2.50309809214683      S 
       -1.18773419396562       -3.17873386479012       -1.41167370670805      O 
       -1.55410455795997        1.34155059594024       -1.74237394184156      O 
        2.56990273365205       -0.62048911984841       -1.84600121236777      O 
       -0.27539612432234       -1.05080517515132       -5.41365247557919      O 
       -2.12542723282354       -1.37033704432764       -5.66949570444078      H 
        1.09309734152661        6.01086712889439        2.07825346991232      O 
        0.75188010757718        6.60353917338288        0.39904331517395      H 
        1.60672496334303       -0.84220176540996        4.80525894859352      O 
        1.18674818254254       -1.55682597793642        6.41589151360596      H 
        2.47852557148483       -4.49283773302497        1.65542018488740      O 
        1.95558905266319       -2.30822010581799        3.65035982539232      H 
        0.96590715345490       -4.34590950454337        0.58768384642491      H 
        3.80541521535224       -3.83405728871419        0.59739415961619      H 
       -1.71100044847701        2.17291526275945        2.77782735469230      O 
       -0.50966933353053        0.94948647034372        3.60721102274100      H 
       -0.76653517085835        3.87163872686798        2.72593165217836      H 
       -1.74928789146040        1.68600608495143        0.66371266129985      H 
        4.50918890862537        2.46219224324093        1.66838239518277      O 
        4.16582983787030        1.40980448526456        3.11741894037026      H 
        3.99521877496130        1.45553833999809        0.20528056194964      H 
        2.62394217097450        4.92253524261944        1.94498155056548      H 
       -5.06112309319859       -1.98563380369092       -4.87995130620259      N 
       -5.93199186624437       -0.38275358924062       -4.30848778357806      H 
       -4.44912414536462       -2.91761602902102       -3.31494914214404      H 
       -6.32505390999703       -3.07741881259456       -5.81036805656067      H 
$end
 
 Bond Distances (Angstroems)
 ---------------------------
S1-O2=1.4542         S1-O3=1.4903         S1-O4=1.4441         S1-O5=1.5458         O2-S1=1.4542         O3-S1=1.4903         
O4-S1=1.4441         O5-S1=1.5458         O5-H6=1.0027         H6-O5=1.0027         O7-H8=0.9595         O7-H22=0.9964        
H8-O7=0.9595         O9-H10=0.9586        O9-H12=1.0047        H10-O9=0.9586        O11-H13=0.9829       O11-H14=0.9633       
H12-O9=1.0047        H13-O11=0.9829       H14-O11=0.9633       O15-H16=1.0079       O15-H17=1.0289       O15-H18=1.1482       
H16-O15=1.0079       H17-O15=1.0289       H18-O15=1.1482       O19-H20=0.9650       O19-H21=0.9784       H20-O19=0.9650       
H21-O19=0.9784       H22-O7=0.9964        N23-H24=1.0116       N23-H25=1.0168       N23-H26=1.0117       H24-N23=1.0116       
H25-N23=1.0168       H26-N23=1.0117       
 N  H  Rav=1.0134 sigma=0.0025  Rmin=1.0116  Rmax=1.0168     3
 O  H  Rav=0.9997 sigma=0.0497  Rmin=0.9586  Rmax=1.1482    12
 S  O  Rav=1.4836 sigma=0.0398  Rmin=1.4441  Rmax=1.5458     4
 
 selected bond angles (degree)
 --------------------
O3-S1-O2=109.61                O4-S1-O2=112.98                O4-S1-O3=110.92                O5-S1-O2=109.24                
O5-S1-O3=105.41                O5-S1-O4=108.38                H6-O5-S1=102.32                H22-O7-H8=106.04               
H12-O9-H10=106.19              
 
 selected dihedral angles (degree)
 ---------------------------------
H6-O5-S1-O2= 52.98            H6-O5-S1-O3=295.28            H6-O5-S1-O4=176.46            
 
 CMA Distance (Angstroems)
 ---------------------------
R(CMA):  2.2712

========================================================================
 FINAL SINGLEPOINT CALCULATION ON OPTIMIZED GEOMETRY
========================================================================

 Ncao       : 65
 Nao        : 64
 Nshell     : 38
 Nel        : 80
 T(el)      :   300.0
 intcut     :    25.0
 scfconv/Eh :  0.100E-05
   qconv/e  :  0.100E-03
 intneglect :  0.100E-07
 broydamp   :      0.250
 iter      E             dE          RMSdq      gap      omega  full diag
   1    -50.7285557 -0.507286E+02  0.508E-05    9.08       0.0  T
   2    -50.7285557 -0.164846E-11  0.315E-05    9.08     622.7  T
   3    -50.7285557 -0.824230E-12  0.596E-06    9.08    3289.3  T
speedup  0.74
cpu  time for SCC    0.00 s
wall time for SCC    0.00 s

   *** convergence criteria satisfied after 3 iterations ***

          eigenvalues
 #    :          28         29         30         31         32         33         34         35
 occ. :        2.000      2.000      2.000      2.000      2.000      2.000      2.000      2.000
 eps  :       -13.675    -13.168    -12.726    -12.549    -12.459    -12.415    -12.289    -12.109
 #    :          36         37         38         39         40         41         42         43
 occ. :        2.000      2.000      2.000      2.000      2.000      0.000      0.000      0.000
 eps  :       -12.063    -12.036    -11.912    -11.816    -11.337     -2.259     -0.532     -0.175
 #    :          44         45         46         47         48         49         50         51
 occ. :        0.000      0.000      0.000      0.000      0.000      0.000      0.000      0.000
 eps  :         0.524      0.879      1.220      1.590      2.792      3.645      4.543      5.098


   #   Z            q   n(s)   n(p)   n(d)      C6AA      α(0)
   1  16 S      1.682  1.585  1.784  0.948    89.167    15.893
   2   8 O     -0.754  1.775  4.980  0.000    30.237     7.372
   3   8 O     -0.731  1.775  4.956  0.000    29.258     7.264
   4   8 O     -0.721  1.753  4.968  0.000    29.281     7.255
   5   8 O     -0.601  1.753  4.848  0.000    25.180     6.774
   6   1 H      0.362  0.638  0.000  0.000     0.552     1.163
   7   8 O     -0.603  1.753  4.850  0.000    25.262     6.784
   8   1 H      0.296  0.704  0.000  0.000     0.734     1.345
   9   8 O     -0.631  1.749  4.882  0.000    25.944     6.874
  10   1 H      0.293  0.707  0.000  0.000     0.742     1.353
  11   8 O     -0.605  1.745  4.860  0.000    25.302     6.789
  12   1 H      0.343  0.657  0.000  0.000     0.605     1.222
  13   1 H      0.325  0.675  0.000  0.000     0.650     1.266
  14   1 H      0.306  0.694  0.000  0.000     0.704     1.318
  15   8 O     -0.538  1.746  4.792  0.000    23.654     6.569
  16   1 H      0.368  0.632  0.000  0.000     0.548     1.163
  17   1 H      0.379  0.621  0.000  0.000     0.526     1.139
  18   1 H      0.392  0.608  0.000  0.000     0.489     1.092
  19   8 O     -0.618  1.751  4.867  0.000    25.620     6.831
  20   1 H      0.311  0.689  0.000  0.000     0.690     1.304
  21   1 H      0.326  0.674  0.000  0.000     0.648     1.265
  22   1 H      0.345  0.655  0.000  0.000     0.602     1.219
  23   7 N     -0.454  1.361  4.093  0.000    31.930     8.392
  24   1 H      0.170  0.830  0.000  0.000     1.273     1.767
  25   1 H      0.189  0.811  0.000  0.000     1.165     1.691
  26   1 H      0.169  0.831  0.000  0.000     1.281     1.773

 Mol. C6AA /au·bohr⁶  :       5470.519554
 Mol. C8AA /au·bohr⁸  :     118253.037422
 Mol. α(0) /au        :        106.878980

 
 Wiberg/Mayer (AO) data. WBOs > 0.1 written file <wbo>
 largest (>0.05) Wiberg bond orders for each atom
           total WBO             WBO to atom ...
     1  S   4.844    O    4 1.367    O    2 1.298    O    3 1.154    O    5 0.982
     2  O   1.711    S    1 1.298    O    4 0.111    O    3 0.100    O    5 0.083    H   13 0.061
     3  O   1.799    S    1 1.154    H   18 0.299    O    4 0.103    O    2 0.100    O   15 0.073    O    5 0.065
     4  O   1.737    S    1 1.367    O    2 0.111    O    3 0.103    O    5 0.069
     5  O   1.988    S    1 0.982    H    6 0.726    O    2 0.083    O    4 0.069    O    3 0.065
     6  H   0.869    O    5 0.726    N   23 0.126
     7  O   1.939    H    8 0.910    H   22 0.793    H   17 0.139    O   15 0.054
     8  H   0.912    O    7 0.910
     9  O   1.896    H   10 0.907    H   12 0.770    H   16 0.104
    10  H   0.914    O    9 0.907
    11  O   1.919    H   14 0.896    H   13 0.829    H   12 0.110
    12  H   0.882    O    9 0.770    O   11 0.110
    13  H   0.894    O   11 0.829    O    2 0.061
    14  H   0.906    O   11 0.896
    15  O   2.197    H   16 0.756    H   17 0.714    H   18 0.535    O    3 0.073    O    7 0.054
    16  H   0.864    O   15 0.756    O    9 0.104
    17  H   0.856    O   15 0.714    O    7 0.139
    18  H   0.847    O   15 0.535    O    3 0.299
    19  O   1.891    H   20 0.884    H   21 0.841    H   22 0.087
    20  H   0.903    O   19 0.884
    21  H   0.894    O   19 0.841
    22  H   0.881    O    7 0.793    O   19 0.087
    23  N   3.068    H   24 0.969    H   26 0.967    H   25 0.944    H    6 0.126
    24  H   0.971    N   23 0.969
    25  H   0.964    N   23 0.944
    26  H   0.971    N   23 0.967
 MOs/occ written to file <molden.input>
 
molecular dipole:
                 x           y           z       tot (Debye)
 q only:       -1.129       0.353       0.674
   full:       -1.445      -0.121       0.207       3.723
molecular quadrupole (traceless):
                xx          xy          yy          xz          yz          zz
 q only:        0.443       0.577      -5.496       7.482      -1.312       5.053
  q+dip:        2.872       1.448      -7.219       8.667      -3.745       4.346
   full:        2.517       1.374      -7.486       9.035      -3.761       4.969

SCC energy    :     -50.7285557
rep           :       0.2745378
ES            :       0.2423490
AES           :      -0.0635266
AXC           :      -0.0080719
disp          :      -0.0191167
XB            :       0.0000000
fix           :       0.0000000
total E       :     -50.4537910
atomizationE  :       4.9840952     3127.57
(atE without considering molecular charge,
 total energy contains solvation terms)
H-L gap (eV)  :          9.0778
optimized geometry written to: xtbopt.xyz


------------------------------------------------------------------------
 * finished run on 2019/09/16 at 12:25:25.579     
------------------------------------------------------------------------
 total:
 * wall-time:     0 d,  0 h,  0 min,  1.901 sec
 *  cpu-time:     0 d,  0 h,  0 min,  1.808 sec
 * ratio c/w:     0.951 speedup
 SCF:
 * wall-time:     0 d,  0 h,  0 min,  0.135 sec
 *  cpu-time:     0 d,  0 h,  0 min,  0.132 sec
 * ratio c/w:     0.981 speedup
 ANC optimizer:
 * wall-time:     0 d,  0 h,  0 min,  1.744 sec
 *  cpu-time:     0 d,  0 h,  0 min,  1.656 sec
 * ratio c/w:     0.949 speedup

