      -----------------------------------------------------------      
     |                   =====================                   |     
     |                           x T B                           |     
     |                   =====================                   |     
     |                         S. Grimme                         |     
     |          Mulliken Center for Theoretical Chemistry        |     
     |                    University of Bonn                     |     
     |                 Version 6.0.1 (SAW181210)                 |     
      -----------------------------------------------------------      

   This program is distributed in the hope that it will be useful,
   but WITHOUT ANY WARRANTY; without even the implied warranty of
   MERCHANTABILITY or FITNESS FOR A PARTICULAR PURPOSE.
   
   FOR NON-COMMERCIAL, ACADEMIA USE ONLY.
   
   Cite this work as:
   S. Grimme, C. Bannwarth, P. Shushkov, J. Comput. Theory Chem., 2017,
   13, 1989-2009.
   C. Bannwarth, S. Ehlert and S. Grimme., ChemRxiv, 2018, preprint.
   http://doi.org/10.26434/chemrxiv.7246238.v1
   
   for sTDA-xTB:
   S. Grimme and C. Bannwarth, J. Chem. Phys., 2016, 145, 054103.
   
   in the mass-spec context:
   V. Asgeirsson, C. Bauer and S. Grimme, Chem. Sci., 2017, 8, 4879.
   
   if GBSA is used:
   P. Shushkov, F. März and S. Grimme, unpublished.
   
   for ANC optimizer:
   S. Grimme, unpublished.
   Rational Function algorithm used in ANCopt:
   F. Eckert, P. Pulay, H.-J. Werner, J. Comput. Chem., 1997, 18, 1473.
   
   with help from (in alphabetical order)
   C. Bannwarth, F. Bohle, G. Brandenburg, E. Caldeweyher, M. Checinski,
   S. Dohm, S. Ehlert, S. Ehrlich, F. März, H. Neugebauer, J. Pisarek,
   P. Pracht, P. Shushkov, and S. Spicher.
   
 * started run on 2019/09/16 at 11:44:24.920     
========================================================================
 # omp threads = 1
========================================================================
number of atoms            : 23
number of electrons        : 72
charge                     : 0
spin                       : .0
first test random number   : .5776

########################################################################
# WARNING! Please study the warnings concerning your input carefully
#  - XTBPATH is not set, using XTBHOME instead
#  - the use of '-opt' is discouraged, please use '--opt' next time
#  - the use of '-chrg' is discouraged, please use '--chrg' next time
#  - the use of '-uhf' is discouraged, please use '--uhf' next time
########################################################################

           ------------------------------------------------- 
          |                 G F N 2 - x T B                 |
          | Geometry, Frequencies, Noncovalent interactions |
          |            JCTC 2018 parametrisation            |
           ------------------------------------------------- 
      method parameters     
 k(s)        :  1.8500
 k(p)        :  2.2300
 k(d)        :  2.2300
 k(f)        :  2.0000
 kEN (H0ij)  : -2.0000
 D4 a1       :  0.5200
 D4 a2       :  5.0000
 D4 s6       :  1.0000
 D4 s8       :  2.7000
 D4 s9       :  5.0000
 alphaj      :  2.0000


            Z     q(EN)     CN     RAES       Cart. coordinates
     1  S   6.0    0.64    4.29    4.22    -2.61878    -3.28347    -2.27691
     2  O   6.0   -0.31    1.21    1.80     0.03032    -4.15911    -2.65591
     3  O   6.0   -0.31    1.21    1.80    -3.49239    -4.02199     0.29593
     4  O   6.0   -0.31    1.18    1.80    -2.72752    -0.48191    -2.53681
     5  O   6.0   -0.25    2.08    1.84    -4.26272    -4.45461    -4.18437
     6  H   1.0    0.15    1.21    1.47    -4.19324    -6.25973    -4.01761
     7  O   6.0   -0.38    1.63    1.81     2.36293    -0.01903     3.12132
     8  H   1.0    0.17    0.94    1.42     3.51169    -0.12011     4.58894
     9  O   6.0   -0.29    2.04    1.83     1.15664     2.76513    -3.11116
    10  H   1.0    0.17    1.02    1.43    -0.42333     1.88658    -3.32667
    11  H   1.0    0.15    1.02    1.43     0.87085     3.94368    -1.75324
    12  O   6.0   -0.22    2.92    2.59     3.53905    -1.05818    -1.13094
    13  H   1.0    0.16    1.05    1.44     2.60434    -2.56798    -1.71115
    14  H   1.0    0.14    1.04    1.43     3.14323     0.44928    -2.16095
    15  H   1.0    0.16    1.20    1.47     3.29271    -0.74183     0.69409
    16  O   6.0   -0.22    2.92    2.58    -2.15488    -0.17621     3.08343
    17  H   1.0    0.12    0.96    1.43    -2.71264     1.19916     1.94891
    18  H   1.0    0.15    1.07    1.44    -2.77257    -1.84566     2.51648
    19  H   1.0    0.16    1.22    1.47    -0.30374    -0.16552     3.33771
    20  N   5.0   -0.22    2.99    1.92     0.93971     4.74111     1.87746
    21  H   1.0    0.13    1.06    1.44     1.64763     3.03396     2.42111
    22  H   1.0    0.10    0.99    1.43     0.09101     5.47775     3.44211
    23  H   1.0    0.10    0.99    1.43     2.47171     5.85868     1.53823

  Z AO/shell   Hii/eV     exponent
  1     Wed Apr 25 08:07:45 CEST 2018   EN: 2.200 GM2: 0.406  GM3: 0.0800  RAES: 1.40
     1s    -10.707211    1.230000
  7     Wed Apr 25 08:07:45 CEST 2018   EN: 3.040 GM2: 0.461  GM3:-0.0640  RAES: 1.90
     2s    -16.686243    2.339881
     2p    -12.523956    2.014332
  8     Wed Apr 25 08:07:45 CEST 2018   EN: 3.440 GM2: 0.452  GM3:-0.0517  RAES: 1.80
     2s    -20.229985    2.439742
     2p    -15.503117    2.137023
 16     Tue Apr 24 11:44:34 CEST 2018   EN: 2.580 GM2: 0.340  GM3:-0.0502  RAES: 3.10
     3s    -20.029654    1.981333
     3p    -11.377694    2.025643
     3d     -0.420282    1.702555
 no old-style atom pair restraining (fixing) potential

molecular fragmentation (1/2 indicates fragments):
11111122222222222222222
# atoms in fragment 1/2:     6    17
 fragment masses (1/2) :       97.07       90.10
CMA distance (Bohr)    :   6.624
constraining FC (au)   :  0.0500
           ------------------------------------------------- 
          |        Self-Consistent Charge Iterations        |
           ------------------------------------------------- 

 Ncao       : 59
 Nao        : 58
 Nshell     : 34
 Nel        : 72
 T(el)      :   300.0
 intcut     :    25.0
 scfconv/Eh :  0.100E-05
   qconv/e  :  0.100E-03
 intneglect :  0.100E-07
 broydamp   :      0.250
 iter      E             dE          RMSdq      gap      omega  full diag
   1    -45.4589755 -0.454590E+02  0.717E+00   10.21       0.0  T
   2    -45.5048701 -0.458945E-01  0.517E+00    9.42       1.0  T
   3    -45.5377890 -0.329189E-01  0.139E+00    7.63       1.0  T
   4    -45.5430923 -0.530331E-02  0.554E-01    8.04       1.0  T
   5    -45.5436760 -0.583684E-03  0.313E-01    8.05       1.0  T
   6    -45.5440726 -0.396583E-03  0.137E-01    8.11       1.0  T
   7    -45.5441637 -0.911186E-04  0.501E-02    8.10       1.0  T
   8    -45.5441742 -0.104856E-04  0.309E-02    8.09       1.0  T
   9    -45.5441796 -0.542459E-05  0.103E-02    8.11       2.0  T
  10    -45.5441801 -0.552430E-06  0.233E-03    8.11       8.9  T
  11    -45.5441802 -0.123409E-07  0.127E-03    8.11      16.4  T
  12    -45.5441802 -0.758533E-08  0.516E-04    8.11      40.4  T
  13    -45.5441802 -0.135337E-08  0.158E-04    8.11     132.1  T
speedup  1.00
cpu  time for SCC    0.01 s
wall time for SCC    0.01 s

   *** convergence criteria satisfied after 13 iterations ***

          eigenvalues
 #    :          24         25         26         27         28         29         30         31
 occ. :        2.000      2.000      2.000      2.000      2.000      2.000      2.000      2.000
 eps  :       -13.157    -12.967    -12.831    -12.037    -11.901    -11.787    -11.696    -11.267
 #    :          32         33         34         35         36         37         38         39
 occ. :        2.000      2.000      2.000      2.000      2.000      0.000      0.000      0.000
 eps  :       -11.200    -11.010    -10.725    -10.678    -10.034     -1.925     -0.713     -0.165
 #    :          40         41         42         43         44         45         46         47
 occ. :        0.000      0.000      0.000      0.000      0.000      0.000      0.000      0.000
 eps  :         0.712      0.953      1.383      2.282      3.265      3.735      5.115      5.566


   #   Z            q   n(s)   n(p)   n(d)      C6AA      α(0)
   1  16 S      1.587  1.585  1.848  0.980    91.387    16.090
   2   8 O     -0.757  1.774  4.983  0.000    30.320     7.383
   3   8 O     -0.760  1.777  4.983  0.000    30.411     7.394
   4   8 O     -0.738  1.768  4.970  0.000    29.762     7.314
   5   8 O     -0.540  1.719  4.821  0.000    23.757     6.580
   6   1 H      0.360  0.640  0.000  0.000     0.556     1.167
   7   8 O     -0.856  1.824  5.032  0.000    33.235     7.732
   8   1 H      0.209  0.791  0.000  0.000     1.076     1.630
   9   8 O     -0.620  1.740  4.881  0.000    25.681     6.840
  10   1 H      0.323  0.677  0.000  0.000     0.655     1.271
  11   1 H      0.313  0.687  0.000  0.000     0.684     1.299
  12   8 O     -0.457  1.657  4.800  0.000    21.933     6.325
  13   1 H      0.394  0.606  0.000  0.000     0.496     1.106
  14   1 H      0.395  0.605  0.000  0.000     0.494     1.104
  15   1 H      0.403  0.597  0.000  0.000     0.473     1.076
  16   8 O     -0.427  1.650  4.778  0.000    21.331     6.238
  17   1 H      0.388  0.612  0.000  0.000     0.507     1.119
  18   1 H      0.401  0.599  0.000  0.000     0.483     1.092
  19   1 H      0.415  0.585  0.000  0.000     0.452     1.052
  20   7 N     -0.496  1.411  4.085  0.000    33.207     8.558
  21   1 H      0.206  0.794  0.000  0.000     1.078     1.627
  22   1 H      0.128  0.872  0.000  0.000     1.560     1.956
  23   1 H      0.131  0.869  0.000  0.000     1.540     1.944

 Mol. C6AA /au·bohr⁶  :       4570.951058
 Mol. C8AA /au·bohr⁸  :     100706.977004
 Mol. α(0) /au        :         97.896847

 
 Wiberg/Mayer (AO) data. WBOs > 0.1 written file <wbo>
 largest (>0.05) Wiberg bond orders for each atom
           total WBO             WBO to atom ...
     1  S   4.926    O    4 1.337    O    2 1.281    O    3 1.275    O    5 1.001
     2  O   1.686    S    1 1.281    O    4 0.116    O    3 0.111    H   13 0.076    O    5 0.072
     3  O   1.688    S    1 1.275    O    4 0.113    O    2 0.111    H   18 0.083    O    5 0.072
     4  O   1.692    S    1 1.337    O    2 0.116    O    3 0.113    O    5 0.055
     5  O   2.052    S    1 1.001    H    6 0.846    O    2 0.072    O    3 0.072    O    4 0.055
     6  H   0.870    O    5 0.846
     7  O   1.595    H    8 0.944    H   19 0.207    H   15 0.194    H   21 0.069    O   16 0.062    O   12 0.061
     8  H   0.956    O    7 0.944
     9  O   1.889    H   11 0.869    H   10 0.855    H   14 0.088
    10  H   0.895    O    9 0.855
    11  H   0.902    O    9 0.869
    12  O   2.285    H   13 0.760    H   14 0.751    H   15 0.638    O    7 0.061
    13  H   0.845    O   12 0.760    O    2 0.076
    14  H   0.844    O   12 0.751    O    9 0.088
    15  H   0.837    O   12 0.638    O    7 0.194
    16  O   2.305    H   17 0.836    H   18 0.748    H   19 0.614    O    7 0.062
    17  H   0.849    O   16 0.836
    18  H   0.839    O   16 0.748    O    3 0.083
    19  H   0.828    O   16 0.614    O    7 0.207
    20  N   2.935    H   23 0.979    H   22 0.977    H   21 0.884
    21  H   0.958    N   20 0.884    O    7 0.069
    22  H   0.984    N   20 0.977
    23  H   0.983    N   20 0.979
 MOs/occ written to file <molden.input>
 
molecular dipole:
                 x           y           z       tot (Debye)
 q only:        0.223       0.443       0.759
   full:       -0.072       0.131       0.850       2.195
molecular quadrupole (traceless):
                xx          xy          yy          xz          yz          zz
 q only:        1.496       0.225       0.836      -4.092       5.874      -2.331
  q+dip:       -0.718       5.102       3.854       2.804      11.969      -3.136
   full:       -0.811       5.394       3.986       3.030      12.287      -3.174

SCC energy    :     -45.5441802
rep           :       0.2562220
ES            :       0.2645735
AES           :      -0.0601621
AXC           :      -0.0064623
disp          :      -0.0163263
XB            :       0.0000000
fix           :       0.0000000
total E       :     -45.2877649
atomizationE  :       4.3708274     2742.74
(atE without considering molecular charge,
 total energy contains solvation terms)
H-L gap (eV)  :          8.1093
           ------------------------------------------------- 
          |                 ===============                 |
          |                   A N C O P T                   |
          |                 ===============                 |
          |          Approximate Normal Coordinate          |
          |           Rational Function Optimizer           |
           ------------------------------------------------- 
dumping coords to <xtbopt.coord> and <xtbopt.log>
 optlevel               2
 Maxcycle             460
 Maxmicro              25
 Econv         1.000000000000000E-007
 Gconv         2.000000000000000E-004
 Maxdispl       1.00000000000000     
 Hlow          5.000000000000000E-003
 S6             20.0000000000000     
 Nvar               63

generating ANC from model Hessian ...
 Shifting diagonal of input Hessian by   4.879308853947809E-003
 Lowest  eigenvalues of input Hessian
   -0.000000   -0.000000   -0.000000   -0.000000   -0.000000    0.000000
    0.005000    0.005803    0.006241    0.006543    0.007111    0.007346
    0.007913    0.008654    0.009384    0.009549    0.011218    0.011858
 Highest eigenvalues
    1.557782    1.584816    1.585798    3.137835    3.216072    3.310911
 
cpu  time for ANC gen    0.02 s
wall time for ANC gen    0.02 s
................................................................................
.............................. CYCLE    1 ......................................
................................................................................
   1    -45.5441802 -0.455442E+02  0.746E-05    8.11       0.0  T
   2    -45.5441802 -0.103739E-10  0.575E-05    8.11     362.3  T
   3    -45.5441802 -0.106652E-10  0.271E-05    8.11     769.9  T
speedup  1.25
cpu  time for SCC    0.00 s
wall time for SCC    0.00 s
speedup  1.08
cpu  time for grad    0.01 s
wall time for grad    0.01 s
 E :    -45.28776488  G :  0.203568    pred/act E change:  0.000D+00  0.432D-07
Maxdispl :   0.1187   ||displ|| :   0.3308   Lambda : -0.328D-01
Largest |displ|/coords:  0.1187 (  25)  0.1154 (  20)  0.1067 (  47)
................................................................................
.............................. CYCLE    2 ......................................
................................................................................
   1    -45.5578210 -0.455578E+02  0.336E-01    8.14       0.0  T
   2    -45.5580363 -0.215298E-03  0.255E-01    8.18       1.0  T
   3    -45.5581306 -0.942793E-04  0.889E-02    8.24       1.0  T
   4    -45.5581470 -0.163908E-04  0.211E-02    8.24       1.0  T
   5    -45.5581485 -0.150842E-05  0.696E-03    8.23       3.0  T
   6    -45.5581486 -0.709999E-07  0.361E-03    8.23       5.8  T
   7    -45.5581486 -0.330985E-07  0.153E-03    8.23      13.7  T
speedup  1.13
cpu  time for SCC    0.01 s
wall time for SCC    0.01 s
speedup  1.02
cpu  time for grad    0.01 s
wall time for grad    0.01 s
 E :    -45.31433224  G :  0.126941    pred/act E change:  0.000D+00 -0.266D-01
Maxdispl :   0.1485   ||displ|| :   0.3650   Lambda : -0.184D-01
Largest |displ|/coords:  0.1485 (  23)  0.1317 (  25)  0.1280 (  11)
................................................................................
.............................. CYCLE    3 ......................................
................................................................................
   1    -45.5646909 -0.455647E+02  0.308E-01    8.23       0.0  T
   2    -45.5650193 -0.328399E-03  0.227E-01    8.26       1.0  T
   3    -45.5651597 -0.140406E-03  0.985E-02    8.29       1.0  T
   4    -45.5651701 -0.104477E-04  0.215E-02    8.28       1.0  T
   5    -45.5651714 -0.124430E-05  0.684E-03    8.28       3.0  T
   6    -45.5651714 -0.718122E-07  0.377E-03    8.28       5.5  T
   7    -45.5651715 -0.382654E-07  0.151E-03    8.28      13.8  T
speedup  0.93
cpu  time for SCC    0.00 s
wall time for SCC    0.01 s
speedup  1.01
cpu  time for grad    0.01 s
wall time for grad    0.01 s
 E :    -45.32913958  G :  0.081709    pred/act E change: -0.182D-01 -0.148D-01
Maxdispl :   0.2038   ||displ|| :   0.3736   Lambda : -0.959D-02
Largest |displ|/coords:  0.2038 (  11)  0.1166 (  10)  0.1137 (  23)
................................................................................
.............................. CYCLE    4 ......................................
................................................................................
   1    -45.5671748 -0.455672E+02  0.326E-01    8.25       0.0  T
   2    -45.5675286 -0.353863E-03  0.233E-01    8.29       1.0  T
   3    -45.5676777 -0.149047E-03  0.922E-02    8.33       1.0  T
   4    -45.5676907 -0.130380E-04  0.173E-02    8.33       1.2  T
   5    -45.5676914 -0.704251E-06  0.679E-03    8.33       3.1  T
   6    -45.5676915 -0.589579E-07  0.375E-03    8.33       5.6  T
   7    -45.5676915 -0.299526E-07  0.128E-03    8.33      16.3  T
speedup  1.11
cpu  time for SCC    0.01 s
wall time for SCC    0.01 s
speedup  1.01
cpu  time for grad    0.01 s
wall time for grad    0.01 s
 E :    -45.33676414  G :  0.056465    pred/act E change: -0.104D-01 -0.762D-02
Maxdispl :   0.1884   ||displ|| :   0.3309   Lambda : -0.520D-02
Largest |displ|/coords:  0.1884 (  11)  0.1472 (   4)  0.1136 (  10)
................................................................................
.............................. CYCLE    5 ......................................
................................................................................
   1    -45.5689853 -0.455690E+02  0.286E-01    8.32       0.0  T
   2    -45.5691943 -0.209007E-03  0.203E-01    8.37       1.0  T
   3    -45.5692822 -0.879408E-04  0.692E-02    8.46       1.0  T
   4    -45.5692936 -0.113500E-04  0.130E-02    8.46       1.6  T
   5    -45.5692939 -0.307815E-06  0.533E-03    8.46       3.9  T
   6    -45.5692939 -0.331061E-07  0.277E-03    8.46       7.5  T
speedup  0.87
cpu  time for SCC    0.00 s
wall time for SCC    0.00 s
speedup  0.98
cpu  time for grad    0.01 s
wall time for grad    0.01 s
 E :    -45.34117226  G :  0.044907    pred/act E change: -0.546D-02 -0.441D-02
Maxdispl :   0.1938   ||displ|| :   0.4772   Lambda : -0.904D-02
Largest |displ|/coords:  0.1938 (  11)  0.1729 (  10)  0.1597 (   4)
................................................................................
.............................. CYCLE    6 ......................................
................................................................................
   1    -45.5820880 -0.455821E+02  0.426E-01    8.47       0.0  T
   2    -45.5828752 -0.787176E-03  0.297E-01    8.55       1.0  T
   3    -45.5832280 -0.352831E-03  0.121E-01    8.68       1.0  T
   4    -45.5832486 -0.205550E-04  0.261E-02    8.71       1.0  T
   5    -45.5832497 -0.108144E-05  0.100E-02    8.71       2.1  T
   6    -45.5832498 -0.109221E-06  0.507E-03    8.71       4.1  T
   7    -45.5832498 -0.416007E-07  0.151E-03    8.71      13.8  T
speedup  0.94
cpu  time for SCC    0.00 s
wall time for SCC    0.01 s
speedup  0.99
cpu  time for grad    0.01 s
wall time for grad    0.01 s
 E :    -45.34622036  G :  0.040650    pred/act E change: -0.289D-02 -0.505D-02
Maxdispl :   0.4651   ||displ|| :   0.6195   Lambda : -0.724D-02
Largest |displ|/coords:  0.4651 (  11)  0.1637 (   4)  0.1602 (  17)
................................................................................
.............................. CYCLE    7 ......................................
................................................................................
   1    -45.5710205 -0.455710E+02  0.686E-01    8.44       0.0  T
   2    -45.5719519 -0.931362E-03  0.491E-01    8.51       1.0  T
   3    -45.5723559 -0.404005E-03  0.160E-01    8.64       1.0  T
   4    -45.5724252 -0.693143E-04  0.384E-02    8.64       1.0  T
   5    -45.5724270 -0.173847E-05  0.154E-02    8.64       1.4  T
   6    -45.5724278 -0.805742E-06  0.775E-03    8.64       2.7  T
   7    -45.5724278 -0.698845E-07  0.153E-03    8.64      13.6  T
   8    -45.5724278 -0.494617E-08  0.534E-04    8.64      39.1  T
speedup  1.04
cpu  time for SCC    0.01 s
wall time for SCC    0.01 s
speedup  0.90
cpu  time for grad    0.01 s
wall time for grad    0.01 s
 E :    -45.34532896  G :  0.092080    pred/act E change: -0.555D-02  0.891D-03
Maxdispl :   0.1989   ||displ|| :   0.4185   Lambda : -0.170D-01
Largest |displ|/coords:  0.1989 (  11)  0.1800 (  17)  0.1376 (  25)
................................................................................
.............................. CYCLE    8 ......................................
................................................................................
   1    -45.5845690 -0.455846E+02  0.631E-01    8.88       0.0  T
   2    -45.5853783 -0.809289E-03  0.457E-01    8.87       1.0  T
   3    -45.5858177 -0.439412E-03  0.149E-01    8.83       1.0  T
   4    -45.5858785 -0.608755E-04  0.315E-02    8.81       1.0  T
   5    -45.5858802 -0.163149E-05  0.150E-02    8.82       1.4  T
   6    -45.5858804 -0.237138E-06  0.657E-03    8.82       3.2  T
   7    -45.5858805 -0.127878E-06  0.167E-03    8.82      12.5  T
   8    -45.5858806 -0.973039E-08  0.432E-04    8.82      48.2  T
speedup  1.00
cpu  time for SCC    0.01 s
wall time for SCC    0.01 s
speedup  1.03
cpu  time for grad    0.01 s
wall time for grad    0.01 s
 E :    -45.34738926  G :  0.071076    pred/act E change: -0.501D-02 -0.206D-02
Maxdispl :   0.1314   ||displ|| :   0.3385   Lambda : -0.964D-02
Largest |displ|/coords:  0.1314 (   9)  0.1060 (  17)  0.1020 (  11)
................................................................................
.............................. CYCLE    9 ......................................
................................................................................
   1    -45.5876879 -0.455877E+02  0.441E-01    8.77       0.0  T
   2    -45.5880384 -0.350458E-03  0.316E-01    8.75       1.0  T
   3    -45.5881978 -0.159399E-03  0.987E-02    8.71       1.0  T
   4    -45.5882238 -0.260002E-04  0.186E-02    8.74       1.1  T
   5    -45.5882243 -0.509875E-06  0.779E-03    8.74       2.7  T
   6    -45.5882244 -0.126692E-06  0.403E-03    8.73       5.2  T
   7    -45.5882244 -0.220900E-07  0.859E-04    8.74      24.3  T
speedup  1.13
cpu  time for SCC    0.01 s
wall time for SCC    0.01 s
speedup  1.01
cpu  time for grad    0.01 s
wall time for grad    0.01 s
 E :    -45.35039778  G :  0.053031    pred/act E change: -0.100D-01 -0.301D-02
Maxdispl :   0.2377   ||displ|| :   0.3943   Lambda : -0.539D-02
Largest |displ|/coords:  0.2377 (   8)  0.1389 (   4)  0.1380 (   7)
................................................................................
.............................. CYCLE   10 ......................................
................................................................................
   1    -45.5790576 -0.455791E+02  0.435E-01    8.65       0.0  T
   2    -45.5792342 -0.176622E-03  0.308E-01    8.73       1.0  T
   3    -45.5792967 -0.624982E-04  0.668E-02    8.85       1.0  T
   4    -45.5793141 -0.174290E-04  0.138E-02    8.81       1.5  T
   5    -45.5793143 -0.147463E-06  0.596E-03    8.81       3.5  T
   6    -45.5793143 -0.480881E-07  0.176E-03    8.81      11.8  T
speedup  0.89
cpu  time for SCC    0.00 s
wall time for SCC    0.00 s
speedup  0.99
cpu  time for grad    0.01 s
wall time for grad    0.01 s
 E :    -45.35093684  G :  0.057158    pred/act E change: -0.537D-02 -0.539D-03
Maxdispl :   0.2133   ||displ|| :   0.3747   Lambda : -0.723D-02
Largest |displ|/coords:  0.2133 (   8)  0.1226 (   7)  0.1185 (   4)
................................................................................
.............................. CYCLE   11 ......................................
................................................................................
   1    -45.5979533 -0.455980E+02  0.404E-01    9.01       0.0  T
   2    -45.5980897 -0.136458E-03  0.287E-01    8.93       1.0  T
   3    -45.5981417 -0.519531E-04  0.585E-02    8.80       1.0  T
   4    -45.5981562 -0.145511E-04  0.113E-02    8.84       1.8  T
   5    -45.5981563 -0.758097E-07  0.567E-03    8.83       3.7  T
   6    -45.5981563 -0.118550E-07  0.161E-03    8.83      12.9  T
speedup  1.11
cpu  time for SCC    0.00 s
wall time for SCC    0.00 s
speedup  1.08
cpu  time for grad    0.01 s
wall time for grad    0.01 s
 E :    -45.35252823  G :  0.047304    pred/act E change: -0.311D-02 -0.159D-02
Maxdispl :   0.0795   ||displ|| :   0.1884   Lambda : -0.260D-02
Largest |displ|/coords:  0.0795 (   4)  0.0631 (   5)  0.0560 (  10)
................................................................................
.............................. CYCLE   12 ......................................
................................................................................
   1    -45.5941025 -0.455941E+02  0.184E-01    8.75       0.0  T
   2    -45.5941285 -0.260033E-04  0.133E-01    8.78       1.0  T
   3    -45.5941415 -0.129472E-04  0.275E-02    8.82       1.0  T
   4    -45.5941444 -0.287889E-05  0.748E-03    8.81       2.8  T
   5    -45.5941444 -0.619042E-07  0.311E-03    8.81       6.7  T
   6    -45.5941444 -0.107509E-07  0.134E-03    8.81      15.6  T
speedup  1.09
cpu  time for SCC    0.00 s
wall time for SCC    0.00 s
speedup  0.99
cpu  time for grad    0.01 s
wall time for grad    0.01 s
 E :    -45.35450366  G :  0.035751    pred/act E change: -0.412D-02 -0.198D-02
Maxdispl :   0.1353   ||displ|| :   0.3449   Lambda : -0.426D-02
Largest |displ|/coords:  0.1353 (   7)  0.1313 (   4)  0.1225 (   6)
................................................................................
.............................. CYCLE   13 ......................................
................................................................................
   1    -45.5915530 -0.455916E+02  0.316E-01    8.76       0.0  T
   2    -45.5916512 -0.981678E-04  0.228E-01    8.81       1.0  T
   3    -45.5917008 -0.495924E-04  0.563E-02    8.89       1.0  T
   4    -45.5917114 -0.106674E-04  0.152E-02    8.87       1.4  T
   5    -45.5917117 -0.273899E-06  0.590E-03    8.87       3.5  T
   6    -45.5917117 -0.502931E-07  0.251E-03    8.87       8.3  T
speedup  0.89
cpu  time for SCC    0.00 s
wall time for SCC    0.00 s
speedup  0.99
cpu  time for grad    0.01 s
wall time for grad    0.01 s
 E :    -45.35695115  G :  0.043494    pred/act E change: -0.135D-02 -0.245D-02
Maxdispl :   0.0926   ||displ|| :   0.2409   Lambda : -0.324D-02
Largest |displ|/coords:  0.0926 (   2)  0.0766 (  24)  0.0748 (  59)
................................................................................
.............................. CYCLE   14 ......................................
................................................................................
   1    -45.6001154 -0.456001E+02  0.179E-01    8.92       0.0  T
   2    -45.6001419 -0.265169E-04  0.134E-01    8.92       1.0  T
   3    -45.6001631 -0.211924E-04  0.368E-02    8.92       1.0  T
   4    -45.6001658 -0.267417E-05  0.124E-02    8.92       1.7  T
   5    -45.6001659 -0.165691E-06  0.383E-03    8.92       5.4  T
   6    -45.6001660 -0.137662E-07  0.203E-03    8.92      10.3  T
speedup  0.83
cpu  time for SCC    0.00 s
wall time for SCC    0.00 s
speedup  0.97
cpu  time for grad    0.01 s
wall time for grad    0.01 s
 E :    -45.35910381  G :  0.034831    pred/act E change: -0.238D-02 -0.215D-02
Maxdispl :   0.1136   ||displ|| :   0.3020   Lambda : -0.307D-02
Largest |displ|/coords:  0.1136 (   1)  0.1012 (   2)  0.0884 (  24)
................................................................................
.............................. CYCLE   15 ......................................
................................................................................
   1    -45.6089494 -0.456089E+02  0.222E-01    9.03       0.0  T
   2    -45.6089828 -0.333842E-04  0.163E-01    9.02       1.0  T
   3    -45.6090053 -0.224759E-04  0.388E-02    9.00       1.0  T
   4    -45.6090093 -0.403525E-05  0.123E-02    9.01       1.7  T
   5    -45.6090095 -0.167689E-06  0.442E-03    9.01       4.7  T
   6    -45.6090095 -0.212124E-07  0.208E-03    9.01      10.0  T
speedup  0.87
cpu  time for SCC    0.00 s
wall time for SCC    0.00 s
speedup  0.99
cpu  time for grad    0.01 s
wall time for grad    0.01 s
 E :    -45.36048156  G :  0.027877    pred/act E change: -0.171D-02 -0.138D-02
Maxdispl :   0.0818   ||displ|| :   0.1384   Lambda : -0.119D-02
Largest |displ|/coords:  0.0818 (   2)  0.0416 (   7)  0.0390 (  12)
................................................................................
.............................. CYCLE   16 ......................................
................................................................................
   1    -45.6108658 -0.456109E+02  0.942E-02    9.03       0.0  T
   2    -45.6108778 -0.120045E-04  0.708E-02    9.03       1.0  T
   3    -45.6108884 -0.105752E-04  0.198E-02    9.03       1.1  T
   4    -45.6108895 -0.114332E-05  0.565E-03    9.03       3.7  T
   5    -45.6108896 -0.384094E-07  0.217E-03    9.03       9.6  T
speedup  1.05
cpu  time for SCC    0.00 s
wall time for SCC    0.00 s
speedup  1.06
cpu  time for grad    0.01 s
wall time for grad    0.01 s
 E :    -45.36087395  G :  0.015325    pred/act E change: -0.168D-02 -0.392D-03
Maxdispl :   0.0659   ||displ|| :   0.1534   Lambda : -0.723D-03
Largest |displ|/coords:  0.0659 (   4)  0.0592 (  10)  0.0539 (   5)
................................................................................
.............................. CYCLE   17 ......................................
................................................................................
   1    -45.6083434 -0.456083E+02  0.119E-01    9.00       0.0  T
   2    -45.6083567 -0.133140E-04  0.875E-02    9.02       1.0  T
   3    -45.6083644 -0.763497E-05  0.205E-02    9.06       1.0  T
   4    -45.6083658 -0.145275E-05  0.710E-03    9.05       2.9  T
   5    -45.6083659 -0.638263E-07  0.232E-03    9.05       9.0  T
   6    -45.6083659 -0.633306E-08  0.118E-03    9.05      17.6  T
speedup  1.11
cpu  time for SCC    0.00 s
wall time for SCC    0.00 s
speedup  0.99
cpu  time for grad    0.01 s
wall time for grad    0.01 s
 E :    -45.36122991  G :  0.009106    pred/act E change: -0.608D-03 -0.356D-03
Maxdispl :   0.0572   ||displ|| :   0.1459   Lambda : -0.346D-03
Largest |displ|/coords:  0.0572 (   7)  0.0483 (   1)  0.0482 (   3)
................................................................................
.............................. CYCLE   18 ......................................
................................................................................
   1    -45.6055466 -0.456055E+02  0.103E-01    9.07       0.0  T
   2    -45.6055510 -0.448924E-05  0.758E-02    9.08       1.0  T
   3    -45.6055540 -0.293298E-05  0.125E-02    9.10       1.7  T
   4    -45.6055546 -0.589544E-06  0.416E-03    9.09       5.0  T
   5    -45.6055546 -0.154379E-07  0.133E-03    9.09      15.6  T
   6    -45.6055546 -0.274101E-08  0.555E-04    9.09      37.6  T
speedup  0.87
cpu  time for SCC    0.00 s
wall time for SCC    0.00 s
speedup  0.99
cpu  time for grad    0.01 s
wall time for grad    0.01 s
 E :    -45.36137364  G :  0.012349    pred/act E change: -0.370D-03 -0.144D-03
Maxdispl :   0.0436   ||displ|| :   0.0788   Lambda : -0.177D-03
Largest |displ|/coords:  0.0436 (   2)  0.0238 (   6)  0.0219 (  14)
................................................................................
.............................. CYCLE   19 ......................................
................................................................................
   1    -45.6084230 -0.456084E+02  0.467E-02    9.11       0.0  T
   2    -45.6084249 -0.185393E-05  0.341E-02    9.10       1.0  T
   3    -45.6084260 -0.108108E-05  0.854E-03    9.10       2.4  T
   4    -45.6084262 -0.185595E-06  0.206E-03    9.10      10.1  T
   5    -45.6084262 -0.882229E-08  0.850E-04    9.10      24.5  T
speedup  0.79
cpu  time for SCC    0.00 s
wall time for SCC    0.00 s
speedup  0.96
cpu  time for grad    0.01 s
wall time for grad    0.01 s
 E :    -45.36148351  G :  0.007570    pred/act E change: -0.176D-03 -0.110D-03
Maxdispl :   0.0422   ||displ|| :   0.1007   Lambda : -0.165D-03
Largest |displ|/coords:  0.0422 (   5)  0.0371 (   6)  0.0362 (   2)
................................................................................
.............................. CYCLE   20 ......................................
................................................................................
   1    -45.6095427 -0.456095E+02  0.632E-02    9.12       0.0  T
   2    -45.6095448 -0.204360E-05  0.468E-02    9.12       1.0  T
   3    -45.6095458 -0.105072E-05  0.891E-03    9.11       2.3  T
   4    -45.6095461 -0.309847E-06  0.220E-03    9.12       9.5  T
   5    -45.6095461 -0.630509E-08  0.818E-04    9.12      25.5  T
speedup  0.79
cpu  time for SCC    0.00 s
wall time for SCC    0.00 s
speedup  0.96
cpu  time for grad    0.01 s
wall time for grad    0.01 s
 E :    -45.36157504  G :  0.004614    pred/act E change: -0.888D-04 -0.915D-04
Maxdispl :   0.0542   ||displ|| :   0.1068   Lambda : -0.133D-03
Largest |displ|/coords:  0.0542 (   5)  0.0372 (  14)  0.0290 (  17)
................................................................................
.............................. CYCLE   21 ......................................
................................................................................
   1    -45.6092196 -0.456092E+02  0.875E-02    9.11       0.0  T
   2    -45.6092210 -0.143604E-05  0.651E-02    9.11       1.0  T
   3    -45.6092226 -0.154822E-05  0.733E-03    9.12       2.8  T
   4    -45.6092226 -0.849086E-07  0.304E-03    9.12       6.9  T
   5    -45.6092227 -0.756049E-08  0.801E-04    9.12      26.0  T
   6    -45.6092227 -0.831236E-09  0.430E-04    9.12      48.4  T
speedup  0.89
cpu  time for SCC    0.00 s
wall time for SCC    0.00 s
speedup  0.99
cpu  time for grad    0.01 s
wall time for grad    0.01 s
 E :    -45.36166842  G :  0.004008    pred/act E change: -0.836D-04 -0.934D-04
Maxdispl :   0.0655   ||displ|| :   0.1503   Lambda : -0.156D-03
Largest |displ|/coords:  0.0655 (   5)  0.0523 (  14)  0.0420 (   6)
................................................................................
.............................. CYCLE   22 ......................................
................................................................................
   1    -45.6079576 -0.456080E+02  0.131E-01    9.11       0.0  T
   2    -45.6079608 -0.320669E-05  0.975E-02    9.12       1.0  T
   3    -45.6079641 -0.322306E-05  0.112E-02    9.13       1.9  T
   4    -45.6079643 -0.227249E-06  0.432E-03    9.13       4.8  T
   5    -45.6079643 -0.141438E-07  0.123E-03    9.13      17.0  T
   6    -45.6079643 -0.201434E-08  0.611E-04    9.13      34.1  T
speedup  1.06
cpu  time for SCC    0.00 s
wall time for SCC    0.00 s
speedup  1.06
cpu  time for grad    0.01 s
wall time for grad    0.01 s
 E :    -45.36175953  G :  0.006031    pred/act E change: -0.670D-04 -0.911D-04
Maxdispl :   0.0586   ||displ|| :   0.1038   Lambda : -0.100D-03
Largest |displ|/coords:  0.0586 (   5)  0.0419 (   2)  0.0316 (  14)
................................................................................
.............................. CYCLE   23 ......................................
................................................................................
   1    -45.6085858 -0.456086E+02  0.778E-02    9.13       0.0  T
   2    -45.6085871 -0.129451E-05  0.579E-02    9.13       1.0  T
   3    -45.6085883 -0.116838E-05  0.747E-03    9.14       2.8  T
   4    -45.6085884 -0.111420E-06  0.226E-03    9.14       9.2  T
   5    -45.6085884 -0.415572E-08  0.773E-04    9.14      27.0  T
speedup  1.05
cpu  time for SCC    0.00 s
wall time for SCC    0.00 s
speedup  1.06
cpu  time for grad    0.01 s
wall time for grad    0.01 s
 E :    -45.36181597  G :  0.006443    pred/act E change: -0.797D-04 -0.564D-04
Maxdispl :   0.0743   ||displ|| :   0.1187   Lambda : -0.103D-03
Largest |displ|/coords:  0.0743 (   2)  0.0382 (   1)  0.0365 (   6)
................................................................................
.............................. CYCLE   24 ......................................
................................................................................
   1    -45.6085009 -0.456085E+02  0.741E-02    9.13       0.0  T
   2    -45.6085021 -0.121230E-05  0.551E-02    9.13       1.0  T
   3    -45.6085032 -0.110633E-05  0.748E-03    9.13       2.8  T
   4    -45.6085033 -0.114597E-06  0.233E-03    9.14       8.9  T
   5    -45.6085033 -0.613402E-08  0.790E-04    9.14      26.4  T
speedup  1.05
cpu  time for SCC    0.00 s
wall time for SCC    0.00 s
speedup  1.06
cpu  time for grad    0.01 s
wall time for grad    0.01 s
 E :    -45.36187643  G :  0.005464    pred/act E change: -0.507D-04 -0.605D-04
Maxdispl :   0.0745   ||displ|| :   0.1403   Lambda : -0.116D-03
Largest |displ|/coords:  0.0745 (   2)  0.0645 (   5)  0.0531 (   1)
................................................................................
.............................. CYCLE   25 ......................................
................................................................................
   1    -45.6085289 -0.456085E+02  0.103E-01    9.11       0.0  T
   2    -45.6085314 -0.252609E-05  0.753E-02    9.12       1.0  T
   3    -45.6085335 -0.210830E-05  0.118E-02    9.13       1.8  T
   4    -45.6085337 -0.204400E-06  0.331E-03    9.13       6.3  T
   5    -45.6085337 -0.126999E-07  0.108E-03    9.13      19.3  T
   6    -45.6085337 -0.146026E-08  0.559E-04    9.13      37.3  T
speedup  1.09
cpu  time for SCC    0.00 s
wall time for SCC    0.00 s
speedup  1.07
cpu  time for grad    0.01 s
wall time for grad    0.01 s
 E :    -45.36195266  G :  0.004753    pred/act E change: -0.520D-04 -0.762D-04
Maxdispl :   0.0872   ||displ|| :   0.1618   Lambda : -0.110D-03
Largest |displ|/coords:  0.0872 (   2)  0.0615 (   1)  0.0606 (   5)

generating ANC from model Hessian ...
 Shifting diagonal of input Hessian by   4.862132576911178E-003
 Lowest  eigenvalues of input Hessian
   -0.000000   -0.000000   -0.000000    0.000000    0.000000    0.000000
    0.005000    0.005328    0.006011    0.006330    0.007236    0.007371
    0.008012    0.008613    0.010064    0.014290    0.014522    0.016049
 Highest eigenvalues
    1.356381    1.392315    1.408609    2.570109    3.446095    3.637203
 
cpu  time for ANC gen    0.02 s
wall time for ANC gen    0.02 s
................................................................................
.............................. CYCLE   26 ......................................
................................................................................
   1    -45.6088026 -0.456088E+02  0.113E-01    9.12       0.0  T
   2    -45.6088051 -0.252248E-05  0.829E-02    9.12       1.0  T
   3    -45.6088075 -0.238389E-05  0.135E-02    9.13       1.5  T
   4    -45.6088077 -0.179365E-06  0.383E-03    9.13       5.4  T
   5    -45.6088077 -0.176250E-07  0.119E-03    9.13      17.6  T
   6    -45.6088077 -0.138304E-08  0.680E-04    9.13      30.6  T
   7    -45.6088077 -0.514042E-09  0.161E-04    9.13     129.2  T
speedup  1.13
cpu  time for SCC    0.01 s
wall time for SCC    0.01 s
speedup  1.06
cpu  time for grad    0.01 s
wall time for grad    0.01 s
 E :    -45.36201727  G :  0.005908    pred/act E change:  0.000D+00 -0.646D-04
Maxdispl :   0.0721   ||displ|| :   0.1042   Lambda : -0.134D-03
Largest |displ|/coords:  0.0721 (   6)  0.0431 (   1)  0.0394 (   5)
................................................................................
.............................. CYCLE   27 ......................................
................................................................................
   1    -45.6090217 -0.456090E+02  0.738E-02    9.14       0.0  T
   2    -45.6090224 -0.710465E-06  0.554E-02    9.14       1.0  T
   3    -45.6090229 -0.418449E-06  0.530E-03    9.14       3.9  T
   4    -45.6090230 -0.119745E-06  0.148E-03    9.14      14.1  T
   5    -45.6090230 -0.264087E-08  0.618E-04    9.14      33.8  T
speedup  1.05
cpu  time for SCC    0.00 s
wall time for SCC    0.00 s
speedup  0.96
cpu  time for grad    0.01 s
wall time for grad    0.01 s
 E :    -45.36210818  G :  0.003195    pred/act E change:  0.000D+00 -0.909D-04
Maxdispl :   0.1177   ||displ|| :   0.1950   Lambda : -0.157D-03
Largest |displ|/coords:  0.1177 (   1)  0.0943 (   6)  0.0740 (   7)
................................................................................
.............................. CYCLE   28 ......................................
................................................................................
   1    -45.6088020 -0.456088E+02  0.142E-01    9.14       0.0  T
   2    -45.6088046 -0.257778E-05  0.107E-01    9.14       1.0  T
   3    -45.6088068 -0.217332E-05  0.969E-03    9.15       2.2  T
   4    -45.6088071 -0.326943E-06  0.377E-03    9.15       5.5  T
   5    -45.6088071 -0.963698E-08  0.122E-03    9.15      17.1  T
   6    -45.6088071 -0.102824E-08  0.585E-04    9.15      35.7  T
   7    -45.6088071 -0.522249E-09  0.147E-04    9.15     142.1  T
speedup  1.13
cpu  time for SCC    0.01 s
wall time for SCC    0.01 s
speedup  1.06
cpu  time for grad    0.01 s
wall time for grad    0.01 s
 E :    -45.36217539  G :  0.004190    pred/act E change: -0.675D-04 -0.672D-04
Maxdispl :   0.0725   ||displ|| :   0.1105   Lambda : -0.714D-04
Largest |displ|/coords:  0.0725 (   1)  0.0456 (   6)  0.0358 (   3)
................................................................................
.............................. CYCLE   29 ......................................
................................................................................
   1    -45.6086221 -0.456086E+02  0.672E-02    9.16       0.0  T
   2    -45.6086226 -0.493039E-06  0.501E-02    9.16       1.0  T
   3    -45.6086230 -0.395352E-06  0.418E-03    9.17       5.0  T
   4    -45.6086230 -0.577138E-07  0.162E-03    9.16      12.8  T
   5    -45.6086230 -0.205912E-08  0.562E-04    9.16      37.1  T
speedup  1.03
cpu  time for SCC    0.00 s
wall time for SCC    0.00 s
speedup  1.05
cpu  time for grad    0.01 s
wall time for grad    0.01 s
 E :    -45.36222911  G :  0.003161    pred/act E change: -0.815D-04 -0.537D-04
Maxdispl :   0.1781   ||displ|| :   0.2391   Lambda : -0.110D-03
Largest |displ|/coords:  0.1781 (   1)  0.0844 (   3)  0.0797 (   2)
................................................................................
.............................. CYCLE   30 ......................................
................................................................................
   1    -45.6082980 -0.456083E+02  0.126E-01    9.17       0.0  T
   2    -45.6083002 -0.225681E-05  0.940E-02    9.18       1.0  T
   3    -45.6083020 -0.179296E-05  0.839E-03    9.19       2.5  T
   4    -45.6083023 -0.257159E-06  0.355E-03    9.18       5.9  T
   5    -45.6083023 -0.948155E-08  0.112E-03    9.18      18.7  T
   6    -45.6083023 -0.175396E-08  0.548E-04    9.18      38.0  T
   7    -45.6083023 -0.638828E-09  0.158E-04    9.18     132.1  T
speedup  0.93
cpu  time for SCC    0.01 s
wall time for SCC    0.01 s
speedup  0.98
cpu  time for grad    0.01 s
wall time for grad    0.01 s
 E :    -45.36229631  G :  0.004532    pred/act E change: -0.362D-04 -0.672D-04
Maxdispl :   0.1414   ||displ|| :   0.2001   Lambda : -0.686D-04
Largest |displ|/coords:  0.1414 (   1)  0.0966 (   2)  0.0548 (   6)
................................................................................
.............................. CYCLE   31 ......................................
................................................................................
   1    -45.6080797 -0.456081E+02  0.105E-01    9.18       0.0  T
   2    -45.6080810 -0.138600E-05  0.784E-02    9.18       1.0  T
   3    -45.6080824 -0.132099E-05  0.671E-03    9.19       3.1  T
   4    -45.6080825 -0.135724E-06  0.311E-03    9.19       6.7  T
   5    -45.6080825 -0.861469E-08  0.871E-04    9.19      23.9  T
   6    -45.6080825 -0.108681E-08  0.459E-04    9.19      45.4  T
speedup  1.11
cpu  time for SCC    0.00 s
wall time for SCC    0.00 s
speedup  1.08
cpu  time for grad    0.01 s
wall time for grad    0.01 s
 E :    -45.36234474  G :  0.005616    pred/act E change: -0.579D-04 -0.484D-04
Maxdispl :   0.1660   ||displ|| :   0.2364   Lambda : -0.964D-04
Largest |displ|/coords:  0.1660 (   1)  0.1280 (   2)  0.0767 (   3)
................................................................................
.............................. CYCLE   32 ......................................
................................................................................
   1    -45.6092101 -0.456092E+02  0.106E-01    9.18       0.0  T
   2    -45.6092118 -0.166944E-05  0.792E-02    9.18       1.0  T
   3    -45.6092134 -0.161976E-05  0.785E-03    9.18       2.7  T
   4    -45.6092136 -0.178060E-06  0.322E-03    9.18       6.5  T
   5    -45.6092136 -0.110296E-07  0.100E-03    9.18      20.8  T
   6    -45.6092136 -0.142803E-08  0.484E-04    9.18      43.1  T
speedup  1.11
cpu  time for SCC    0.00 s
wall time for SCC    0.00 s
speedup  1.07
cpu  time for grad    0.01 s
wall time for grad    0.01 s
 E :    -45.36240495  G :  0.004813    pred/act E change: -0.357D-04 -0.602D-04
Maxdispl :   0.2581   ||displ|| :   0.3848   Lambda : -0.102D-03
Largest |displ|/coords:  0.2581 (   1)  0.1845 (   2)  0.1541 (   3)
................................................................................
.............................. CYCLE   33 ......................................
................................................................................
   1    -45.6060201 -0.456060E+02  0.200E-01    9.13       0.0  T
   2    -45.6060260 -0.588764E-05  0.150E-01    9.13       1.0  T
   3    -45.6060311 -0.513595E-05  0.143E-02    9.15       1.5  T
   4    -45.6060318 -0.716202E-06  0.572E-03    9.14       3.6  T
   5    -45.6060319 -0.334456E-07  0.203E-03    9.14      10.3  T
   6    -45.6060319 -0.534806E-08  0.917E-04    9.14      22.7  T
speedup  0.74
cpu  time for SCC    0.00 s
wall time for SCC    0.01 s
speedup  0.92
cpu  time for grad    0.01 s
wall time for grad    0.01 s
 E :    -45.36241155  G :  0.010235    pred/act E change: -0.509D-04 -0.660D-05
Maxdispl :   0.0815   ||displ|| :   0.1139   Lambda : -0.162D-03
Largest |displ|/coords:  0.0815 (   1)  0.0487 (   6)  0.0320 (   2)
................................................................................
.............................. CYCLE   34 ......................................
................................................................................
   1    -45.6097006 -0.456097E+02  0.736E-02    9.16       0.0  T
   2    -45.6097033 -0.271555E-05  0.541E-02    9.15       1.0  T
   3    -45.6097043 -0.104498E-05  0.980E-03    9.14       2.1  T
   4    -45.6097047 -0.409865E-06  0.280E-03    9.14       7.5  T
   5    -45.6097047 -0.104978E-07  0.911E-04    9.14      22.9  T
speedup  0.79
cpu  time for SCC    0.00 s
wall time for SCC    0.00 s
speedup  0.95
cpu  time for grad    0.01 s
wall time for grad    0.01 s
 E :    -45.36248742  G :  0.002389    pred/act E change: -0.587D-04 -0.759D-04
Maxdispl :   0.0683   ||displ|| :   0.1126   Lambda : -0.406D-04
Largest |displ|/coords:  0.0683 (   3)  0.0635 (   2)  0.0450 (   1)
................................................................................
.............................. CYCLE   35 ......................................
................................................................................
   1    -45.6095857 -0.456096E+02  0.635E-02    9.13       0.0  T
   2    -45.6095863 -0.572411E-06  0.474E-02    9.13       1.0  T
   3    -45.6095868 -0.534778E-06  0.528E-03    9.13       3.9  T
   4    -45.6095869 -0.684122E-07  0.177E-03    9.13      11.8  T
   5    -45.6095869 -0.384138E-08  0.659E-04    9.13      31.7  T
   6    -45.6095869 -0.575625E-09  0.321E-04    9.13      64.9  T
speedup  0.89
cpu  time for SCC    0.00 s
wall time for SCC    0.00 s
speedup  0.95
cpu  time for grad    0.01 s
wall time for grad    0.01 s
 E :    -45.36252109  G :  0.002422    pred/act E change: -0.822D-04 -0.337D-04
Maxdispl :   0.2232   ||displ|| :   0.3691   Lambda : -0.106D-03
Largest |displ|/coords:  0.2232 (   3)  0.1985 (   2)  0.1386 (   1)
................................................................................
.............................. CYCLE   36 ......................................
................................................................................
   1    -45.6070701 -0.456071E+02  0.212E-01    9.08       0.0  T
   2    -45.6070771 -0.692313E-05  0.159E-01    9.08       1.0  T
   3    -45.6070836 -0.658507E-05  0.180E-02    9.08       1.2  T
   4    -45.6070845 -0.826261E-06  0.635E-03    9.08       3.3  T
   5    -45.6070845 -0.457748E-07  0.249E-03    9.08       8.4  T
   6    -45.6070845 -0.808981E-08  0.115E-03    9.08      18.1  T
   7    -45.6070845 -0.293223E-08  0.323E-04    9.08      64.5  T
   8    -45.6070845 -0.223800E-09  0.904E-05    9.08     230.7  T
speedup  0.98
cpu  time for SCC    0.01 s
wall time for SCC    0.01 s
speedup  1.04
cpu  time for grad    0.01 s
wall time for grad    0.01 s
 E :    -45.36255784  G :  0.007792    pred/act E change: -0.206D-04 -0.367D-04
Maxdispl :   0.0941   ||displ|| :   0.1211   Lambda : -0.893D-04
Largest |displ|/coords:  0.0941 (   1)  0.0509 (   2)  0.0402 (   3)
................................................................................
.............................. CYCLE   37 ......................................
................................................................................
   1    -45.6095909 -0.456096E+02  0.487E-02    9.11       0.0  T
   2    -45.6095916 -0.721149E-06  0.361E-02    9.11       1.0  T
   3    -45.6095919 -0.340872E-06  0.529E-03    9.10       3.9  T
   4    -45.6095921 -0.126142E-06  0.145E-03    9.10      14.3  T
   5    -45.6095921 -0.295820E-08  0.607E-04    9.10      34.3  T
speedup  1.05
cpu  time for SCC    0.00 s
wall time for SCC    0.00 s
speedup  1.06
cpu  time for grad    0.01 s
wall time for grad    0.01 s
 E :    -45.36259733  G :  0.003558    pred/act E change: -0.604D-04 -0.395D-04
Maxdispl :   0.0524   ||displ|| :   0.0873   Lambda : -0.598D-04
Largest |displ|/coords:  0.0524 (   3)  0.0388 (   6)  0.0248 (   8)
................................................................................
.............................. CYCLE   38 ......................................
................................................................................
   1    -45.6106742 -0.456107E+02  0.574E-02    9.10       0.0  T
   2    -45.6106750 -0.761503E-06  0.428E-02    9.10       1.0  T
   3    -45.6106756 -0.596939E-06  0.582E-03    9.10       3.6  T
   4    -45.6106757 -0.959301E-07  0.206E-03    9.10      10.1  T
   5    -45.6106757 -0.449827E-08  0.689E-04    9.10      30.3  T
   6    -45.6106757 -0.559680E-09  0.387E-04    9.10      53.8  T
speedup  0.87
cpu  time for SCC    0.00 s
wall time for SCC    0.00 s
speedup  0.95
cpu  time for grad    0.01 s
wall time for grad    0.01 s
 E :    -45.36262549  G :  0.004702    pred/act E change: -0.453D-04 -0.282D-04
Maxdispl :   0.1431   ||displ|| :   0.2279   Lambda : -0.756D-04
Largest |displ|/coords:  0.1431 (   3)  0.1148 (   2)  0.0559 (  11)
................................................................................
.............................. CYCLE   39 ......................................
................................................................................
   1    -45.6090843 -0.456091E+02  0.142E-01    9.06       0.0  T
   2    -45.6090876 -0.330113E-05  0.106E-01    9.06       1.0  T
   3    -45.6090909 -0.334235E-05  0.124E-02    9.06       1.7  T
   4    -45.6090913 -0.370262E-06  0.524E-03    9.06       4.0  T
   5    -45.6090913 -0.272631E-07  0.153E-03    9.06      13.7  T
   6    -45.6090913 -0.290785E-08  0.880E-04    9.06      23.7  T
speedup  1.11
cpu  time for SCC    0.00 s
wall time for SCC    0.00 s
speedup  0.99
cpu  time for grad    0.01 s
wall time for grad    0.01 s
 E :    -45.36267637  G :  0.005551    pred/act E change: -0.301D-04 -0.509D-04
Maxdispl :   0.0672   ||displ|| :   0.1190   Lambda : -0.552D-04
Largest |displ|/coords:  0.0672 (   3)  0.0538 (   2)  0.0398 (   4)
................................................................................
.............................. CYCLE   40 ......................................
................................................................................
   1    -45.6088543 -0.456089E+02  0.789E-02    9.06       0.0  T
   2    -45.6088554 -0.118009E-05  0.592E-02    9.06       1.0  T
   3    -45.6088564 -0.947963E-06  0.775E-03    9.06       2.7  T
   4    -45.6088565 -0.162649E-06  0.351E-03    9.06       5.9  T
   5    -45.6088566 -0.106215E-07  0.830E-04    9.06      25.1  T
   6    -45.6088566 -0.753552E-09  0.522E-04    9.06      39.9  T
speedup  0.87
cpu  time for SCC    0.00 s
wall time for SCC    0.00 s
speedup  0.98
cpu  time for grad    0.01 s
wall time for grad    0.01 s
 E :    -45.36271548  G :  0.005333    pred/act E change: -0.398D-04 -0.391D-04
Maxdispl :   0.0535   ||displ|| :   0.1036   Lambda : -0.707D-04
Largest |displ|/coords:  0.0535 (   3)  0.0410 (   4)  0.0324 (  11)
................................................................................
.............................. CYCLE   41 ......................................
................................................................................
   1    -45.6100183 -0.456100E+02  0.730E-02    9.07       0.0  T
   2    -45.6100198 -0.143692E-05  0.546E-02    9.07       1.0  T
   3    -45.6100205 -0.734657E-06  0.900E-03    9.06       2.3  T
   4    -45.6100207 -0.248263E-06  0.393E-03    9.06       5.3  T
   5    -45.6100208 -0.106045E-07  0.824E-04    9.06      25.3  T
   6    -45.6100208 -0.104250E-08  0.485E-04    9.06      43.0  T
speedup  0.87
cpu  time for SCC    0.00 s
wall time for SCC    0.00 s
speedup  0.98
cpu  time for grad    0.01 s
wall time for grad    0.01 s
 E :    -45.36276004  G :  0.004063    pred/act E change: -0.280D-04 -0.446D-04
Maxdispl :   0.2207   ||displ|| :   0.3550   Lambda : -0.115D-03
Largest |displ|/coords:  0.2207 (   3)  0.1472 (   4)  0.1201 (   2)
................................................................................
.............................. CYCLE   42 ......................................
................................................................................
   1    -45.6063771 -0.456064E+02  0.228E-01    9.01       0.0  T
   2    -45.6063863 -0.917669E-05  0.171E-01    9.02       1.0  T
   3    -45.6063921 -0.581062E-05  0.218E-02    9.03       1.0  T
   4    -45.6063936 -0.153235E-05  0.923E-03    9.02       2.3  T
   5    -45.6063937 -0.632016E-07  0.238E-03    9.02       8.8  T
   6    -45.6063937 -0.694704E-08  0.143E-03    9.02      14.6  T
speedup  0.87
cpu  time for SCC    0.00 s
wall time for SCC    0.00 s
speedup  0.98
cpu  time for grad    0.01 s
wall time for grad    0.01 s
 E :    -45.36271765  G :  0.012691    pred/act E change: -0.357D-04  0.424D-04
Maxdispl :   0.1403   ||displ|| :   0.2062   Lambda : -0.287D-03
Largest |displ|/coords:  0.1403 (   3)  0.0819 (   2)  0.0528 (   4)
................................................................................
.............................. CYCLE   43 ......................................
................................................................................
   1    -45.6115336 -0.456115E+02  0.128E-01    9.08       0.0  T
   2    -45.6115384 -0.479490E-05  0.956E-02    9.08       1.0  T
   3    -45.6115411 -0.271320E-05  0.150E-02    9.07       1.4  T
   4    -45.6115419 -0.840295E-06  0.528E-03    9.07       3.9  T
   5    -45.6115420 -0.313503E-07  0.181E-03    9.08      11.5  T
   6    -45.6115420 -0.426270E-08  0.900E-04    9.08      23.2  T
speedup  1.11
cpu  time for SCC    0.00 s
wall time for SCC    0.00 s
speedup  1.07
cpu  time for grad    0.01 s
wall time for grad    0.01 s
 E :    -45.36281049  G :  0.004534    pred/act E change: -0.648D-04 -0.928D-04
Maxdispl :   0.0576   ||displ|| :   0.1004   Lambda : -0.782D-04
Largest |displ|/coords:  0.0576 (   2)  0.0366 (   3)  0.0352 (   1)
................................................................................
.............................. CYCLE   44 ......................................
................................................................................
   1    -45.6100281 -0.456100E+02  0.686E-02    9.05       0.0  T
   2    -45.6100294 -0.130606E-05  0.517E-02    9.04       1.0  T
   3    -45.6100309 -0.151505E-05  0.693E-03    9.04       3.0  T
   4    -45.6100310 -0.116323E-06  0.258E-03    9.04       8.1  T
   5    -45.6100311 -0.704390E-08  0.929E-04    9.04      22.5  T
speedup  1.05
cpu  time for SCC    0.00 s
wall time for SCC    0.00 s
speedup  1.04
cpu  time for grad    0.01 s
wall time for grad    0.01 s
 E :    -45.36281640  G :  0.005943    pred/act E change: -0.150D-03 -0.591D-05
Maxdispl :   0.0563   ||displ|| :   0.0840   Lambda : -0.742D-04
Largest |displ|/coords:  0.0563 (   4)  0.0411 (   3)  0.0184 (  36)
................................................................................
.............................. CYCLE   45 ......................................
................................................................................
   1    -45.6101546 -0.456102E+02  0.543E-02    9.04       0.0  T
   2    -45.6101551 -0.496255E-06  0.405E-02    9.04       1.0  T
   3    -45.6101555 -0.316009E-06  0.522E-03    9.05       4.0  T
   4    -45.6101555 -0.742014E-07  0.197E-03    9.05      10.6  T
   5    -45.6101555 -0.268210E-08  0.518E-04    9.05      40.3  T
speedup  1.03
cpu  time for SCC    0.00 s
wall time for SCC    0.00 s
speedup  0.95
cpu  time for grad    0.01 s
wall time for grad    0.01 s
 E :    -45.36286555  G :  0.003490    pred/act E change: -0.395D-04 -0.491D-04
Maxdispl :   0.0916   ||displ|| :   0.1769   Lambda : -0.616D-04
Largest |displ|/coords:  0.0916 (   4)  0.0716 (   3)  0.0573 (   1)
................................................................................
.............................. CYCLE   46 ......................................
................................................................................
   1    -45.6094599 -0.456095E+02  0.121E-01    9.03       0.0  T
   2    -45.6094617 -0.180018E-05  0.905E-02    9.04       1.0  T
   3    -45.6094632 -0.146580E-05  0.948E-03    9.04       2.2  T
   4    -45.6094634 -0.226131E-06  0.432E-03    9.04       4.8  T
   5    -45.6094634 -0.114075E-07  0.993E-04    9.04      21.0  T
   6    -45.6094634 -0.102817E-08  0.616E-04    9.04      33.8  T
speedup  1.11
cpu  time for SCC    0.00 s
wall time for SCC    0.00 s
speedup  1.03
cpu  time for grad    0.01 s
wall time for grad    0.01 s
 E :    -45.36288618  G :  0.007319    pred/act E change: -0.374D-04 -0.206D-04
Maxdispl :   0.0232   ||displ|| :   0.0461   Lambda : -0.506D-04
Largest |displ|/coords:  0.0232 (   4)  0.0183 (   9)  0.0135 (  13)
................................................................................
.............................. CYCLE   47 ......................................
................................................................................
   1    -45.6101471 -0.456101E+02  0.328E-02    9.04       0.0  T
   2    -45.6101473 -0.216277E-06  0.244E-02    9.04       1.0  T
   3    -45.6101474 -0.175288E-06  0.297E-03    9.04       7.0  T
   4    -45.6101475 -0.246652E-07  0.124E-03    9.04      16.9  T
speedup  1.00
cpu  time for SCC    0.00 s
wall time for SCC    0.00 s
speedup  1.04
cpu  time for grad    0.01 s
wall time for grad    0.01 s
 E :    -45.36292213  G :  0.004574    pred/act E change: -0.318D-04 -0.359D-04
Maxdispl :   0.0486   ||displ|| :   0.1089   Lambda : -0.643D-04
Largest |displ|/coords:  0.0486 (   4)  0.0415 (   1)  0.0320 (   2)
................................................................................
.............................. CYCLE   48 ......................................
................................................................................
   1    -45.6112774 -0.456113E+02  0.754E-02    9.04       0.0  T
   2    -45.6112783 -0.866015E-06  0.566E-02    9.04       1.0  T
   3    -45.6112790 -0.753877E-06  0.598E-03    9.04       3.5  T
   4    -45.6112791 -0.117289E-06  0.266E-03    9.04       7.8  T
   5    -45.6112791 -0.537110E-08  0.767E-04    9.04      27.2  T
speedup  1.05
cpu  time for SCC    0.00 s
wall time for SCC    0.00 s
speedup  1.06
cpu  time for grad    0.01 s
wall time for grad    0.01 s
 E :    -45.36296659  G :  0.002208    pred/act E change: -0.253D-04 -0.445D-04
Maxdispl :   0.1865   ||displ|| :   0.3903   Lambda : -0.102D-03
Largest |displ|/coords:  0.1865 (   4)  0.1445 (   3)  0.1250 (   2)
................................................................................
.............................. CYCLE   49 ......................................
................................................................................
   1    -45.6063320 -0.456063E+02  0.270E-01    8.97       0.0  T
   2    -45.6063406 -0.864091E-05  0.203E-01    8.98       1.0  T
   3    -45.6063489 -0.832700E-05  0.191E-02    8.99       1.1  T
   4    -45.6063500 -0.101134E-05  0.885E-03    8.98       2.4  T
   5    -45.6063500 -0.567202E-07  0.267E-03    8.98       7.8  T
   6    -45.6063500 -0.758208E-08  0.149E-03    8.98      14.0  T
   7    -45.6063500 -0.264985E-08  0.325E-04    8.98      64.1  T
   8    -45.6063500 -0.305370E-09  0.738E-05    8.98     282.6  T
speedup  1.00
cpu  time for SCC    0.01 s
wall time for SCC    0.01 s
speedup  1.00
cpu  time for grad    0.01 s
wall time for grad    0.01 s
 E :    -45.36289907  G :  0.013145    pred/act E change: -0.326D-04  0.675D-04
Maxdispl :   0.0984   ||displ|| :   0.2072   Lambda : -0.343D-03
Largest |displ|/coords:  0.0984 (   3)  0.0929 (   4)  0.0712 (   2)
................................................................................
.............................. CYCLE   50 ......................................
................................................................................
   1    -45.6120259 -0.456120E+02  0.144E-01    9.04       0.0  T
   2    -45.6120305 -0.458318E-05  0.108E-01    9.04       1.0  T
   3    -45.6120336 -0.311085E-05  0.134E-02    9.03       1.6  T
   4    -45.6120344 -0.778510E-06  0.513E-03    9.03       4.1  T
   5    -45.6120344 -0.262396E-07  0.183E-03    9.04      11.4  T
   6    -45.6120344 -0.401163E-08  0.888E-04    9.03      23.5  T
speedup  1.11
cpu  time for SCC    0.00 s
wall time for SCC    0.00 s
speedup  1.08
cpu  time for grad    0.01 s
wall time for grad    0.01 s
 E :    -45.36301010  G :  0.003635    pred/act E change: -0.590D-04 -0.111D-03
Maxdispl :   0.0280   ||displ|| :   0.0567   Lambda : -0.429D-04
Largest |displ|/coords:  0.0280 (   3)  0.0198 (   4)  0.0167 (   1)
................................................................................
.............................. CYCLE   51 ......................................
................................................................................
   1    -45.6115029 -0.456115E+02  0.430E-02    9.03       0.0  T
   2    -45.6115033 -0.456807E-06  0.321E-02    9.03       1.0  T
   3    -45.6115037 -0.391930E-06  0.457E-03    9.03       4.6  T
   4    -45.6115038 -0.528497E-07  0.177E-03    9.03      11.8  T
   5    -45.6115038 -0.271074E-08  0.515E-04    9.03      40.5  T
   6    -45.6115038 -0.321613E-09  0.288E-04    9.03      72.4  T
speedup  1.11
cpu  time for SCC    0.00 s
wall time for SCC    0.00 s
speedup  1.04
cpu  time for grad    0.01 s
wall time for grad    0.01 s
 E :    -45.36302257  G :  0.004062    pred/act E change: -0.179D-03 -0.125D-04
Maxdispl :   0.0446   ||displ|| :   0.1143   Lambda : -0.417D-04
Largest |displ|/coords:  0.0446 (   4)  0.0408 (   3)  0.0334 (   2)
................................................................................
.............................. CYCLE   52 ......................................
................................................................................
   1    -45.6104281 -0.456104E+02  0.843E-02    9.01       0.0  T
   2    -45.6104290 -0.858830E-06  0.633E-02    9.01       1.0  T
   3    -45.6104298 -0.756022E-06  0.636E-03    9.02       3.3  T
   4    -45.6104299 -0.101837E-06  0.301E-03    9.02       6.9  T
   5    -45.6104299 -0.640132E-08  0.711E-04    9.02      29.3  T
   6    -45.6104299 -0.419327E-09  0.449E-04    9.02      46.5  T
speedup  0.89
cpu  time for SCC    0.00 s
wall time for SCC    0.00 s
speedup  0.97
cpu  time for grad    0.01 s
wall time for grad    0.01 s
 E :    -45.36305103  G :  0.003381    pred/act E change: -0.215D-04 -0.285D-04
Maxdispl :   0.0472   ||displ|| :   0.1108   Lambda : -0.278D-04
Largest |displ|/coords:  0.0472 (   4)  0.0395 (   3)  0.0338 (   7)

generating ANC from model Hessian ...
 Shifting diagonal of input Hessian by   4.951166312906610E-003
 Lowest  eigenvalues of input Hessian
   -0.000000   -0.000000    0.000000    0.000000    0.000000    0.000000
    0.005000    0.005444    0.005974    0.006267    0.006647    0.006895
    0.007692    0.008759    0.010337    0.012420    0.014509    0.015195
 Highest eigenvalues
    1.360916    1.387304    1.407312    2.587366    3.424829    3.645388
 
cpu  time for ANC gen    0.02 s
wall time for ANC gen    0.02 s
................................................................................
.............................. CYCLE   53 ......................................
................................................................................
   1    -45.6102098 -0.456102E+02  0.790E-02    9.01       0.0  T
   2    -45.6102105 -0.773390E-06  0.593E-02    9.01       1.0  T
   3    -45.6102112 -0.673840E-06  0.634E-03    9.01       3.3  T
   4    -45.6102113 -0.961039E-07  0.301E-03    9.01       6.9  T
   5    -45.6102113 -0.602878E-08  0.716E-04    9.01      29.1  T
   6    -45.6102113 -0.433083E-09  0.448E-04    9.01      46.5  T
speedup  1.11
cpu  time for SCC    0.00 s
wall time for SCC    0.00 s
speedup  1.04
cpu  time for grad    0.01 s
wall time for grad    0.01 s
 E :    -45.36306662  G :  0.003954    pred/act E change:  0.000D+00 -0.156D-04
Maxdispl :   0.0251   ||displ|| :   0.0391   Lambda : -0.320D-04
Largest |displ|/coords:  0.0251 (   5)  0.0143 (   3)  0.0129 (   4)
................................................................................
.............................. CYCLE   54 ......................................
................................................................................
   1    -45.6111962 -0.456112E+02  0.231E-02    9.02       0.0  T
   2    -45.6111963 -0.118427E-06  0.172E-02    9.02       1.2  T
   3    -45.6111964 -0.792946E-07  0.199E-03    9.02      10.5  T
   4    -45.6111964 -0.181936E-07  0.658E-04    9.02      31.7  T
   5    -45.6111964 -0.457874E-09  0.235E-04    9.02      88.6  T
speedup  0.79
cpu  time for SCC    0.00 s
wall time for SCC    0.00 s
speedup  0.93
cpu  time for grad    0.01 s
wall time for grad    0.01 s
 E :    -45.36308919  G :  0.001485    pred/act E change:  0.000D+00 -0.226D-04
Maxdispl :   0.0450   ||displ|| :   0.0740   Lambda : -0.234D-04
Largest |displ|/coords:  0.0450 (   5)  0.0324 (   3)  0.0319 (   6)
................................................................................
.............................. CYCLE   55 ......................................
................................................................................
   1    -45.6118315 -0.456118E+02  0.374E-02    9.03       0.0  T
   2    -45.6118317 -0.150685E-06  0.278E-02    9.03       1.0  T
   3    -45.6118318 -0.919154E-07  0.260E-03    9.03       8.0  T
   4    -45.6118318 -0.231434E-07  0.777E-04    9.03      26.8  T
   5    -45.6118318 -0.670845E-09  0.283E-04    9.03      73.7  T
speedup  1.05
cpu  time for SCC    0.00 s
wall time for SCC    0.00 s
speedup  1.02
cpu  time for grad    0.01 s
wall time for grad    0.01 s
 E :    -45.36310688  G :  0.001332    pred/act E change: -0.160D-04 -0.177D-04
Maxdispl :   0.1028   ||displ|| :   0.1600   Lambda : -0.333D-04
Largest |displ|/coords:  0.1028 (   5)  0.0706 (   6)  0.0649 (   3)
................................................................................
.............................. CYCLE   56 ......................................
................................................................................
   1    -45.6116109 -0.456116E+02  0.822E-02    9.03       0.0  T
   2    -45.6116114 -0.548486E-06  0.613E-02    9.03       1.0  T
   3    -45.6116119 -0.452572E-06  0.515E-03    9.03       4.0  T
   4    -45.6116119 -0.666464E-07  0.182E-03    9.03      11.5  T
   5    -45.6116119 -0.379889E-08  0.594E-04    9.03      35.1  T
   6    -45.6116119 -0.360373E-09  0.312E-04    9.03      66.9  T
speedup  0.89
cpu  time for SCC    0.00 s
wall time for SCC    0.00 s
speedup  0.96
cpu  time for grad    0.01 s
wall time for grad    0.01 s
 E :    -45.36312980  G :  0.002387    pred/act E change: -0.117D-04 -0.229D-04
Maxdispl :   0.0660   ||displ|| :   0.1147   Lambda : -0.164D-04
Largest |displ|/coords:  0.0660 (   5)  0.0623 (   6)  0.0440 (   3)
................................................................................
.............................. CYCLE   57 ......................................
................................................................................
   1    -45.6110379 -0.456110E+02  0.576E-02    9.02       0.0  T
   2    -45.6110383 -0.337774E-06  0.428E-02    9.03       1.0  T
   3    -45.6110385 -0.216497E-06  0.438E-03    9.03       4.8  T
   4    -45.6110386 -0.503216E-07  0.135E-03    9.03      15.5  T
   5    -45.6110386 -0.217190E-08  0.418E-04    9.03      49.9  T
   6    -45.6110386 -0.182389E-09  0.229E-04    9.03      91.2  T
speedup  1.11
cpu  time for SCC    0.00 s
wall time for SCC    0.00 s
speedup  1.04
cpu  time for grad    0.01 s
wall time for grad    0.01 s
 E :    -45.36313874  G :  0.002712    pred/act E change: -0.171D-04 -0.894D-05
Maxdispl :   0.0238   ||displ|| :   0.0333   Lambda : -0.139D-04
Largest |displ|/coords:  0.0238 (   6)  0.0126 (   4)  0.0094 (   2)
................................................................................
.............................. CYCLE   58 ......................................
................................................................................
   1    -45.6112350 -0.456112E+02  0.182E-02    9.03       0.0  T
   2    -45.6112351 -0.911889E-07  0.134E-02    9.03       1.6  T
   3    -45.6112351 -0.633827E-07  0.195E-03    9.03      10.7  T
   4    -45.6112352 -0.104215E-07  0.688E-04    9.03      30.3  T
   5    -45.6112352 -0.449006E-09  0.196E-04    9.03     106.5  T
speedup  1.08
cpu  time for SCC    0.00 s
wall time for SCC    0.00 s
speedup  1.03
cpu  time for grad    0.01 s
wall time for grad    0.01 s
 E :    -45.36314688  G :  0.001316    pred/act E change: -0.830D-05 -0.814D-05
Maxdispl :   0.0311   ||displ|| :   0.0501   Lambda : -0.463D-05
Largest |displ|/coords:  0.0311 (   6)  0.0237 (   5)  0.0209 (   4)
................................................................................
.............................. CYCLE   59 ......................................
................................................................................
   1    -45.6112004 -0.456112E+02  0.264E-02    9.03       0.0  T
   2    -45.6112005 -0.721050E-07  0.197E-02    9.03       1.1  T
   3    -45.6112006 -0.859823E-07  0.162E-03    9.03      12.9  T
   4    -45.6112006 -0.394979E-08  0.744E-04    9.03      28.0  T
   5    -45.6112006 -0.526164E-09  0.198E-04    9.03     105.2  T
speedup  1.05
cpu  time for SCC    0.00 s
wall time for SCC    0.00 s
speedup  1.02
cpu  time for grad    0.01 s
wall time for grad    0.01 s
 E :    -45.36315047  G :  0.001332    pred/act E change: -0.695D-05 -0.359D-05
Maxdispl :   0.0471   ||displ|| :   0.0746   Lambda : -0.662D-05
Largest |displ|/coords:  0.0471 (   6)  0.0342 (   5)  0.0264 (   4)
................................................................................
.............................. CYCLE   60 ......................................
................................................................................
   1    -45.6113233 -0.456113E+02  0.401E-02    9.03       0.0  T
   2    -45.6113234 -0.165284E-06  0.299E-02    9.03       1.0  T
   3    -45.6113236 -0.198648E-06  0.230E-03    9.04       9.1  T
   4    -45.6113236 -0.768854E-08  0.108E-03    9.04      19.3  T
   5    -45.6113236 -0.101556E-08  0.294E-04    9.04      71.0  T
   6    -45.6113236 -0.944880E-10  0.159E-04    9.04     131.1  T
speedup  0.89
cpu  time for SCC    0.00 s
wall time for SCC    0.00 s
speedup  0.96
cpu  time for grad    0.01 s
wall time for grad    0.01 s
 E :    -45.36315477  G :  0.001050    pred/act E change: -0.232D-05 -0.430D-05
Maxdispl :   0.0184   ||displ|| :   0.0343   Lambda : -0.284D-05
Largest |displ|/coords:  0.0184 (   6)  0.0174 (   5)  0.0112 (   4)
................................................................................
.............................. CYCLE   61 ......................................
................................................................................
   1    -45.6115165 -0.456115E+02  0.199E-02    9.04       0.0  T
   2    -45.6115166 -0.497141E-07  0.149E-02    9.04       1.4  T
   3    -45.6115166 -0.533747E-07  0.137E-03    9.04      15.2  T
   4    -45.6115166 -0.397154E-08  0.617E-04    9.04      33.8  T
   5    -45.6115166 -0.329770E-09  0.140E-04    9.04     148.6  T
speedup  1.05
cpu  time for SCC    0.00 s
wall time for SCC    0.00 s
speedup  1.02
cpu  time for grad    0.01 s
wall time for grad    0.01 s
 E :    -45.36315673  G :  0.000604    pred/act E change: -0.333D-05 -0.196D-05
Maxdispl :   0.0361   ||displ|| :   0.0594   Lambda : -0.318D-05
Largest |displ|/coords:  0.0361 (   5)  0.0281 (   6)  0.0214 (   2)
................................................................................
.............................. CYCLE   62 ......................................
................................................................................
   1    -45.6114693 -0.456115E+02  0.348E-02    9.04       0.0  T
   2    -45.6114694 -0.112341E-06  0.260E-02    9.04       1.0  T
   3    -45.6114695 -0.123932E-06  0.199E-03    9.04      10.5  T
   4    -45.6114695 -0.813481E-08  0.850E-04    9.04      24.5  T
   5    -45.6114695 -0.573770E-09  0.269E-04    9.04      77.5  T
speedup  0.79
cpu  time for SCC    0.00 s
wall time for SCC    0.00 s
speedup  1.02
cpu  time for grad    0.01 s
wall time for grad    0.01 s
 E :    -45.36315865  G :  0.000759    pred/act E change: -0.142D-05 -0.192D-05
Maxdispl :   0.0193   ||displ|| :   0.0358   Lambda : -0.331D-05
Largest |displ|/coords:  0.0193 (   5)  0.0159 (   2)  0.0080 (   1)
................................................................................
.............................. CYCLE   63 ......................................
................................................................................
   1    -45.6116711 -0.456117E+02  0.232E-02    9.04       0.0  T
   2    -45.6116711 -0.689545E-07  0.173E-02    9.04       1.2  T
   3    -45.6116712 -0.634036E-07  0.201E-03    9.04      10.4  T
   4    -45.6116712 -0.727344E-08  0.708E-04    9.04      29.4  T
   5    -45.6116712 -0.455138E-09  0.206E-04    9.04     101.0  T
speedup  1.05
cpu  time for SCC    0.00 s
wall time for SCC    0.00 s
speedup  1.02
cpu  time for grad    0.01 s
wall time for grad    0.01 s
 E :    -45.36316080  G :  0.000772    pred/act E change: -0.160D-05 -0.215D-05
Maxdispl :   0.0374   ||displ|| :   0.0542   Lambda : -0.280D-05
Largest |displ|/coords:  0.0374 (   5)  0.0219 (   2)  0.0133 (   6)
................................................................................
.............................. CYCLE   64 ......................................
................................................................................
   1    -45.6114387 -0.456114E+02  0.339E-02    9.04       0.0  T
   2    -45.6114389 -0.127172E-06  0.253E-02    9.04       1.0  T
   3    -45.6114390 -0.115387E-06  0.250E-03    9.04       8.4  T
   4    -45.6114390 -0.137698E-07  0.705E-04    9.04      29.6  T
   5    -45.6114390 -0.468802E-09  0.305E-04    9.04      68.4  T
speedup  1.05
cpu  time for SCC    0.00 s
wall time for SCC    0.00 s
speedup  1.02
cpu  time for grad    0.01 s
wall time for grad    0.01 s
 E :    -45.36316245  G :  0.000808    pred/act E change: -0.165D-05 -0.164D-05
Maxdispl :   0.0111   ||displ|| :   0.0219   Lambda : -0.173D-05
Largest |displ|/coords:  0.0111 (   4)  0.0102 (   6)  0.0064 (  13)
................................................................................
.............................. CYCLE   65 ......................................
................................................................................
   1    -45.6115498 -0.456115E+02  0.132E-02    9.05       0.0  T
   2    -45.6115499 -0.394155E-07  0.969E-03    9.05       2.2  T
   3    -45.6115499 -0.259414E-07  0.152E-03    9.04      13.8  T
   4    -45.6115499 -0.444929E-08  0.365E-04    9.05      57.1  T
   5    -45.6115499 -0.300702E-09  0.108E-04    9.04     193.7  T
speedup  0.79
cpu  time for SCC    0.00 s
wall time for SCC    0.00 s
speedup  0.93
cpu  time for grad    0.01 s
wall time for grad    0.01 s
 E :    -45.36316331  G :  0.000616    pred/act E change: -0.141D-05 -0.863D-06
Maxdispl :   0.0063   ||displ|| :   0.0104   Lambda : -0.806D-06
Largest |displ|/coords:  0.0063 (   5)  0.0043 (   3)  0.0029 (  13)
................................................................................
.............................. CYCLE   66 ......................................
................................................................................
   1    -45.6115137 -0.456115E+02  0.716E-03    9.04       0.0  T
   2    -45.6115137 -0.946324E-08  0.533E-03    9.04       3.9  T
   3    -45.6115137 -0.653501E-08  0.701E-04    9.04      29.8  T
   4    -45.6115137 -0.124073E-08  0.262E-04    9.04      79.7  T
speedup  1.00
cpu  time for SCC    0.00 s
wall time for SCC    0.00 s
speedup  0.99
cpu  time for grad    0.01 s
wall time for grad    0.01 s
 E :    -45.36316381  G :  0.000398    pred/act E change: -0.864D-06 -0.498D-06
Maxdispl :   0.0024   ||displ|| :   0.0053   Lambda : -0.512D-06
Largest |displ|/coords:  0.0024 (   9)  0.0020 (   5)  0.0015 (  11)
................................................................................
.............................. CYCLE   67 ......................................
[...]
.............................. CYCLE  109 ......................................
................................................................................
   1    -45.6120979 -0.456121E+02  0.143E-02    9.05       0.0  T
   2    -45.6120979 -0.564165E-07  0.105E-02    9.05       2.0  T
   3    -45.6120980 -0.272980E-07  0.207E-03    9.05      10.1  T
   4    -45.6120980 -0.825115E-08  0.577E-04    9.05      36.1  T
   5    -45.6120980 -0.374065E-09  0.125E-04    9.05     167.2  T
speedup  0.81
cpu  time for SCC    0.00 s
wall time for SCC    0.00 s
speedup  0.93
cpu  time for grad    0.01 s
wall time for grad    0.01 s
 E :    -45.36319447  G :  0.000611    pred/act E change: -0.340D-06 -0.469D-06
Maxdispl :   0.0066   ||displ|| :   0.0142   Lambda : -0.714D-06
Largest |displ|/coords:  0.0066 (   1)  0.0048 (  30)  0.0045 (   8)
................................................................................
.............................. CYCLE  110 ......................................
................................................................................
   1    -45.6120619 -0.456121E+02  0.149E-02    9.05       0.0  T
   2    -45.6120619 -0.321657E-07  0.112E-02    9.05       1.9  T
   3    -45.6120619 -0.254609E-07  0.129E-03    9.05      16.1  T
   4    -45.6120619 -0.415431E-08  0.668E-04    9.05      31.2  T
   5    -45.6120619 -0.213724E-09  0.830E-05    9.05     251.2  T
speedup  1.08
cpu  time for SCC    0.00 s
wall time for SCC    0.00 s
speedup  1.02
cpu  time for grad    0.01 s
wall time for grad    0.01 s
 E :    -45.36319506  G :  0.000547    pred/act E change: -0.448D-06 -0.596D-06
Maxdispl :   0.0181   ||displ|| :   0.0359   Lambda : -0.211D-05
Largest |displ|/coords:  0.0181 (   1)  0.0137 (   5)  0.0124 (  17)
................................................................................
.............................. CYCLE  111 ......................................
................................................................................
   1    -45.6119642 -0.456120E+02  0.315E-02    9.05       0.0  T
   2    -45.6119643 -0.152603E-06  0.236E-02    9.05       1.0  T
   3    -45.6119644 -0.626227E-07  0.287E-03    9.05       7.3  T
   4    -45.6119644 -0.298598E-07  0.126E-03    9.05      16.6  T
   5    -45.6119644 -0.879993E-09  0.174E-04    9.05     119.7  T
   6    -45.6119644 -0.271072E-10  0.123E-04    9.05     170.0  T
speedup  0.91
cpu  time for SCC    0.00 s
wall time for SCC    0.00 s
speedup  0.96
cpu  time for grad    0.01 s
wall time for grad    0.01 s
 E :    -45.36319643  G :  0.000766    pred/act E change: -0.357D-06 -0.137D-05
Maxdispl :   0.0104   ||displ|| :   0.0238   Lambda : -0.112D-05
Largest |displ|/coords:  0.0104 (   5)  0.0094 (  17)  0.0077 (   1)
................................................................................
.............................. CYCLE  112 ......................................
................................................................................
   1    -45.6119292 -0.456119E+02  0.192E-02    9.05       0.0  T
   2    -45.6119292 -0.539930E-07  0.143E-02    9.05       1.5  T
   3    -45.6119292 -0.141740E-07  0.194E-03    9.05      10.7  T
   4    -45.6119292 -0.116847E-07  0.517E-04    9.05      40.4  T
   5    -45.6119292 -0.167425E-09  0.858E-05    9.05     243.0  T
speedup  1.08
cpu  time for SCC    0.00 s
wall time for SCC    0.00 s
speedup  1.02
cpu  time for grad    0.01 s
wall time for grad    0.01 s
 E :    -45.36319734  G :  0.000829    pred/act E change: -0.105D-05 -0.909D-06
Maxdispl :   0.0207   ||displ|| :   0.0549   Lambda : -0.262D-05
Largest |displ|/coords:  0.0207 (   5)  0.0188 (  17)  0.0188 (  30)

generating ANC from model Hessian ...
 Shifting diagonal of input Hessian by   4.987220215916833E-003
 Lowest  eigenvalues of input Hessian
   -0.000000   -0.000000   -0.000000    0.000000    0.000000    0.000000
    0.005000    0.005213    0.005789    0.006293    0.006772    0.007019
    0.007610    0.008698    0.010693    0.011004    0.012498    0.015687
 Highest eigenvalues
    1.367450    1.392209    1.406339    2.583651    3.413976    3.659070
 
cpu  time for ANC gen    0.02 s
wall time for ANC gen    0.02 s
................................................................................
.............................. CYCLE  113 ......................................
................................................................................
   1    -45.6117385 -0.456117E+02  0.564E-02    9.05       0.0  T
   2    -45.6117389 -0.461965E-06  0.422E-02    9.05       1.0  T
   3    -45.6117391 -0.155554E-06  0.547E-03    9.05       3.8  T
   4    -45.6117392 -0.979165E-07  0.164E-03    9.05      12.7  T
   5    -45.6117392 -0.172712E-08  0.295E-04    9.05      70.7  T
   6    -45.6117392 -0.572697E-10  0.188E-04    9.05     111.0  T
speedup  0.91
cpu  time for SCC    0.00 s
wall time for SCC    0.00 s
speedup  0.96
cpu  time for grad    0.01 s
wall time for grad    0.01 s
 E :    -45.36319883  G :  0.001436    pred/act E change:  0.000D+00 -0.149D-05
Maxdispl :   0.0026   ||displ|| :   0.0051   Lambda : -0.169D-05
Largest |displ|/coords:  0.0026 (   2)  0.0019 (   6)  0.0019 (   8)
................................................................................
.............................. CYCLE  114 ......................................
................................................................................
   1    -45.6118591 -0.456119E+02  0.473E-03    9.05       0.0  T
   2    -45.6118591 -0.184187E-07  0.339E-03    9.05       6.1  T
   3    -45.6118591 -0.746002E-08  0.103E-03    9.05      20.3  T
   4    -45.6118591 -0.192424E-08  0.339E-04    9.05      61.5  T
   5    -45.6118591 -0.126015E-09  0.840E-05    9.05     248.2  T
speedup  1.05
cpu  time for SCC    0.00 s
wall time for SCC    0.00 s
speedup  1.02
cpu  time for grad    0.01 s
wall time for grad    0.01 s
 E :    -45.36320002  G :  0.000611    pred/act E change:  0.000D+00 -0.119D-05
Maxdispl :   0.0032   ||displ|| :   0.0071   Lambda : -0.773D-06
Largest |displ|/coords:  0.0032 (   8)  0.0031 (   2)  0.0027 (   6)
................................................................................
.............................. CYCLE  115 ......................................
................................................................................
   1    -45.6119304 -0.456119E+02  0.564E-03    9.04       0.0  T
   2    -45.6119304 -0.162189E-07  0.408E-03    9.04       5.1  T
   3    -45.6119305 -0.699644E-08  0.101E-03    9.04      20.6  T
   4    -45.6119305 -0.196295E-08  0.343E-04    9.04      60.7  T
   5    -45.6119305 -0.112387E-09  0.780E-05    9.04     267.2  T
speedup  1.08
cpu  time for SCC    0.00 s
wall time for SCC    0.00 s
speedup  1.02
cpu  time for grad    0.01 s
wall time for grad    0.01 s
 E :    -45.36320051  G :  0.000332    pred/act E change: -0.845D-06 -0.489D-06
Maxdispl :   0.0030   ||displ|| :   0.0061   Lambda : -0.265D-06
Largest |displ|/coords:  0.0030 (   8)  0.0029 (   2)  0.0025 (   6)
................................................................................
.............................. CYCLE  116 ......................................
................................................................................
   1    -45.6119361 -0.456119E+02  0.424E-03    9.04       0.0  T
   2    -45.6119361 -0.458271E-08  0.311E-03    9.04       6.7  T
   3    -45.6119361 -0.280470E-08  0.585E-04    9.04      35.6  T
   4    -45.6119361 -0.606903E-09  0.201E-04    9.04     103.5  T
speedup  1.00
cpu  time for SCC    0.00 s
wall time for SCC    0.00 s
speedup  1.00
cpu  time for grad    0.01 s
wall time for grad    0.01 s
 E :    -45.36320070  G :  0.000287    pred/act E change: -0.387D-06 -0.190D-06
Maxdispl :   0.0036   ||displ|| :   0.0079   Lambda : -0.244D-06
Largest |displ|/coords:  0.0036 (   6)  0.0035 (   2)  0.0034 (   4)
................................................................................
.............................. CYCLE  117 ......................................
................................................................................
   1    -45.6119153 -0.456119E+02  0.486E-03    9.04       0.0  T
   2    -45.6119153 -0.434594E-08  0.358E-03    9.04       5.8  T
   3    -45.6119153 -0.333635E-08  0.601E-04    9.04      34.7  T
   4    -45.6119153 -0.527642E-09  0.190E-04    9.04     109.7  T
speedup  0.97
cpu  time for SCC    0.00 s
wall time for SCC    0.00 s
speedup  0.99
cpu  time for grad    0.01 s
wall time for grad    0.01 s
 E :    -45.36320085  G :  0.000197    pred/act E change: -0.133D-06 -0.149D-06
Maxdispl :   0.0026   ||displ|| :   0.0050   Lambda : -0.118D-06
Largest |displ|/coords:  0.0026 (   8)  0.0026 (   2)  0.0017 (   6)
................................................................................
.............................. CYCLE  118 ......................................
................................................................................
   1    -45.6118931 -0.456119E+02  0.285E-03    9.04       0.0  T
   2    -45.6118931 -0.149465E-08  0.212E-03    9.04       9.8  T
   3    -45.6118931 -0.875346E-09  0.347E-04    9.04      60.0  T
   4    -45.6118931 -0.236909E-09  0.931E-05    9.04     224.0  T
speedup  1.00
cpu  time for SCC    0.00 s
wall time for SCC    0.00 s
speedup  1.00
cpu  time for grad    0.01 s
wall time for grad    0.01 s
 E :    -45.36320092  G :  0.000187    pred/act E change: -0.122D-06 -0.683D-07
Maxdispl :   0.0021   ||displ|| :   0.0042   Lambda : -0.897D-07
Largest |displ|/coords:  0.0021 (   2)  0.0018 (   4)  0.0018 (   6)

   *** GEOMETRY OPTIMIZATION CONVERGED AFTER 118 ITERATIONS ***

------------------------------------------------------------------------
 total energy gain (kcal):     -0.0013
------------------------------------------------------------------------
================
 final structure:
================
$coord
       -2.54786092865317       -3.04437274602458       -1.78808563523995      S 
        0.03563142634251       -3.99822916833309       -1.53003760988778      O 
       -4.17546673720215       -3.84737632567519        0.23570468890025      O 
       -2.51955974955206       -0.31581352252850       -2.21227260555933      O 
       -3.65709473797147       -4.25333567035875       -4.30206505332064      O 
       -4.66732348904308       -5.60840524021019       -3.68398596855390      H 
        2.78626425702476       -0.52234725075540        3.37926077321064      O 
        2.97312110636858       -2.14147574204317        4.17161873880517      H 
        1.35497772390621        2.70130149207317       -2.98580511870446      O 
       -0.26533513132550        1.79889770278324       -3.09285017403037      H 
        1.23143417220534        3.75213204862302       -1.41553400313226      H 
        3.66642684253363       -1.01762609081177       -1.39921725083765      O 
        2.25715665686468       -2.37320083001712       -1.64480610894220      H 
        2.82797236385117        0.71173068316090       -2.24400328683153      H 
        3.62786110467919       -0.72725551081033        0.48937781870782      H 
       -2.13599748114728        0.15174014358812        2.70022949704091      O 
       -2.35931735224865        0.31675671490788        0.86820274742454      H 
       -3.11354684710490       -1.34765345968348        3.05625252526861      H 
        0.94219269756993       -0.21536920997849        3.25300593230220      H 
        0.99628518199068        4.87260758653377        1.53969605379697      N 
        2.50317300769765        4.32312359221611        2.58489960522312      H 
       -0.55077180546044        4.02094470476670        2.28487276217179      H 
        0.78977768087534        6.76322615526925        1.73554169109179      H 
$end
 
 Bond Distances (Angstroems)
 ---------------------------
S1-O2=1.4637         S1-O3=1.4385         S1-O4=1.4613         S1-O5=1.5886         O2-S1=1.4637         O3-S1=1.4385         
O4-S1=1.4613         O5-S1=1.5886         O5-H6=0.9523         H6-O5=0.9523         O7-H8=0.9590         O7-H19=0.9915        
H8-O7=0.9590         O9-H10=0.9831        O9-H11=1.0020        H10-O9=0.9831        H11-O9=1.0020        O12-H13=1.0429       
O12-H14=1.1109       O12-H15=1.0114       H13-O12=1.0429       H14-O12=1.1109       H15-O12=1.0114       O16-H17=0.9805       
O16-H18=0.9657       H17-O16=0.9805       H18-O16=0.9657       H19-O7=0.9915        N20-H21=1.0131       N20-H22=1.0143       
N20-H23=1.0117       H21-N20=1.0131       H22-N20=1.0143       H23-N20=1.0117       
 N  H  Rav=1.0130 sigma=0.0010  Rmin=1.0117  Rmax=1.0143     3
 O  H  Rav=0.9999 sigma=0.0449  Rmin=0.9523  Rmax=1.1109    10
 S  O  Rav=1.4880 sigma=0.0589  Rmin=1.4385  Rmax=1.5886     4
 
 selected bond angles (degree)
 --------------------
O3-S1-O2=112.82                O4-S1-O2=110.21                O4-S1-O3=114.35                O5-S1-O2=106.52                
O5-S1-O3=106.45                O5-S1-O4=105.85                H6-O5-S1=102.89                H19-O7-H8=106.10               
H11-O9-H10=105.10              
 
 selected dihedral angles (degree)
 ---------------------------------
H6-O5-S1-O2=100.43            H6-O5-S1-O3=339.80            H6-O5-S1-O4=217.74            
 
 CMA Distance (Angstroems)
 ---------------------------
R(CMA):  3.3391

========================================================================
 FINAL SINGLEPOINT CALCULATION ON OPTIMIZED GEOMETRY
========================================================================

 Ncao       : 59
 Nao        : 58
 Nshell     : 34
 Nel        : 72
 T(el)      :   300.0
 intcut     :    25.0
 scfconv/Eh :  0.100E-05
   qconv/e  :  0.100E-03
 intneglect :  0.100E-07
 broydamp   :      0.250
 iter      E             dE          RMSdq      gap      omega  full diag
   1    -45.6118931 -0.456119E+02  0.289E-05    9.04       0.0  T
   2    -45.6118931 -0.568434E-12  0.194E-05    9.04    1074.6  T
   3    -45.6118931 -0.504485E-12  0.551E-06    9.04    3786.5  T
speedup  0.87
cpu  time for SCC    0.00 s
wall time for SCC    0.00 s

   *** convergence criteria satisfied after 3 iterations ***

          eigenvalues
 #    :          24         25         26         27         28         29         30         31
 occ. :        2.000      2.000      2.000      2.000      2.000      2.000      2.000      2.000
 eps  :       -13.991    -13.779    -13.242    -12.717    -12.540    -12.403    -12.349    -12.296
 #    :          32         33         34         35         36         37         38         39
 occ. :        2.000      2.000      2.000      2.000      2.000      0.000      0.000      0.000
 eps  :       -12.156    -12.000    -11.894    -11.672    -11.445     -2.401     -0.584     -0.360
 #    :          40         41         42         43         44         45         46         47
 occ. :        0.000      0.000      0.000      0.000      0.000      0.000      0.000      0.000
 eps  :         0.608      1.096      1.471      1.852      3.410      4.710      4.879      5.420


   #   Z            q   n(s)   n(p)   n(d)      C6AA      α(0)
   1  16 S      1.666  1.586  1.790  0.958    89.542    15.926
   2   8 O     -0.735  1.766  4.968  0.000    29.640     7.301
   3   8 O     -0.731  1.768  4.963  0.000    29.553     7.289
   4   8 O     -0.748  1.768  4.980  0.000    30.046     7.349
   5   8 O     -0.589  1.750  4.838  0.000    24.885     6.734
   6   1 H      0.346  0.654  0.000  0.000     0.589     1.201
   7   8 O     -0.612  1.748  4.863  0.000    25.467     6.811
   8   1 H      0.293  0.707  0.000  0.000     0.741     1.352
   9   8 O     -0.592  1.756  4.836  0.000    24.928     6.742
  10   1 H      0.339  0.661  0.000  0.000     0.614     1.231
  11   1 H      0.333  0.667  0.000  0.000     0.630     1.247
  12   8 O     -0.525  1.740  4.785  0.000    23.387     6.531
  13   1 H      0.383  0.617  0.000  0.000     0.514     1.124
  14   1 H      0.387  0.613  0.000  0.000     0.501     1.108
  15   1 H      0.371  0.629  0.000  0.000     0.543     1.158
  16   8 O     -0.629  1.741  4.887  0.000    25.880     6.866
  17   1 H      0.318  0.682  0.000  0.000     0.669     1.285
  18   1 H      0.310  0.690  0.000  0.000     0.692     1.306
  19   1 H      0.340  0.660  0.000  0.000     0.614     1.231
  20   7 N     -0.445  1.365  4.080  0.000    31.660     8.356
  21   1 H      0.173  0.827  0.000  0.000     1.255     1.755
  22   1 H      0.187  0.813  0.000  0.000     1.175     1.698
  23   1 H      0.158  0.842  0.000  0.000     1.351     1.820

 Mol. C6AA /au·bohr⁶  :       4522.901703
 Mol. C8AA /au·bohr⁸  :      99496.221191
 Mol. α(0) /au        :         97.422776

 
 Wiberg/Mayer (AO) data. WBOs > 0.1 written file <wbo>
 largest (>0.05) Wiberg bond orders for each atom
           total WBO             WBO to atom ...
     1  S   4.867    O    3 1.385    O    4 1.280    O    2 1.269    O    5 0.890
     2  O   1.753    S    1 1.269    H   13 0.149    O    4 0.110    O    3 0.107    O    5 0.069
     3  O   1.718    S    1 1.385    O    4 0.108    O    2 0.107    O    5 0.082
     4  O   1.729    S    1 1.280    O    2 0.110    O    3 0.108    O    5 0.063    H   17 0.061    H   10 0.053
     5  O   1.973    S    1 0.890    H    6 0.863    O    3 0.082    O    2 0.069    O    4 0.063
     6  H   0.880    O    5 0.863
     7  O   1.909    H    8 0.911    H   19 0.803    H   15 0.109
     8  H   0.914    O    7 0.911
     9  O   2.045    H   10 0.828    H   11 0.784    H   14 0.270    O   12 0.083
    10  H   0.885    O    9 0.828    O    4 0.053
    11  H   0.889    O    9 0.784    N   20 0.104
    12  O   2.216    H   15 0.751    H   13 0.695    H   14 0.578    O    9 0.083
    13  H   0.853    O   12 0.695    O    2 0.149
    14  H   0.850    O   12 0.578    O    9 0.270
    15  H   0.863    O   12 0.751    O    7 0.109
    16  O   1.877    H   18 0.882    H   17 0.828    H   19 0.078
    17  H   0.899    O   16 0.828    O    4 0.061
    18  H   0.904    O   16 0.882
    19  H   0.885    O    7 0.803    O   16 0.078
    20  N   3.055    H   23 0.972    H   21 0.966    H   22 0.955    H   11 0.104
    21  H   0.970    N   20 0.966
    22  H   0.965    N   20 0.955
    23  H   0.975    N   20 0.972
 MOs/occ written to file <molden.input>
 
molecular dipole:
                 x           y           z       tot (Debye)
 q only:        1.222       0.969       0.800
   full:        0.345       0.471       1.130       3.232
molecular quadrupole (traceless):
                xx          xy          yy          xz          yz          zz
 q only:       -2.552      -0.168       5.019       2.711       1.733      -2.467
  q+dip:       -4.738       1.688       8.230       6.164       4.770      -3.492
   full:       -4.804       2.175       8.459       6.438       4.854      -3.655

SCC energy    :     -45.6118931
rep           :       0.2485083
ES            :       0.2174453
AES           :      -0.0614065
AXC           :      -0.0060428
disp          :      -0.0168039
XB            :       0.0000000
fix           :       0.0000000
total E       :     -45.3632009
atomizationE  :       4.4462634     2790.07
(atE without considering molecular charge,
 total energy contains solvation terms)
H-L gap (eV)  :          9.0440
optimized geometry written to: xtbopt.xyz


------------------------------------------------------------------------
 * finished run on 2019/09/16 at 11:44:27.137     
------------------------------------------------------------------------
 total:
 * wall-time:     0 d,  0 h,  0 min,  2.215 sec
 *  cpu-time:     0 d,  0 h,  0 min,  2.193 sec
 * ratio c/w:     0.990 speedup
 SCF:
 * wall-time:     0 d,  0 h,  0 min,  0.117 sec
 *  cpu-time:     0 d,  0 h,  0 min,  0.113 sec
 * ratio c/w:     0.965 speedup
 ANC optimizer:
 * wall-time:     0 d,  0 h,  0 min,  2.076 sec
 *  cpu-time:     0 d,  0 h,  0 min,  2.060 sec
 * ratio c/w:     0.992 speedup

