      -----------------------------------------------------------      
     |                   =====================                   |     
     |                           x T B                           |     
     |                   =====================                   |     
     |                         S. Grimme                         |     
     |          Mulliken Center for Theoretical Chemistry        |     
     |                    University of Bonn                     |     
     |                 Version 6.0.1 (SAW181210)                 |     
      -----------------------------------------------------------      

   This program is distributed in the hope that it will be useful,
   but WITHOUT ANY WARRANTY; without even the implied warranty of
   MERCHANTABILITY or FITNESS FOR A PARTICULAR PURPOSE.
   
   FOR NON-COMMERCIAL, ACADEMIA USE ONLY.
   
   Cite this work as:
   S. Grimme, C. Bannwarth, P. Shushkov, J. Comput. Theory Chem., 2017,
   13, 1989-2009.
   C. Bannwarth, S. Ehlert and S. Grimme., ChemRxiv, 2018, preprint.
   http://doi.org/10.26434/chemrxiv.7246238.v1
   
   for sTDA-xTB:
   S. Grimme and C. Bannwarth, J. Chem. Phys., 2016, 145, 054103.
   
   in the mass-spec context:
   V. Asgeirsson, C. Bauer and S. Grimme, Chem. Sci., 2017, 8, 4879.
   
   if GBSA is used:
   P. Shushkov, F. März and S. Grimme, unpublished.
   
   for ANC optimizer:
   S. Grimme, unpublished.
   Rational Function algorithm used in ANCopt:
   F. Eckert, P. Pulay, H.-J. Werner, J. Comput. Chem., 1997, 18, 1473.
   
   with help from (in alphabetical order)
   C. Bannwarth, F. Bohle, G. Brandenburg, E. Caldeweyher, M. Checinski,
   S. Dohm, S. Ehlert, S. Ehrlich, F. März, H. Neugebauer, J. Pisarek,
   P. Pracht, P. Shushkov, and S. Spicher.
   
 * started run on 2019/09/16 at 11:45:47.312     
========================================================================
 # omp threads = 1
========================================================================
number of atoms            : 23
number of electrons        : 72
charge                     : 0
spin                       : .0
first test random number   : .1372

########################################################################
# WARNING! Please study the warnings concerning your input carefully
#  - XTBPATH is not set, using XTBHOME instead
#  - the use of '-opt' is discouraged, please use '--opt' next time
#  - the use of '-chrg' is discouraged, please use '--chrg' next time
#  - the use of '-uhf' is discouraged, please use '--uhf' next time
########################################################################

           ------------------------------------------------- 
          |                 G F N 2 - x T B                 |
          | Geometry, Frequencies, Noncovalent interactions |
          |            JCTC 2018 parametrisation            |
           ------------------------------------------------- 
      method parameters     
 k(s)        :  1.8500
 k(p)        :  2.2300
 k(d)        :  2.2300
 k(f)        :  2.0000
 kEN (H0ij)  : -2.0000
 D4 a1       :  0.5200
 D4 a2       :  5.0000
 D4 s6       :  1.0000
 D4 s8       :  2.7000
 D4 s9       :  5.0000
 alphaj      :  2.0000


            Z     q(EN)     CN     RAES       Cart. coordinates
     1  S   6.0    0.64    4.29    4.22    -3.13820    -0.60847    -1.74974
     2  O   6.0   -0.31    1.21    1.80    -3.62314    -1.95970     0.67248
     3  O   6.0   -0.34    1.25    1.80    -2.11043     1.95564    -1.20462
     4  O   6.0   -0.31    1.17    1.80    -1.27279    -2.06191    -3.27809
     5  O   6.0   -0.25    2.08    1.84    -5.51346    -0.37121    -3.16901
     6  H   1.0    0.14    1.21    1.47    -6.71595     0.56515    -2.18497
     7  O   6.0   -0.36    1.57    1.80     3.25834    -0.21307     3.21052
     8  H   1.0    0.17    0.94    1.42     4.80932    -0.61325     4.16867
     9  O   6.0   -0.29    2.02    1.83    -2.57667     4.02202     3.48425
    10  H   1.0    0.15    0.97    1.43    -2.59918     5.83905     3.59600
    11  H   1.0    0.17    1.03    1.43    -2.43902     3.65062     1.70725
    12  O   6.0   -0.22    2.92    2.59     2.92063     1.22289    -1.05343
    13  H   1.0    0.13    1.07    1.44     3.40403    -0.11499    -2.26431
    14  H   1.0    0.15    1.06    1.44     1.16105     1.79621    -1.30881
    15  H   1.0    0.16    1.23    1.47     3.23972     0.71331     0.71575
    16  O   6.0   -0.22    2.92    2.59    -1.01492    -0.53246     4.61229
    17  H   1.0    0.15    1.05    1.44    -2.00603    -1.55822     3.40591
    18  H   1.0    0.17    1.22    1.47     0.81309    -0.57261     4.22917
    19  H   1.0    0.14    1.03    1.43    -1.66348     1.21513     4.74197
    20  N   5.0   -0.22    3.05    1.93     3.95393    -2.62833    -4.32498
    21  H   1.0    0.13    1.03    1.43     2.03910    -2.81908    -4.23496
    22  H   1.0    0.11    0.99    1.43     4.67690    -4.24754    -3.57230
    23  H   1.0    0.11    0.99    1.43     4.39718    -2.67919    -6.19902

  Z AO/shell   Hii/eV     exponent
  1     Wed Apr 25 08:07:45 CEST 2018   EN: 2.200 GM2: 0.406  GM3: 0.0800  RAES: 1.40
     1s    -10.707211    1.230000
  7     Wed Apr 25 08:07:45 CEST 2018   EN: 3.040 GM2: 0.461  GM3:-0.0640  RAES: 1.90
     2s    -16.686243    2.339881
     2p    -12.523956    2.014332
  8     Wed Apr 25 08:07:45 CEST 2018   EN: 3.440 GM2: 0.452  GM3:-0.0517  RAES: 1.80
     2s    -20.229985    2.439742
     2p    -15.503117    2.137023
 16     Tue Apr 24 11:44:34 CEST 2018   EN: 2.580 GM2: 0.340  GM3:-0.0502  RAES: 3.10
     3s    -20.029654    1.981333
     3p    -11.377694    2.025643
     3d     -0.420282    1.702555
 no old-style atom pair restraining (fixing) potential

molecular fragmentation (1/2 indicates fragments):
11111122222222222222222
# atoms in fragment 1/2:     6    17
 fragment masses (1/2) :       97.07       90.10
CMA distance (Bohr)    :   5.410
constraining FC (au)   :  0.0500
           ------------------------------------------------- 
          |        Self-Consistent Charge Iterations        |
           ------------------------------------------------- 

 Ncao       : 59
 Nao        : 58
 Nshell     : 34
 Nel        : 72
 T(el)      :   300.0
 intcut     :    25.0
 scfconv/Eh :  0.100E-05
   qconv/e  :  0.100E-03
 intneglect :  0.100E-07
 broydamp   :      0.250
 iter      E             dE          RMSdq      gap      omega  full diag
   1    -45.4592438 -0.454592E+02  0.719E+00   10.16       0.0  T
   2    -45.5063558 -0.471120E-01  0.519E+00    9.55       1.0  T
   3    -45.5403123 -0.339565E-01  0.141E+00    6.59       1.0  T
   4    -45.5458145 -0.550216E-02  0.577E-01    7.00       1.0  T
   5    -45.5464046 -0.590126E-03  0.337E-01    7.00       1.0  T
   6    -45.5468651 -0.460550E-03  0.148E-01    7.13       1.0  T
   7    -45.5469733 -0.108177E-03  0.589E-02    7.13       1.0  T
   8    -45.5469893 -0.159323E-04  0.308E-02    7.12       1.0  T
   9    -45.5469935 -0.422215E-05  0.152E-02    7.13       1.4  T
  10    -45.5469948 -0.136071E-05  0.237E-03    7.14       8.8  T
  11    -45.5469949 -0.142021E-07  0.132E-03    7.14      15.8  T
  12    -45.5469949 -0.665786E-08  0.534E-04    7.14      39.1  T
  13    -45.5469949 -0.137982E-08  0.169E-04    7.14     123.6  T
speedup  0.98
cpu  time for SCC    0.01 s
wall time for SCC    0.01 s

   *** convergence criteria satisfied after 13 iterations ***

          eigenvalues
 #    :          24         25         26         27         28         29         30         31
 occ. :        2.000      2.000      2.000      2.000      2.000      2.000      2.000      2.000
 eps  :       -13.074    -13.013    -12.394    -12.171    -11.957    -11.860    -11.705    -11.306
 #    :          32         33         34         35         36         37         38         39
 occ. :        2.000      2.000      2.000      2.000      2.000      0.000      0.000      0.000
 eps  :       -11.213    -11.007    -10.895     -9.681     -9.084     -1.946     -0.225      0.042
 #    :          40         41         42         43         44         45         46         47
 occ. :        0.000      0.000      0.000      0.000      0.000      0.000      0.000      0.000
 eps  :         0.594      0.885      1.164      2.619      3.451      3.694      5.040      5.356


   #   Z            q   n(s)   n(p)   n(d)      C6AA      α(0)
   1  16 S      1.599  1.586  1.840  0.976    91.106    16.065
   2   8 O     -0.755  1.774  4.981  0.000    30.266     7.376
   3   8 O     -0.776  1.773  5.003  0.000    30.873     7.450
   4   8 O     -0.726  1.771  4.954  0.000    29.421     7.272
   5   8 O     -0.542  1.722  4.820  0.000    23.808     6.587
   6   1 H      0.358  0.642  0.000  0.000     0.562     1.173
   7   8 O     -0.878  1.820  5.058  0.000    33.935     7.814
   8   1 H      0.193  0.807  0.000  0.000     1.158     1.691
   9   8 O     -0.609  1.731  4.877  0.000    25.397     6.802
  10   1 H      0.288  0.712  0.000  0.000     0.757     1.367
  11   1 H      0.327  0.673  0.000  0.000     0.645     1.261
  12   8 O     -0.451  1.653  4.798  0.000    21.804     6.307
  13   1 H      0.383  0.617  0.000  0.000     0.518     1.130
  14   1 H      0.383  0.617  0.000  0.000     0.518     1.131
  15   1 H      0.409  0.591  0.000  0.000     0.461     1.062
  16   8 O     -0.449  1.656  4.793  0.000    21.757     6.300
  17   1 H      0.395  0.605  0.000  0.000     0.495     1.105
  18   1 H      0.408  0.592  0.000  0.000     0.463     1.065
  19   1 H      0.395  0.605  0.000  0.000     0.494     1.105
  20   7 N     -0.459  1.383  4.076  0.000    32.074     8.411
  21   1 H      0.206  0.794  0.000  0.000     1.078     1.626
  22   1 H      0.153  0.847  0.000  0.000     1.382     1.842
  23   1 H      0.149  0.851  0.000  0.000     1.407     1.858

 Mol. C6AA /au·bohr⁶  :       4563.300489
 Mol. C8AA /au·bohr⁸  :     100520.862579
 Mol. α(0) /au        :         97.797996

 
 Wiberg/Mayer (AO) data. WBOs > 0.1 written file <wbo>
 largest (>0.05) Wiberg bond orders for each atom
           total WBO             WBO to atom ...
     1  S   4.915    O    4 1.359    O    2 1.286    O    3 1.238    O    5 0.996
     2  O   1.685    S    1 1.286    O    4 0.114    O    3 0.111    O    5 0.073    H   17 0.072
     3  O   1.684    S    1 1.238    O    2 0.111    O    4 0.110    O    5 0.070    H   14 0.066
     4  O   1.698    S    1 1.359    O    2 0.114    O    3 0.110    O    5 0.057
     5  O   2.049    S    1 0.996    H    6 0.848    O    2 0.073    O    3 0.070    O    4 0.057
     6  H   0.871    O    5 0.848
     7  O   1.513    H    8 0.949    H   18 0.211    H   15 0.211    O   16 0.063    O   12 0.063
     8  H   0.963    O    7 0.949
     9  O   1.854    H   10 0.906    H   11 0.847    H   19 0.058
    10  H   0.917    O    9 0.906
    11  H   0.893    O    9 0.847
    12  O   2.287    H   14 0.779    H   13 0.755    H   15 0.615    O    7 0.063
    13  H   0.854    O   12 0.755    N   20 0.089
    14  H   0.854    O   12 0.779    O    3 0.066
    15  H   0.833    O   12 0.615    O    7 0.211
    16  O   2.290    H   19 0.779    H   17 0.764    H   18 0.617    O    7 0.063
    17  H   0.844    O   16 0.764    O    2 0.072
    18  H   0.833    O   16 0.617    O    7 0.211
    19  H   0.844    O   16 0.779    O    9 0.058
    20  N   3.018    H   22 0.974    H   23 0.972    H   21 0.925    H   13 0.089
    21  H   0.958    N   20 0.925
    22  H   0.977    N   20 0.974
    23  H   0.978    N   20 0.972
 MOs/occ written to file <molden.input>
 
molecular dipole:
                 x           y           z       tot (Debye)
 q only:        0.024       1.218       0.319
   full:       -0.585       1.114      -0.274       3.272
molecular quadrupole (traceless):
                xx          xy          yy          xz          yz          zz
 q only:        3.407      -8.462      -1.066      -9.855       0.801      -2.341
  q+dip:        5.309     -12.709      -0.050      -5.643       3.996      -5.259
   full:        5.706     -13.038      -0.481      -5.386       3.924      -5.225

SCC energy    :     -45.5469949
rep           :       0.2562194
ES            :       0.2657514
AES           :      -0.0606095
AXC           :      -0.0065080
disp          :      -0.0155922
XB            :       0.0000000
fix           :       0.0000000
total E       :     -45.2905773
atomizationE  :       4.3736398     2744.50
(atE without considering molecular charge,
 total energy contains solvation terms)
H-L gap (eV)  :          7.1384
           ------------------------------------------------- 
          |                 ===============                 |
          |                   A N C O P T                   |
          |                 ===============                 |
          |          Approximate Normal Coordinate          |
          |           Rational Function Optimizer           |
           ------------------------------------------------- 
dumping coords to <xtbopt.coord> and <xtbopt.log>
 optlevel               2
 Maxcycle             460
 Maxmicro              25
 Econv         1.000000000000000E-007
 Gconv         2.000000000000000E-004
 Maxdispl       1.00000000000000     
 Hlow          5.000000000000000E-003
 S6             20.0000000000000     
 Nvar               63

generating ANC from model Hessian ...
 Shifting diagonal of input Hessian by   5.014285812090054E-003
 Lowest  eigenvalues of input Hessian
    0.005000   -0.000000   -0.000000   -0.000000   -0.000000    0.000000
    0.000000    0.005056    0.005254    0.006227    0.006576    0.007072
    0.007234    0.007616    0.008603    0.009245    0.010417    0.011052
 Highest eigenvalues
    1.556487    1.588446    1.589794    3.137996    3.214867    3.312664
 
cpu  time for ANC gen    0.01 s
wall time for ANC gen    0.01 s
................................................................................
.............................. CYCLE    1 ......................................
................................................................................
   1    -45.5469949 -0.455470E+02  0.716E-05    7.14       0.0  T
   2    -45.5469949 -0.101466E-10  0.568E-05    7.14     367.1  T
   3    -45.5469949 -0.967049E-11  0.301E-05    7.14     693.8  T
speedup  1.25
cpu  time for SCC    0.00 s
wall time for SCC    0.00 s
speedup  1.08
cpu  time for grad    0.01 s
wall time for grad    0.01 s
 E :    -45.29057728  G :  0.215680    pred/act E change:  0.000D+00  0.438D-07
Maxdispl :   0.1490   ||displ|| :   0.2945   Lambda : -0.329D-01
Largest |displ|/coords:  0.1490 (  19)  0.1168 (  47)  0.0918 (  14)
................................................................................
.............................. CYCLE    2 ......................................
................................................................................
   1    -45.5621793 -0.455622E+02  0.320E-01    7.32       0.0  T
   2    -45.5624499 -0.270621E-03  0.241E-01    7.44       1.0  T
   3    -45.5625748 -0.124914E-03  0.918E-02    7.66       1.0  T
   4    -45.5625882 -0.134018E-04  0.209E-02    7.65       1.0  T
   5    -45.5625893 -0.108215E-05  0.570E-03    7.63       3.7  T
   6    -45.5625894 -0.430424E-07  0.331E-03    7.63       6.3  T
speedup  0.87
cpu  time for SCC    0.00 s
wall time for SCC    0.00 s
speedup  1.00
cpu  time for grad    0.01 s
wall time for grad    0.01 s
 E :    -45.31735834  G :  0.138654    pred/act E change:  0.000D+00 -0.268D-01
Maxdispl :   0.1612   ||displ|| :   0.3163   Lambda : -0.186D-01
Largest |displ|/coords:  0.1612 (  19)  0.1247 (  22)  0.0959 (  47)
................................................................................
.............................. CYCLE    3 ......................................
................................................................................
   1    -45.5710799 -0.455711E+02  0.303E-01    7.81       0.0  T
   2    -45.5714375 -0.357600E-03  0.222E-01    7.95       1.0  T
   3    -45.5715979 -0.160433E-03  0.946E-02    8.18       1.0  T
   4    -45.5716074 -0.946327E-05  0.190E-02    8.18       1.1  T
   5    -45.5716081 -0.730613E-06  0.562E-03    8.17       3.7  T
   6    -45.5716081 -0.442747E-07  0.329E-03    8.17       6.3  T
speedup  1.09
cpu  time for SCC    0.00 s
wall time for SCC    0.00 s
speedup  0.99
cpu  time for grad    0.01 s
wall time for grad    0.01 s
 E :    -45.33239803  G :  0.090639    pred/act E change: -0.179D-01 -0.150D-01
Maxdispl :   0.1180   ||displ|| :   0.3015   Lambda : -0.982D-02
Largest |displ|/coords:  0.1180 (  19)  0.1156 (  10)  0.1082 (  22)
................................................................................
.............................. CYCLE    4 ......................................
................................................................................
   1    -45.5769555 -0.455770E+02  0.260E-01    8.32       0.0  T
   2    -45.5772995 -0.343994E-03  0.183E-01    8.46       1.0  T
   3    -45.5774523 -0.152847E-03  0.826E-02    8.67       1.0  T
   4    -45.5774579 -0.553546E-05  0.163E-02    8.69       1.3  T
   5    -45.5774584 -0.505097E-06  0.506E-03    8.68       4.1  T
   6    -45.5774584 -0.373650E-07  0.299E-03    8.68       7.0  T
speedup  1.11
cpu  time for SCC    0.00 s
wall time for SCC    0.00 s
speedup  1.00
cpu  time for grad    0.01 s
wall time for grad    0.01 s
 E :    -45.34029931  G :  0.059147    pred/act E change: -0.102D-01 -0.790D-02
Maxdispl :   0.1574   ||displ|| :   0.2781   Lambda : -0.525D-02
Largest |displ|/coords:  0.1574 (  10)  0.1079 (  16)  0.0741 (   6)
................................................................................
.............................. CYCLE    5 ......................................
................................................................................
   1    -45.5813422 -0.455813E+02  0.236E-01    8.80       0.0  T
   2    -45.5815871 -0.244898E-03  0.167E-01    8.91       1.0  T
   3    -45.5816964 -0.109286E-03  0.705E-02    8.94       1.0  T
   4    -45.5817019 -0.553420E-05  0.146E-02    8.94       1.4  T
   5    -45.5817024 -0.475322E-06  0.424E-03    8.94       4.9  T
   6    -45.5817024 -0.235719E-07  0.249E-03    8.94       8.4  T
speedup  0.89
cpu  time for SCC    0.00 s
wall time for SCC    0.00 s
speedup  1.00
cpu  time for grad    0.01 s
wall time for grad    0.01 s
 E :    -45.34461885  G :  0.037228    pred/act E change: -0.536D-02 -0.432D-02
Maxdispl :   0.3079   ||displ|| :   0.5158   Lambda : -0.676D-02
Largest |displ|/coords:  0.3079 (  10)  0.1658 (   6)  0.1460 (  16)
................................................................................
.............................. CYCLE    6 ......................................
................................................................................
   1    -45.5825025 -0.455825E+02  0.665E-01    8.81       0.0  T
   2    -45.5836994 -0.119691E-02  0.474E-01    8.82       1.0  T
   3    -45.5841925 -0.493071E-03  0.170E-01    8.83       1.0  T
   4    -45.5842496 -0.571365E-04  0.334E-02    8.84       1.0  T
   5    -45.5842527 -0.307760E-05  0.119E-02    8.84       1.8  T
   6    -45.5842531 -0.351026E-06  0.589E-03    8.84       3.5  T
   7    -45.5842531 -0.506728E-07  0.157E-03    8.84      13.2  T
speedup  1.11
cpu  time for SCC    0.01 s
wall time for SCC    0.01 s
speedup  1.00
cpu  time for grad    0.01 s
wall time for grad    0.01 s
 E :    -45.34837469  G :  0.047518    pred/act E change: -0.283D-02 -0.376D-02
Maxdispl :   0.1843   ||displ|| :   0.4599   Lambda : -0.547D-02
Largest |displ|/coords:  0.1843 (   8)  0.1690 (   9)  0.1687 (   1)
................................................................................
.............................. CYCLE    7 ......................................
................................................................................
   1    -45.5922323 -0.455922E+02  0.507E-01    8.77       0.0  T
   2    -45.5924758 -0.243536E-03  0.383E-01    8.77       1.0  T
   3    -45.5925869 -0.111071E-03  0.770E-02    8.79       1.0  T
   4    -45.5926254 -0.385314E-04  0.194E-02    8.80       1.1  T
   5    -45.5926261 -0.629530E-06  0.703E-03    8.80       3.0  T
   6    -45.5926261 -0.565507E-07  0.321E-03    8.80       6.5  T
   7    -45.5926261 -0.162240E-07  0.791E-04    8.80      26.4  T
speedup  0.96
cpu  time for SCC    0.00 s
wall time for SCC    0.01 s
speedup  1.03
cpu  time for grad    0.01 s
wall time for grad    0.01 s
 E :    -45.34734950  G :  0.044660    pred/act E change: -0.428D-02  0.103D-02
Maxdispl :   0.0928   ||displ|| :   0.2216   Lambda : -0.375D-02
Largest |displ|/coords:  0.0928 (   9)  0.0866 (   8)  0.0669 (  14)
................................................................................
.............................. CYCLE    8 ......................................
................................................................................
   1    -45.5906324 -0.455906E+02  0.296E-01    8.79       0.0  T
   2    -45.5907472 -0.114723E-03  0.223E-01    8.80       1.0  T
   3    -45.5907906 -0.434108E-04  0.560E-02    8.80       1.0  T
   4    -45.5908077 -0.171697E-04  0.117E-02    8.79       1.8  T
   5    -45.5908079 -0.198784E-06  0.391E-03    8.79       5.3  T
   6    -45.5908079 -0.113111E-07  0.173E-03    8.79      12.0  T
speedup  1.11
cpu  time for SCC    0.01 s
wall time for SCC    0.00 s
speedup  0.99
cpu  time for grad    0.01 s
wall time for grad    0.01 s
 E :    -45.34959106  G :  0.016104    pred/act E change: -0.331D-02 -0.224D-02
Maxdispl :   0.2593   ||displ|| :   0.5117   Lambda : -0.389D-02
Largest |displ|/coords:  0.2593 (   8)  0.2184 (   5)  0.1639 (  15)
................................................................................
.............................. CYCLE    9 ......................................
................................................................................
   1    -45.5632714 -0.455633E+02  0.704E-01    8.71       0.0  T
   2    -45.5635700 -0.298665E-03  0.521E-01    8.71       1.0  T
   3    -45.5637479 -0.177849E-03  0.105E-01    8.69       1.0  T
   4    -45.5637835 -0.356388E-04  0.236E-02    8.69       1.0  T
   5    -45.5637844 -0.866101E-06  0.102E-02    8.69       2.1  T
   6    -45.5637847 -0.281409E-06  0.542E-03    8.69       3.8  T
   7    -45.5637847 -0.546644E-07  0.144E-03    8.69      14.5  T
   8    -45.5637847 -0.528407E-08  0.455E-04    8.69      45.8  T
speedup  1.00
cpu  time for SCC    0.01 s
wall time for SCC    0.01 s
speedup  0.95
cpu  time for grad    0.01 s
wall time for grad    0.01 s
 E :    -45.34237471  G :  0.102264    pred/act E change: -0.197D-02  0.722D-02
Maxdispl :   0.2528   ||displ|| :   0.6091   Lambda : -0.352D-01
Largest |displ|/coords:  0.2528 (  15)  0.2266 (   8)  0.2179 (  10)
................................................................................
.............................. CYCLE   10 ......................................
................................................................................
   1    -45.6027545 -0.456028E+02  0.948E-01    8.77       0.0  T
   2    -45.6033101 -0.555555E-03  0.711E-01    8.77       1.0  T
   3    -45.6036947 -0.384577E-03  0.136E-01    8.79       1.0  T
   4    -45.6037576 -0.629543E-04  0.319E-02    8.80       1.0  T
   5    -45.6037594 -0.175081E-05  0.151E-02    8.80       1.4  T
   6    -45.6037595 -0.187369E-06  0.651E-03    8.80       3.2  T
   7    -45.6037596 -0.925142E-07  0.179E-03    8.79      11.6  T
   8    -45.6037596 -0.626077E-08  0.472E-04    8.79      44.1  T
speedup  1.02
cpu  time for SCC    0.01 s
wall time for SCC    0.01 s
speedup  0.95
cpu  time for grad    0.01 s
wall time for grad    0.01 s
 E :    -45.34530460  G :  0.083208    pred/act E change: -0.246D-02 -0.293D-02
Maxdispl :   0.1405   ||displ|| :   0.3410   Lambda : -0.118D-01
Largest |displ|/coords:  0.1405 (  15)  0.1071 (  14)  0.0944 (  11)
................................................................................
.............................. CYCLE   11 ......................................
................................................................................
   1    -45.5822119 -0.455822E+02  0.497E-01    8.85       0.0  T
   2    -45.5825737 -0.361872E-03  0.370E-01    8.86       1.0  T
   3    -45.5827433 -0.169527E-03  0.104E-01    8.86       1.0  T
   4    -45.5827821 -0.388797E-04  0.230E-02    8.85       1.0  T
   5    -45.5827831 -0.927834E-06  0.839E-03    8.85       2.5  T
   6    -45.5827832 -0.821967E-07  0.423E-03    8.85       4.9  T
   7    -45.5827832 -0.268734E-07  0.131E-03    8.85      15.9  T
speedup  0.96
cpu  time for SCC    0.01 s
wall time for SCC    0.01 s
speedup  1.02
cpu  time for grad    0.01 s
wall time for grad    0.01 s
 E :    -45.34947645  G :  0.037760    pred/act E change: -0.241D-01 -0.417D-02
Maxdispl :   0.1940   ||displ|| :   0.2843   Lambda : -0.350D-02
Largest |displ|/coords:  0.1940 (   6)  0.1004 (  14)  0.0635 (   5)
................................................................................
.............................. CYCLE   12 ......................................
................................................................................
   1    -45.5872260 -0.455872E+02  0.369E-01    8.81       0.0  T
   2    -45.5873860 -0.160013E-03  0.271E-01    8.80       1.0  T
   3    -45.5874628 -0.768551E-04  0.718E-02    8.80       1.0  T
   4    -45.5874806 -0.177812E-04  0.140E-02    8.81       1.5  T
   5    -45.5874810 -0.395492E-06  0.578E-03    8.81       3.6  T
   6    -45.5874811 -0.339269E-07  0.312E-03    8.80       6.7  T
speedup  0.89
cpu  time for SCC    0.00 s
wall time for SCC    0.00 s
speedup  1.00
cpu  time for grad    0.01 s
wall time for grad    0.01 s
 E :    -45.35073934  G :  0.034303    pred/act E change: -0.660D-02 -0.126D-02
Maxdispl :   0.1044   ||displ|| :   0.1641   Lambda : -0.132D-02
Largest |displ|/coords:  0.1044 (   1)  0.0546 (   6)  0.0467 (   7)
................................................................................
.............................. CYCLE   13 ......................................
................................................................................
   1    -45.5930093 -0.455930E+02  0.134E-01    8.80       0.0  T
   2    -45.5930359 -0.265499E-04  0.997E-02    8.80       1.0  T
   3    -45.5930478 -0.118819E-04  0.252E-02    8.81       1.0  T
   4    -45.5930509 -0.315575E-05  0.634E-03    8.81       3.3  T
   5    -45.5930510 -0.529734E-07  0.221E-03    8.81       9.4  T
   6    -45.5930510 -0.513044E-08  0.101E-03    8.81      20.6  T
speedup  1.11
cpu  time for SCC    0.00 s
wall time for SCC    0.00 s
speedup  1.00
cpu  time for grad    0.01 s
wall time for grad    0.01 s
 E :    -45.35121244  G :  0.015988    pred/act E change: -0.189D-02 -0.473D-03
Maxdispl :   0.0765   ||displ|| :   0.1376   Lambda : -0.748D-03
Largest |displ|/coords:  0.0765 (   6)  0.0442 (   3)  0.0377 (   7)
................................................................................
.............................. CYCLE   14 ......................................
................................................................................
   1    -45.5907258 -0.455907E+02  0.113E-01    8.80       0.0  T
   2    -45.5907341 -0.824416E-05  0.840E-02    8.80       1.0  T
   3    -45.5907384 -0.433201E-05  0.168E-02    8.81       1.2  T
   4    -45.5907396 -0.124023E-05  0.364E-03    8.81       5.7  T
   5    -45.5907397 -0.151407E-07  0.148E-03    8.81      14.1  T
   6    -45.5907397 -0.253134E-08  0.719E-04    8.81      29.0  T
speedup  0.89
cpu  time for SCC    0.00 s
wall time for SCC    0.00 s
speedup  1.08
cpu  time for grad    0.01 s
wall time for grad    0.01 s
 E :    -45.35183329  G :  0.014517    pred/act E change: -0.680D-03 -0.621D-03
Maxdispl :   0.2009   ||displ|| :   0.3783   Lambda : -0.174D-02
Largest |displ|/coords:  0.2009 (   6)  0.1345 (   8)  0.1090 (   1)
................................................................................
.............................. CYCLE   15 ......................................
................................................................................
   1    -45.5871001 -0.455871E+02  0.325E-01    8.83       0.0  T
   2    -45.5871757 -0.755567E-04  0.239E-01    8.84       1.0  T
   3    -45.5872112 -0.355157E-04  0.518E-02    8.84       1.0  T
   4    -45.5872215 -0.103160E-04  0.114E-02    8.84       1.8  T
   5    -45.5872217 -0.133162E-06  0.413E-03    8.84       5.1  T
   6    -45.5872217 -0.302792E-07  0.218E-03    8.84       9.5  T
   7    -45.5872217 -0.753895E-08  0.662E-04    8.84      31.5  T
speedup  0.94
cpu  time for SCC    0.00 s
wall time for SCC    0.01 s
speedup  1.02
cpu  time for grad    0.01 s
wall time for grad    0.01 s
 E :    -45.35268300  G :  0.031366    pred/act E change: -0.381D-03 -0.850D-03
Maxdispl :   0.0960   ||displ|| :   0.1941   Lambda : -0.109D-02
Largest |displ|/coords:  0.0960 (   7)  0.0812 (   6)  0.0630 (   2)
................................................................................
.............................. CYCLE   16 ......................................
................................................................................
   1    -45.5890657 -0.455891E+02  0.107E-01    8.89       0.0  T
   2    -45.5890757 -0.100403E-04  0.783E-02    8.89       1.0  T
   3    -45.5890803 -0.457386E-05  0.181E-02    8.89       1.2  T
   4    -45.5890814 -0.107255E-05  0.607E-03    8.89       3.4  T
   5    -45.5890814 -0.405839E-07  0.145E-03    8.89      14.4  T
   6    -45.5890814 -0.190364E-08  0.783E-04    8.89      26.6  T
speedup  1.11
cpu  time for SCC    0.00 s
wall time for SCC    0.00 s
speedup  0.99
cpu  time for grad    0.01 s
wall time for grad    0.01 s
 E :    -45.35332510  G :  0.023149    pred/act E change: -0.994D-03 -0.642D-03
Maxdispl :   0.1122   ||displ|| :   0.2384   Lambda : -0.114D-02
Largest |displ|/coords:  0.1122 (   1)  0.1056 (   7)  0.0931 (   8)
................................................................................
.............................. CYCLE   17 ......................................
................................................................................
   1    -45.5930303 -0.455930E+02  0.143E-01    8.94       0.0  T
   2    -45.5930424 -0.121299E-04  0.106E-01    8.95       1.0  T
   3    -45.5930485 -0.612441E-05  0.218E-02    8.96       1.0  T
   4    -45.5930502 -0.169491E-05  0.795E-03    8.96       2.6  T
   5    -45.5930503 -0.501718E-07  0.183E-03    8.96      11.4  T
   6    -45.5930503 -0.367733E-08  0.987E-04    8.96      21.1  T
speedup  0.89
cpu  time for SCC    0.00 s
wall time for SCC    0.00 s
speedup  1.00
cpu  time for grad    0.01 s
wall time for grad    0.01 s
 E :    -45.35415158  G :  0.014205    pred/act E change: -0.567D-03 -0.826D-03
Maxdispl :   0.1693   ||displ|| :   0.3849   Lambda : -0.117D-02
Largest |displ|/coords:  0.1693 (   8)  0.1626 (   6)  0.1344 (   7)
................................................................................
.............................. CYCLE   18 ......................................
................................................................................
   1    -45.5950778 -0.455951E+02  0.252E-01    9.03       0.0  T
   2    -45.5951170 -0.391528E-04  0.187E-01    9.05       1.0  T
   3    -45.5951377 -0.207475E-04  0.387E-02    9.08       1.0  T
   4    -45.5951433 -0.556527E-05  0.119E-02    9.07       1.8  T
   5    -45.5951434 -0.121729E-06  0.342E-03    9.07       6.1  T
   6    -45.5951434 -0.125699E-07  0.190E-03    9.07      11.0  T
   7    -45.5951435 -0.531723E-08  0.590E-04    9.07      35.4  T
speedup  1.15
cpu  time for SCC    0.01 s
wall time for SCC    0.01 s
speedup  1.02
cpu  time for grad    0.01 s
wall time for grad    0.01 s
 E :    -45.35485338  G :  0.020020    pred/act E change: -0.600D-03 -0.702D-03
Maxdispl :   0.0942   ||displ|| :   0.2631   Lambda : -0.101D-02
Largest |displ|/coords:  0.0942 (   8)  0.0827 (   3)  0.0823 (   7)
................................................................................
.............................. CYCLE   19 ......................................
................................................................................
   1    -45.6006439 -0.456006E+02  0.152E-01    9.15       0.0  T
   2    -45.6007131 -0.691636E-04  0.109E-01    9.17       1.0  T
   3    -45.6007444 -0.312894E-04  0.428E-02    9.19       1.0  T
   4    -45.6007483 -0.395515E-05  0.968E-03    9.19       2.2  T
   5    -45.6007484 -0.124880E-06  0.363E-03    9.19       5.7  T
   6    -45.6007484 -0.113178E-07  0.180E-03    9.19      11.6  T
speedup  0.89
cpu  time for SCC    0.00 s
wall time for SCC    0.00 s
speedup  1.00
cpu  time for grad    0.01 s
wall time for grad    0.01 s
 E :    -45.35551536  G :  0.021357    pred/act E change: -0.672D-03 -0.662D-03
Maxdispl :   0.2509   ||displ|| :   0.5122   Lambda : -0.185D-02
Largest |displ|/coords:  0.2509 (   7)  0.2502 (   3)  0.1749 (   2)
................................................................................
.............................. CYCLE   20 ......................................
................................................................................
   1    -45.6014774 -0.456015E+02  0.336E-01    9.27       0.0  T
   2    -45.6016062 -0.128826E-03  0.251E-01    9.30       1.0  T
   3    -45.6016730 -0.667784E-04  0.677E-02    9.34       1.0  T
   4    -45.6016889 -0.159054E-04  0.192E-02    9.33       1.1  T
   5    -45.6016894 -0.504377E-06  0.700E-03    9.33       3.0  T
   6    -45.6016895 -0.446859E-07  0.350E-03    9.33       6.0  T
   7    -45.6016895 -0.165212E-07  0.852E-04    9.33      24.5  T
speedup  0.94
cpu  time for SCC    0.01 s
wall time for SCC    0.01 s
speedup  0.92
cpu  time for grad    0.01 s
wall time for grad    0.01 s
 E :    -45.35672865  G :  0.022692    pred/act E change: -0.542D-03 -0.121D-02
Maxdispl :   0.1202   ||displ|| :   0.3895   Lambda : -0.259D-02
Largest |displ|/coords:  0.1202 (   2)  0.1178 (  26)  0.1019 (  19)
................................................................................
.............................. CYCLE   21 ......................................
................................................................................
   1    -45.6085875 -0.456086E+02  0.342E-01    9.29       0.0  T
   2    -45.6087187 -0.131182E-03  0.253E-01    9.31       1.0  T
   3    -45.6087919 -0.732208E-04  0.694E-02    9.33       1.0  T
   4    -45.6088057 -0.137977E-04  0.200E-02    9.33       1.0  T
   5    -45.6088063 -0.610275E-06  0.710E-03    9.33       2.9  T
   6    -45.6088064 -0.388763E-07  0.349E-03    9.33       6.0  T
   7    -45.6088064 -0.184745E-07  0.759E-04    9.33      27.5  T
speedup  1.15
cpu  time for SCC    0.01 s
wall time for SCC    0.01 s
speedup  1.00
cpu  time for grad    0.01 s
wall time for grad    0.01 s
 E :    -45.35782495  G :  0.023842    pred/act E change: -0.117D-02 -0.110D-02
Maxdispl :   0.1043   ||displ|| :   0.2673   Lambda : -0.197D-02
Largest |displ|/coords:  0.1043 (   7)  0.1027 (   8)  0.0816 (  19)
................................................................................
.............................. CYCLE   22 ......................................
................................................................................
   1    -45.6085898 -0.456086E+02  0.173E-01    9.16       0.0  T
   2    -45.6086045 -0.146880E-04  0.129E-01    9.17       1.0  T
   3    -45.6086134 -0.888277E-05  0.245E-02    9.19       1.0  T
   4    -45.6086151 -0.178305E-05  0.124E-02    9.18       1.7  T
   5    -45.6086153 -0.120815E-06  0.252E-03    9.18       8.3  T
   6    -45.6086153 -0.698765E-08  0.153E-03    9.18      13.6  T
speedup  0.89
cpu  time for SCC    0.00 s
wall time for SCC    0.00 s
speedup  1.00
cpu  time for grad    0.01 s
wall time for grad    0.01 s
 E :    -45.35871562  G :  0.028247    pred/act E change: -0.149D-02 -0.891D-03
Maxdispl :   0.1562   ||displ|| :   0.2354   Lambda : -0.150D-02
Largest |displ|/coords:  0.1562 (   2)  0.0609 (  16)  0.0516 (  20)
................................................................................
.............................. CYCLE   23 ......................................
................................................................................
   1    -45.6081481 -0.456081E+02  0.138E-01    9.12       0.0  T
   2    -45.6081605 -0.123549E-04  0.103E-01    9.12       1.0  T
   3    -45.6081705 -0.999633E-05  0.208E-02    9.12       1.0  T
   4    -45.6081719 -0.145624E-05  0.647E-03    9.12       3.2  T
   5    -45.6081720 -0.496547E-07  0.250E-03    9.12       8.3  T
   6    -45.6081720 -0.828560E-08  0.126E-03    9.12      16.5  T
speedup  1.11
cpu  time for SCC    0.00 s
wall time for SCC    0.00 s
speedup  1.00
cpu  time for grad    0.01 s
wall time for grad    0.01 s
 E :    -45.35941492  G :  0.021444    pred/act E change: -0.105D-02 -0.699D-03
Maxdispl :   0.1691   ||displ|| :   0.3170   Lambda : -0.121D-02
Largest |displ|/coords:  0.1691 (   6)  0.1190 (   2)  0.1063 (  12)
................................................................................
.............................. CYCLE   24 ......................................
................................................................................
   1    -45.6080692 -0.456081E+02  0.188E-01    9.09       0.0  T
   2    -45.6080849 -0.156998E-04  0.139E-01    9.10       1.0  T
   3    -45.6080944 -0.953948E-05  0.239E-02    9.10       1.0  T
   4    -45.6080964 -0.199517E-05  0.763E-03    9.10       2.7  T
   5    -45.6080965 -0.633860E-07  0.242E-03    9.10       8.6  T
   6    -45.6080965 -0.748139E-08  0.123E-03    9.10      16.9  T
speedup  0.89
cpu  time for SCC    0.00 s
wall time for SCC    0.00 s
speedup  1.00
cpu  time for grad    0.01 s
wall time for grad    0.01 s
 E :    -45.36018047  G :  0.016566    pred/act E change: -0.794D-03 -0.766D-03
Maxdispl :   0.1332   ||displ|| :   0.2658   Lambda : -0.685D-03
Largest |displ|/coords:  0.1332 (   6)  0.1140 (   1)  0.1047 (   2)
................................................................................
.............................. CYCLE   25 ......................................
................................................................................
   1    -45.6101758 -0.456102E+02  0.153E-01    9.10       0.0  T
   2    -45.6101960 -0.201916E-04  0.114E-01    9.10       1.0  T
   3    -45.6102065 -0.105020E-04  0.263E-02    9.09       1.0  T
   4    -45.6102091 -0.258334E-05  0.756E-03    9.09       2.8  T
   5    -45.6102092 -0.839242E-07  0.243E-03    9.09       8.6  T
   6    -45.6102092 -0.509735E-08  0.127E-03    9.09      16.4  T
speedup  0.89
cpu  time for SCC    0.00 s
wall time for SCC    0.00 s
speedup  1.00
cpu  time for grad    0.01 s
wall time for grad    0.01 s
 E :    -45.36058669  G :  0.016011    pred/act E change: -0.665D-03 -0.406D-03
Maxdispl :   0.1094   ||displ|| :   0.2275   Lambda : -0.633D-03
Largest |displ|/coords:  0.1094 (   2)  0.0711 (   1)  0.0704 (   6)

generating ANC from model Hessian ...
 Shifting diagonal of input Hessian by   4.939999541524979E-003
 Lowest  eigenvalues of input Hessian
   -0.000000   -0.000000   -0.000000   -0.000000    0.000000    0.000000
    0.005000    0.005345    0.005437    0.006200    0.007163    0.008154
    0.008447    0.009244    0.011113    0.011998    0.013579    0.015500
 Highest eigenvalues
    1.391355    1.403139    1.406024    2.531033    3.352574    3.718131
 
cpu  time for ANC gen    0.01 s
wall time for ANC gen    0.01 s
................................................................................
.............................. CYCLE   26 ......................................
................................................................................
   1    -45.6083388 -0.456083E+02  0.124E-01    9.07       0.0  T
   2    -45.6083530 -0.141759E-04  0.918E-02    9.06       1.0  T
   3    -45.6083582 -0.517864E-05  0.215E-02    9.05       1.0  T
   4    -45.6083602 -0.201751E-05  0.492E-03    9.05       4.2  T
   5    -45.6083602 -0.308408E-07  0.173E-03    9.05      12.0  T
   6    -45.6083602 -0.318333E-08  0.811E-04    9.05      25.7  T
   7    -45.6083602 -0.125569E-08  0.300E-04    9.05      69.6  T
speedup  0.94
cpu  time for SCC    0.00 s
wall time for SCC    0.01 s
speedup  0.98
cpu  time for grad    0.01 s
wall time for grad    0.01 s
 E :    -45.36084602  G :  0.011436    pred/act E change:  0.000D+00 -0.259D-03
Maxdispl :   0.0418   ||displ|| :   0.1145   Lambda : -0.443D-03
Largest |displ|/coords:  0.0418 (  14)  0.0370 (   9)  0.0368 (  12)
................................................................................
.............................. CYCLE   27 ......................................
................................................................................
   1    -45.6096452 -0.456096E+02  0.742E-02    9.10       0.0  T
   2    -45.6096466 -0.149391E-05  0.559E-02    9.10       1.0  T
   3    -45.6096479 -0.123449E-05  0.681E-03    9.10       3.1  T
   4    -45.6096481 -0.170926E-06  0.230E-03    9.10       9.1  T
   5    -45.6096481 -0.484526E-08  0.794E-04    9.10      26.3  T
speedup  1.05
cpu  time for SCC    0.00 s
wall time for SCC    0.00 s
speedup  1.06
cpu  time for grad    0.01 s
wall time for grad    0.01 s
 E :    -45.36114129  G :  0.006924    pred/act E change:  0.000D+00 -0.295D-03
Maxdispl :   0.0668   ||displ|| :   0.1326   Lambda : -0.209D-03
Largest |displ|/coords:  0.0668 (  11)  0.0530 (   2)  0.0430 (   1)
................................................................................
.............................. CYCLE   28 ......................................
................................................................................
   1    -45.6108015 -0.456108E+02  0.706E-02    9.15       0.0  T
   2    -45.6108025 -0.992622E-06  0.532E-02    9.15       1.0  T
   3    -45.6108033 -0.863590E-06  0.589E-03    9.14       3.5  T
   4    -45.6108034 -0.991036E-07  0.273E-03    9.14       7.6  T
   5    -45.6108034 -0.537626E-08  0.549E-04    9.14      38.0  T
speedup  1.05
cpu  time for SCC    0.00 s
wall time for SCC    0.00 s
speedup  1.07
cpu  time for grad    0.01 s
wall time for grad    0.01 s
 E :    -45.36126305  G :  0.004714    pred/act E change: -0.224D-03 -0.122D-03
Maxdispl :   0.0783   ||displ|| :   0.1744   Lambda : -0.170D-03
Largest |displ|/coords:  0.0783 (  11)  0.0678 (   2)  0.0614 (   4)
................................................................................
.............................. CYCLE   29 ......................................
................................................................................
   1    -45.6116038 -0.456116E+02  0.896E-02    9.20       0.0  T
   2    -45.6116059 -0.200668E-05  0.680E-02    9.19       1.0  T
   3    -45.6116076 -0.172334E-05  0.786E-03    9.19       2.7  T
   4    -45.6116078 -0.268561E-06  0.363E-03    9.19       5.7  T
   5    -45.6116079 -0.999106E-08  0.834E-04    9.19      25.0  T
   6    -45.6116079 -0.611699E-09  0.483E-04    9.19      43.2  T
speedup  1.09
cpu  time for SCC    0.00 s
wall time for SCC    0.00 s
speedup  1.08
cpu  time for grad    0.01 s
wall time for grad    0.01 s
 E :    -45.36135954  G :  0.005292    pred/act E change: -0.106D-03 -0.965D-04
Maxdispl :   0.0895   ||displ|| :   0.1725   Lambda : -0.138D-03
Largest |displ|/coords:  0.0895 (   2)  0.0777 (  11)  0.0561 (   1)
................................................................................
.............................. CYCLE   30 ......................................
................................................................................
   1    -45.6117342 -0.456117E+02  0.773E-02    9.21       0.0  T
   2    -45.6117364 -0.216415E-05  0.587E-02    9.21       1.0  T
   3    -45.6117379 -0.149234E-05  0.824E-03    9.21       2.5  T
   4    -45.6117383 -0.354330E-06  0.335E-03    9.21       6.2  T
   5    -45.6117383 -0.146766E-07  0.910E-04    9.21      22.9  T
   6    -45.6117383 -0.819043E-09  0.490E-04    9.21      42.6  T
speedup  1.09
cpu  time for SCC    0.00 s
wall time for SCC    0.00 s
speedup  0.98
cpu  time for grad    0.01 s
wall time for grad    0.01 s
 E :    -45.36147604  G :  0.005259    pred/act E change: -0.874D-04 -0.116D-03
Maxdispl :   0.2235   ||displ|| :   0.4043   Lambda : -0.302D-03
Largest |displ|/coords:  0.2235 (   2)  0.1705 (  11)  0.1280 (   1)
................................................................................
.............................. CYCLE   31 ......................................
................................................................................
   1    -45.6107382 -0.456107E+02  0.182E-01    9.22       0.0  T
   2    -45.6107529 -0.146164E-04  0.138E-01    9.21       1.0  T
   3    -45.6107618 -0.897884E-05  0.211E-02    9.20       1.0  T
   4    -45.6107645 -0.262406E-05  0.782E-03    9.20       2.7  T
   5    -45.6107646 -0.847119E-07  0.241E-03    9.20       8.7  T
   6    -45.6107646 -0.537579E-08  0.126E-03    9.20      16.5  T
speedup  1.11
cpu  time for SCC    0.00 s
wall time for SCC    0.00 s
speedup  0.99
cpu  time for grad    0.01 s
wall time for grad    0.01 s
 E :    -45.36169252  G :  0.007581    pred/act E change: -0.709D-04 -0.216D-03
Maxdispl :   0.2063   ||displ|| :   0.3732   Lambda : -0.221D-03
Largest |displ|/coords:  0.2063 (   2)  0.1448 (  11)  0.1238 (   1)
................................................................................
.............................. CYCLE   32 ......................................
................................................................................
   1    -45.6095472 -0.456095E+02  0.169E-01    9.19       0.0  T
   2    -45.6095687 -0.215221E-04  0.129E-01    9.18       1.0  T
   3    -45.6095784 -0.969503E-05  0.263E-02    9.16       1.0  T
   4    -45.6095825 -0.402872E-05  0.765E-03    9.16       2.7  T
   5    -45.6095826 -0.957038E-07  0.258E-03    9.16       8.1  T
   6    -45.6095826 -0.747249E-08  0.127E-03    9.16      16.4  T
speedup  0.89
cpu  time for SCC    0.00 s
wall time for SCC    0.00 s
speedup  0.99
cpu  time for grad    0.01 s
wall time for grad    0.01 s
 E :    -45.36187994  G :  0.011085    pred/act E change: -0.175D-03 -0.187D-03
Maxdispl :   0.3236   ||displ|| :   0.5837   Lambda : -0.494D-03
Largest |displ|/coords:  0.3236 (   2)  0.2089 (  11)  0.1838 (   1)
................................................................................
.............................. CYCLE   33 ......................................
................................................................................
   1    -45.6080711 -0.456081E+02  0.276E-01    9.11       0.0  T
   2    -45.6081881 -0.116977E-03  0.208E-01    9.09       1.0  T
   3    -45.6082306 -0.425046E-04  0.622E-02    9.05       1.0  T
   4    -45.6082463 -0.157445E-04  0.143E-02    9.05       1.5  T
   5    -45.6082467 -0.405996E-06  0.499E-03    9.05       4.2  T
   6    -45.6082468 -0.302395E-07  0.232E-03    9.05       9.0  T
   7    -45.6082468 -0.871009E-08  0.807E-04    9.05      25.8  T
speedup  1.15
cpu  time for SCC    0.01 s
wall time for SCC    0.01 s
speedup  1.03
cpu  time for grad    0.01 s
wall time for grad    0.01 s
 E :    -45.36234759  G :  0.018529    pred/act E change: -0.126D-03 -0.468D-03
Maxdispl :   0.3358   ||displ|| :   0.6649   Lambda : -0.115D-02
Largest |displ|/coords:  0.3358 (   2)  0.1997 (  13)  0.1958 (  11)
................................................................................
.............................. CYCLE   34 ......................................
................................................................................
   1    -45.6091607 -0.456092E+02  0.384E-01    8.95       0.0  T
   2    -45.6095681 -0.407403E-03  0.280E-01    8.92       1.0  T
   3    -45.6097188 -0.150715E-03  0.109E-01    8.87       1.0  T
   4    -45.6097459 -0.270457E-04  0.226E-02    8.86       1.0  T
   5    -45.6097470 -0.114585E-05  0.834E-03    8.86       2.5  T
   6    -45.6097471 -0.904524E-07  0.354E-03    8.86       5.9  T
   7    -45.6097471 -0.225384E-07  0.127E-03    8.86      16.4  T
   8    -45.6097471 -0.340235E-08  0.453E-04    8.86      46.0  T
speedup  1.02
cpu  time for SCC    0.01 s
wall time for SCC    0.01 s
speedup  0.96
cpu  time for grad    0.01 s
wall time for grad    0.01 s
 E :    -45.36293437  G :  0.031536    pred/act E change: -0.331D-03 -0.587D-03
Maxdispl :   0.0768   ||displ|| :   0.1499   Lambda : -0.882D-03
Largest |displ|/coords:  0.0768 (   3)  0.0709 (   2)  0.0543 (  11)
................................................................................
.............................. CYCLE   35 ......................................
................................................................................
   1    -45.6089888 -0.456090E+02  0.131E-01    8.90       0.0  T
   2    -45.6090008 -0.119995E-04  0.969E-02    8.89       1.0  T
   3    -45.6090052 -0.437907E-05  0.209E-02    8.87       1.0  T
   4    -45.6090071 -0.185583E-05  0.469E-03    8.88       4.4  T
   5    -45.6090071 -0.480644E-07  0.161E-03    8.88      13.0  T
speedup  1.05
cpu  time for SCC    0.00 s
wall time for SCC    0.00 s
speedup  0.96
cpu  time for grad    0.01 s
wall time for grad    0.01 s
 E :    -45.36354904  G :  0.027235    pred/act E change: -0.831D-03 -0.615D-03
Maxdispl :   0.1213   ||displ|| :   0.3844   Lambda : -0.339D-02
Largest |displ|/coords:  0.1213 (   1)  0.1191 (  13)  0.1132 (  24)
................................................................................
.............................. CYCLE   36 ......................................
................................................................................
   1    -45.6258185 -0.456258E+02  0.359E-01    9.03       0.0  T
   2    -45.6259440 -0.125443E-03  0.264E-01    9.00       1.0  T
   3    -45.6259925 -0.485392E-04  0.728E-02    8.95       1.0  T
   4    -45.6260068 -0.142549E-04  0.201E-02    8.96       1.0  T
   5    -45.6260074 -0.696590E-06  0.550E-03    8.96       3.8  T
   6    -45.6260075 -0.348916E-07  0.311E-03    8.96       6.7  T
speedup  0.91
cpu  time for SCC    0.00 s
wall time for SCC    0.00 s
speedup  0.98
cpu  time for grad    0.01 s
wall time for grad    0.01 s
 E :    -45.36377612  G :  0.044119    pred/act E change: -0.451D-03 -0.227D-03
Maxdispl :   0.1230   ||displ|| :   0.2998   Lambda : -0.260D-02
Largest |displ|/coords:  0.1230 (  13)  0.1043 (   1)  0.0962 (   9)
................................................................................
.............................. CYCLE   37 ......................................
................................................................................
   1    -45.6236034 -0.456236E+02  0.268E-01    9.01       0.0  T
   2    -45.6236806 -0.771553E-04  0.200E-01    9.01       1.0  T
   3    -45.6237105 -0.298980E-04  0.517E-02    9.00       1.0  T
   4    -45.6237214 -0.109460E-04  0.113E-02    9.00       1.9  T
   5    -45.6237217 -0.332467E-06  0.408E-03    9.00       5.1  T
   6    -45.6237217 -0.133630E-07  0.198E-03    9.00      10.5  T
speedup  0.89
cpu  time for SCC    0.00 s
wall time for SCC    0.00 s
speedup  0.99
cpu  time for grad    0.01 s
wall time for grad    0.01 s
 E :    -45.36515101  G :  0.016498    pred/act E change: -0.195D-02 -0.137D-02
Maxdispl :   0.2381   ||displ|| :   0.3728   Lambda : -0.101D-02
Largest |displ|/coords:  0.2381 (   2)  0.1282 (  13)  0.1219 (   3)
................................................................................
.............................. CYCLE   38 ......................................
................................................................................
   1    -45.6141310 -0.456141E+02  0.229E-01    8.88       0.0  T
   2    -45.6141552 -0.241532E-04  0.170E-01    8.88       1.0  T
   3    -45.6141679 -0.127673E-04  0.330E-02    8.88       1.0  T
   4    -45.6141715 -0.352547E-05  0.120E-02    8.88       1.7  T
   5    -45.6141716 -0.179386E-06  0.326E-03    8.87       6.4  T
   6    -45.6141717 -0.131102E-07  0.185E-03    8.87      11.3  T
   7    -45.6141717 -0.487018E-08  0.631E-04    8.87      33.0  T
speedup  1.13
cpu  time for SCC    0.01 s
wall time for SCC    0.01 s
speedup  1.02
cpu  time for grad    0.01 s
wall time for grad    0.01 s
 E :    -45.36500272  G :  0.025206    pred/act E change: -0.141D-02  0.148D-03
Maxdispl :   0.2299   ||displ|| :   0.3851   Lambda : -0.116D-02
Largest |displ|/coords:  0.2299 (   2)  0.1502 (   1)  0.1333 (  11)
................................................................................
.............................. CYCLE   39 ......................................
................................................................................
   1    -45.6219809 -0.456220E+02  0.177E-01    8.96       0.0  T
   2    -45.6220011 -0.201451E-04  0.132E-01    8.97       1.0  T
   3    -45.6220095 -0.839245E-05  0.277E-02    9.00       1.0  T
   4    -45.6220129 -0.344087E-05  0.960E-03    9.00       2.2  T
   5    -45.6220130 -0.125036E-06  0.280E-03    9.00       7.5  T
   6    -45.6220131 -0.108603E-07  0.157E-03    9.00      13.3  T
speedup  0.89
cpu  time for SCC    0.00 s
wall time for SCC    0.00 s
speedup  1.00
cpu  time for grad    0.01 s
wall time for grad    0.01 s
 E :    -45.36546492  G :  0.012327    pred/act E change: -0.575D-03 -0.462D-03
Maxdispl :   0.1173   ||displ|| :   0.2667   Lambda : -0.660D-03
Largest |displ|/coords:  0.1173 (   7)  0.1049 (  11)  0.1009 (   2)
................................................................................
.............................. CYCLE   40 ......................................
................................................................................
   1    -45.6261585 -0.456262E+02  0.171E-01    9.06       0.0  T
   2    -45.6261996 -0.410968E-04  0.125E-01    9.04       1.0  T
   3    -45.6262156 -0.160242E-04  0.385E-02    9.02       1.0  T
   4    -45.6262197 -0.412152E-05  0.944E-03    9.02       2.2  T
   5    -45.6262199 -0.153141E-06  0.278E-03    9.02       7.5  T
   6    -45.6262199 -0.701610E-08  0.157E-03    9.02      13.3  T
speedup  0.87
cpu  time for SCC    0.00 s
wall time for SCC    0.00 s
speedup  0.99
cpu  time for grad    0.01 s
wall time for grad    0.01 s
 E :    -45.36530343  G :  0.020004    pred/act E change: -0.666D-03  0.161D-03
Maxdispl :   0.1036   ||displ|| :   0.2294   Lambda : -0.772D-03
Largest |displ|/coords:  0.1036 (   1)  0.0924 (   7)  0.0918 (   5)
................................................................................
.............................. CYCLE   41 ......................................
................................................................................
   1    -45.6222109 -0.456222E+02  0.137E-01    8.97       0.0  T
   2    -45.6222281 -0.172162E-04  0.993E-02    8.98       1.0  T
   3    -45.6222352 -0.707487E-05  0.270E-02    9.00       1.0  T
   4    -45.6222370 -0.181736E-05  0.695E-03    9.00       3.0  T
   5    -45.6222371 -0.697866E-07  0.180E-03    9.00      11.6  T
   6    -45.6222371 -0.352489E-08  0.105E-03    9.00      19.8  T
speedup  1.11
cpu  time for SCC    0.00 s
wall time for SCC    0.00 s
speedup  0.91
cpu  time for grad    0.01 s
wall time for grad    0.01 s
 E :    -45.36569563  G :  0.005334    pred/act E change: -0.354D-03 -0.392D-03
Maxdispl :   0.0390   ||displ|| :   0.0952   Lambda : -0.979D-04
Largest |displ|/coords:  0.0390 (   4)  0.0384 (   1)  0.0306 (   7)
................................................................................
.............................. CYCLE   42 ......................................
................................................................................
   1    -45.6235804 -0.456236E+02  0.672E-02    8.98       0.0  T
   2    -45.6235844 -0.394942E-05  0.497E-02    8.98       1.0  T
   3    -45.6235861 -0.169263E-05  0.112E-02    8.96       1.9  T
   4    -45.6235866 -0.535709E-06  0.266E-03    8.96       7.8  T
   5    -45.6235866 -0.178435E-07  0.968E-04    8.96      21.5  T
speedup  1.05
cpu  time for SCC    0.00 s
wall time for SCC    0.00 s
speedup  0.97
cpu  time for grad    0.01 s
wall time for grad    0.01 s
 E :    -45.36572597  G :  0.006378    pred/act E change: -0.406D-03 -0.303D-04
Maxdispl :   0.0873   ||displ|| :   0.1177   Lambda : -0.110D-03
Largest |displ|/coords:  0.0873 (   1)  0.0330 (   5)  0.0298 (   7)
................................................................................
.............................. CYCLE   43 ......................................
................................................................................
   1    -45.6226410 -0.456226E+02  0.770E-02    8.95       0.0  T
   2    -45.6226421 -0.113289E-05  0.570E-02    8.95       1.0  T
   3    -45.6226428 -0.672353E-06  0.881E-03    8.96       2.4  T
   4    -45.6226429 -0.150531E-06  0.329E-03    8.95       6.3  T
   5    -45.6226429 -0.899862E-08  0.624E-04    8.95      33.4  T
   6    -45.6226429 -0.482579E-09  0.399E-04    8.95      52.3  T
speedup  0.87
cpu  time for SCC    0.00 s
wall time for SCC    0.00 s
speedup  0.98
cpu  time for grad    0.01 s
wall time for grad    0.01 s
 E :    -45.36579423  G :  0.003788    pred/act E change: -0.494D-04 -0.683D-04
Maxdispl :   0.1499   ||displ|| :   0.2143   Lambda : -0.847D-04
Largest |displ|/coords:  0.1499 (   1)  0.0871 (   5)  0.0635 (   2)
................................................................................
.............................. CYCLE   44 ......................................
................................................................................
   1    -45.6217595 -0.456218E+02  0.104E-01    8.93       0.0  T
   2    -45.6217608 -0.133723E-05  0.775E-02    8.93       1.0  T
   3    -45.6217622 -0.137124E-05  0.985E-03    8.94       2.1  T
   4    -45.6217623 -0.989751E-07  0.340E-03    8.94       6.1  T
   5    -45.6217623 -0.144011E-07  0.893E-04    8.94      23.4  T
   6    -45.6217623 -0.591051E-09  0.585E-04    8.94      35.7  T
speedup  0.87
cpu  time for SCC    0.00 s
wall time for SCC    0.00 s
speedup  0.93
cpu  time for grad    0.01 s
wall time for grad    0.01 s
 E :    -45.36582164  G :  0.004262    pred/act E change: -0.557D-04 -0.274D-04
Maxdispl :   0.0229   ||displ|| :   0.0590   Lambda : -0.458D-04
Largest |displ|/coords:  0.0229 (   1)  0.0226 (   5)  0.0205 (   2)
................................................................................
.............................. CYCLE   45 ......................................
................................................................................
   1    -45.6223994 -0.456224E+02  0.261E-02    8.95       0.0  T
   2    -45.6223995 -0.187187E-06  0.196E-02    8.94       1.1  T
   3    -45.6223997 -0.141054E-06  0.266E-03    8.94       7.8  T
   4    -45.6223997 -0.249678E-07  0.101E-03    8.94      20.6  T
speedup  0.97
cpu  time for SCC    0.00 s
wall time for SCC    0.00 s
speedup  0.94
cpu  time for grad    0.01 s
wall time for grad    0.01 s
 E :    -45.36585120  G :  0.002811    pred/act E change: -0.443D-04 -0.296D-04
Maxdispl :   0.0637   ||displ|| :   0.0814   Lambda : -0.379D-04
Largest |displ|/coords:  0.0637 (   1)  0.0220 (   2)  0.0185 (  12)
................................................................................
.............................. CYCLE   46 ......................................
................................................................................
   1    -45.6225578 -0.456226E+02  0.375E-02    8.95       0.0  T
   2    -45.6225583 -0.407353E-06  0.280E-02    8.95       1.0  T
   3    -45.6225585 -0.244690E-06  0.400E-03    8.94       5.2  T
   4    -45.6225586 -0.612972E-07  0.140E-03    8.94      14.9  T
   5    -45.6225586 -0.304438E-08  0.458E-04    8.94      45.6  T
   6    -45.6225586 -0.294037E-09  0.261E-04    8.94      80.0  T
speedup  1.11
cpu  time for SCC    0.01 s
wall time for SCC    0.00 s
speedup  1.04
cpu  time for grad    0.01 s
wall time for grad    0.01 s
 E :    -45.36587835  G :  0.002073    pred/act E change: -0.230D-04 -0.271D-04
Maxdispl :   0.1489   ||displ|| :   0.1722   Lambda : -0.485D-04
Largest |displ|/coords:  0.1489 (   1)  0.0555 (   3)  0.0283 (  12)
................................................................................
.............................. CYCLE   47 ......................................
................................................................................
   1    -45.6222162 -0.456222E+02  0.875E-02    8.95       0.0  T
   2    -45.6222175 -0.126827E-05  0.654E-02    8.95       1.0  T
   3    -45.6222183 -0.880984E-06  0.778E-03    8.95       2.7  T
   4    -45.6222185 -0.189345E-06  0.285E-03    8.95       7.3  T
   5    -45.6222185 -0.860535E-08  0.842E-04    8.95      24.8  T
   6    -45.6222185 -0.914241E-09  0.505E-04    8.95      41.3  T
speedup  1.11
cpu  time for SCC    0.00 s
wall time for SCC    0.00 s
speedup  1.05
cpu  time for grad    0.01 s
wall time for grad    0.01 s
 E :    -45.36591176  G :  0.002640    pred/act E change: -0.191D-04 -0.334D-04
Maxdispl :   0.1389   ||displ|| :   0.1637   Lambda : -0.372D-04
Largest |displ|/coords:  0.1389 (   1)  0.0556 (   3)  0.0289 (  17)
................................................................................
.............................. CYCLE   48 ......................................
................................................................................
   1    -45.6220316 -0.456220E+02  0.727E-02    8.96       0.0  T
   2    -45.6220325 -0.844878E-06  0.544E-02    8.96       1.0  T
   3    -45.6220331 -0.626808E-06  0.629E-03    8.96       3.3  T
   4    -45.6220332 -0.122756E-06  0.263E-03    8.96       7.9  T
   5    -45.6220332 -0.681666E-08  0.676E-04    8.96      30.8  T
   6    -45.6220332 -0.468411E-09  0.432E-04    8.96      48.2  T
speedup  0.89
cpu  time for SCC    0.00 s
wall time for SCC    0.00 s
speedup  0.96
cpu  time for grad    0.01 s
wall time for grad    0.01 s
 E :    -45.36593615  G :  0.002780    pred/act E change: -0.250D-04 -0.244D-04
Maxdispl :   0.1557   ||displ|| :   0.1828   Lambda : -0.312D-04
Largest |displ|/coords:  0.1557 (   1)  0.0694 (   3)  0.0230 (  17)
................................................................................
.............................. CYCLE   49 ......................................
................................................................................
   1    -45.6214750 -0.456215E+02  0.889E-02    8.96       0.0  T
   2    -45.6214760 -0.950297E-06  0.667E-02    8.96       1.0  T
   3    -45.6214767 -0.761691E-06  0.662E-03    8.96       3.1  T
   4    -45.6214769 -0.132585E-06  0.253E-03    8.96       8.3  T
   5    -45.6214769 -0.529300E-08  0.698E-04    8.96      29.9  T
   6    -45.6214769 -0.453149E-09  0.426E-04    8.96      48.9  T
speedup  1.11
cpu  time for SCC    0.01 s
wall time for SCC    0.00 s
speedup  1.04
cpu  time for grad    0.01 s
wall time for grad    0.01 s
 E :    -45.36595265  G :  0.004475    pred/act E change: -0.191D-04 -0.165D-04
Maxdispl :   0.0609   ||displ|| :   0.1026   Lambda : -0.366D-04
Largest |displ|/coords:  0.0609 (   1)  0.0582 (   3)  0.0240 (  17)
................................................................................
.............................. CYCLE   50 ......................................
................................................................................
   1    -45.6224103 -0.456224E+02  0.399E-02    8.97       0.0  T
   2    -45.6224110 -0.650217E-06  0.298E-02    8.97       1.0  T
   3    -45.6224113 -0.335825E-06  0.596E-03    8.97       3.5  T
   4    -45.6224114 -0.951902E-07  0.210E-03    8.97       9.9  T
   5    -45.6224114 -0.653812E-08  0.513E-04    8.97      40.7  T
speedup  1.05
cpu  time for SCC    0.00 s
wall time for SCC    0.00 s
speedup  1.07
cpu  time for grad    0.01 s
wall time for grad    0.01 s
 E :    -45.36597453  G :  0.002611    pred/act E change: -0.161D-04 -0.219D-04
Maxdispl :   0.0986   ||displ|| :   0.1413   Lambda : -0.277D-04
Largest |displ|/coords:  0.0986 (   1)  0.0755 (   3)  0.0310 (   2)
................................................................................
.............................. CYCLE   51 ......................................
................................................................................
   1    -45.6223871 -0.456224E+02  0.634E-02    8.97       0.0  T
   2    -45.6223877 -0.599368E-06  0.475E-02    8.97       1.0  T
   3    -45.6223882 -0.452810E-06  0.552E-03    8.97       3.8  T
   4    -45.6223882 -0.842568E-07  0.181E-03    8.97      11.5  T
   5    -45.6223882 -0.383395E-08  0.543E-04    8.97      38.4  T
   6    -45.6223882 -0.244825E-09  0.304E-04    8.97      68.6  T
speedup  1.11
cpu  time for SCC    0.00 s
wall time for SCC    0.00 s
speedup  1.04
cpu  time for grad    0.01 s
wall time for grad    0.01 s
 E :    -45.36599399  G :  0.002877    pred/act E change: -0.185D-04 -0.195D-04
Maxdispl :   0.1098   ||displ|| :   0.1808   Lambda : -0.347D-04
Largest |displ|/coords:  0.1098 (   1)  0.1060 (   3)  0.0483 (   2)
................................................................................
.............................. CYCLE   52 ......................................
................................................................................
   1    -45.6229906 -0.456230E+02  0.779E-02    8.98       0.0  T
   2    -45.6229915 -0.949067E-06  0.585E-02    8.98       1.0  T
   3    -45.6229923 -0.797174E-06  0.733E-03    8.97       2.8  T
   4    -45.6229924 -0.116375E-06  0.255E-03    8.97       8.2  T
   5    -45.6229924 -0.606539E-08  0.698E-04    8.97      29.9  T
   6    -45.6229924 -0.439918E-09  0.416E-04    8.97      50.1  T
speedup  0.87
cpu  time for SCC    0.00 s
wall time for SCC    0.00 s
speedup  0.93
cpu  time for grad    0.01 s
wall time for grad    0.01 s
 E :    -45.36601715  G :  0.002371    pred/act E change: -0.141D-04 -0.232D-04
Maxdispl :   0.1234   ||displ|| :   0.1957   Lambda : -0.288D-04
Largest |displ|/coords:  0.1234 (   3)  0.1026 (   1)  0.0703 (   2)

generating ANC from model Hessian ...
 Shifting diagonal of input Hessian by   4.818697408519367E-003
 Lowest  eigenvalues of input Hessian
   -0.000000    0.000000    0.000000    0.000000    0.000000    0.000000
    0.005000    0.005310    0.005748    0.005940    0.006837    0.007601
    0.008102    0.008884    0.010035    0.011183    0.012050    0.012831
 Highest eigenvalues
    1.408398    1.409634    1.431010    2.614640    3.438862    3.636682
 
cpu  time for ANC gen    0.01 s
wall time for ANC gen    0.01 s
................................................................................
.............................. CYCLE   53 ......................................
................................................................................
   1    -45.6229828 -0.456230E+02  0.809E-02    8.98       0.0  T
   2    -45.6229840 -0.119053E-05  0.605E-02    8.98       1.0  T
   3    -45.6229849 -0.842490E-06  0.823E-03    8.97       2.5  T
   4    -45.6229850 -0.171885E-06  0.304E-03    8.97       6.9  T
   5    -45.6229850 -0.676928E-08  0.751E-04    8.97      27.8  T
   6    -45.6229850 -0.602505E-09  0.451E-04    8.97      46.3  T
speedup  0.89
cpu  time for SCC    0.00 s
wall time for SCC    0.00 s
speedup  0.96
cpu  time for grad    0.01 s
wall time for grad    0.01 s
 E :    -45.36603998  G :  0.003187    pred/act E change:  0.000D+00 -0.228D-04
Maxdispl :   0.0415   ||displ|| :   0.0589   Lambda : -0.449D-04
Largest |displ|/coords:  0.0415 (   4)  0.0239 (   7)  0.0163 (   1)
................................................................................
.............................. CYCLE   54 ......................................
................................................................................
   1    -45.6234617 -0.456235E+02  0.308E-02    8.97       0.0  T
   2    -45.6234620 -0.264542E-06  0.230E-02    8.97       1.0  T
   3    -45.6234621 -0.117620E-06  0.312E-03    8.98       6.7  T
   4    -45.6234622 -0.495493E-07  0.105E-03    8.98      19.9  T
   5    -45.6234622 -0.112740E-08  0.298E-04    8.98      70.0  T
   6    -45.6234622 -0.990852E-10  0.162E-04    8.98     128.6  T
speedup  0.89
cpu  time for SCC    0.00 s
wall time for SCC    0.00 s
speedup  0.96
cpu  time for grad    0.01 s
wall time for grad    0.01 s
 E :    -45.36607479  G :  0.001656    pred/act E change:  0.000D+00 -0.348D-04
Maxdispl :   0.1024   ||displ|| :   0.1448   Lambda : -0.672D-04
Largest |displ|/coords:  0.1024 (   4)  0.0506 (   7)  0.0428 (   1)
................................................................................
.............................. CYCLE   55 ......................................
................................................................................
   1    -45.6236651 -0.456237E+02  0.698E-02    8.98       0.0  T
   2    -45.6236661 -0.919916E-06  0.521E-02    8.98       1.0  T
   3    -45.6236667 -0.595335E-06  0.585E-03    8.98       3.6  T
   4    -45.6236668 -0.137412E-06  0.231E-03    8.98       9.0  T
   5    -45.6236668 -0.445549E-08  0.609E-04    8.98      34.3  T
   6    -45.6236668 -0.436188E-09  0.341E-04    8.98      61.2  T
speedup  1.11
cpu  time for SCC    0.00 s
wall time for SCC    0.00 s
speedup  1.04
cpu  time for grad    0.01 s
wall time for grad    0.01 s
 E :    -45.36612303  G :  0.001706    pred/act E change: -0.225D-04 -0.482D-04
Maxdispl :   0.1823   ||displ|| :   0.2232   Lambda : -0.637D-04
Largest |displ|/coords:  0.1823 (   4)  0.0649 (   1)  0.0565 (   7)
................................................................................
.............................. CYCLE   56 ......................................
................................................................................
   1    -45.6228565 -0.456229E+02  0.989E-02    8.98       0.0  T
   2    -45.6228579 -0.144826E-05  0.740E-02    8.98       1.0  T
   3    -45.6228592 -0.128988E-05  0.752E-03    8.98       2.8  T
   4    -45.6228593 -0.146449E-06  0.274E-03    8.98       7.6  T
   5    -45.6228593 -0.705894E-08  0.848E-04    8.98      24.6  T
   6    -45.6228593 -0.923393E-09  0.468E-04    8.98      44.6  T
speedup  0.89
cpu  time for SCC    0.00 s
wall time for SCC    0.00 s
speedup  0.96
cpu  time for grad    0.01 s
wall time for grad    0.01 s
 E :    -45.36616777  G :  0.002630    pred/act E change: -0.343D-04 -0.447D-04
Maxdispl :   0.2100   ||displ|| :   0.2615   Lambda : -0.622D-04
Largest |displ|/coords:  0.2100 (   4)  0.0804 (   3)  0.0638 (   5)
................................................................................
.............................. CYCLE   57 ......................................
................................................................................
   1    -45.6219547 -0.456220E+02  0.103E-01    8.99       0.0  T
   2    -45.6219562 -0.143602E-05  0.774E-02    8.99       1.0  T
   3    -45.6219575 -0.134588E-05  0.771E-03    8.98       2.7  T
   4    -45.6219576 -0.130618E-06  0.263E-03    8.98       7.9  T
   5    -45.6219577 -0.660602E-08  0.868E-04    8.98      24.0  T
   6    -45.6219577 -0.936488E-09  0.475E-04    8.98      43.9  T
speedup  0.87
cpu  time for SCC    0.00 s
wall time for SCC    0.00 s
speedup  0.95
cpu  time for grad    0.01 s
wall time for grad    0.01 s
 E :    -45.36621236  G :  0.004402    pred/act E change: -0.335D-04 -0.446D-04
Maxdispl :   0.2539   ||displ|| :   0.3002   Lambda : -0.955D-04
Largest |displ|/coords:  0.2539 (   4)  0.0925 (   3)  0.0577 (   5)
................................................................................
.............................. CYCLE   58 ......................................
................................................................................
   1    -45.6218229 -0.456218E+02  0.101E-01    9.00       0.0  T
   2    -45.6218246 -0.171330E-05  0.754E-02    9.00       1.0  T
   3    -45.6218260 -0.139189E-05  0.892E-03    9.00       2.3  T
   4    -45.6218262 -0.206491E-06  0.277E-03    9.00       7.5  T
   5    -45.6218262 -0.950647E-08  0.965E-04    9.00      21.6  T
speedup  1.05
cpu  time for SCC    0.00 s
wall time for SCC    0.00 s
speedup  0.97
cpu  time for grad    0.01 s
wall time for grad    0.01 s
 E :    -45.36628604  G :  0.005503    pred/act E change: -0.332D-04 -0.737D-04
Maxdispl :   0.3435   ||displ|| :   0.4001   Lambda : -0.153D-03
Largest |displ|/coords:  0.3435 (   4)  0.1517 (   3)  0.0700 (   6)
................................................................................
.............................. CYCLE   59 ......................................
................................................................................
   1    -45.6220871 -0.456221E+02  0.122E-01    9.04       0.0  T
   2    -45.6220903 -0.319791E-05  0.912E-02    9.03       1.0  T
   3    -45.6220922 -0.193853E-05  0.119E-02    9.02       1.7  T
   4    -45.6220927 -0.491631E-06  0.348E-03    9.02       6.0  T
   5    -45.6220927 -0.172563E-07  0.126E-03    9.02      16.5  T
   6    -45.6220927 -0.200067E-08  0.687E-04    9.02      30.3  T
speedup  0.89
cpu  time for SCC    0.00 s
wall time for SCC    0.00 s
speedup  0.97
cpu  time for grad    0.01 s
wall time for grad    0.01 s
 E :    -45.36641336  G :  0.007083    pred/act E change: -0.521D-04 -0.127D-03
Maxdispl :   0.4056   ||displ|| :   0.4832   Lambda : -0.284D-03
Largest |displ|/coords:  0.4056 (   4)  0.2033 (   3)  0.0935 (   6)
................................................................................
.............................. CYCLE   60 ......................................
................................................................................
   1    -45.6252616 -0.456253E+02  0.139E-01    9.09       0.0  T
   2    -45.6252680 -0.647404E-05  0.103E-01    9.09       1.0  T
   3    -45.6252716 -0.361470E-05  0.170E-02    9.07       1.2  T
   4    -45.6252726 -0.911330E-06  0.540E-03    9.07       3.9  T
   5    -45.6252726 -0.382506E-07  0.159E-03    9.07      13.1  T
   6    -45.6252726 -0.352804E-08  0.928E-04    9.07      22.5  T
speedup  0.89
cpu  time for SCC    0.00 s
wall time for SCC    0.00 s
speedup  0.99
cpu  time for grad    0.01 s
wall time for grad    0.01 s
 E :    -45.36659603  G :  0.008173    pred/act E change: -0.886D-04 -0.183D-03
Maxdispl :   0.6120   ||displ|| :   0.6983   Lambda : -0.380D-03
Largest |displ|/coords:  0.6120 (   4)  0.2865 (   3)  0.0754 (   6)
................................................................................
.............................. CYCLE   61 ......................................
................................................................................
   1    -45.6211202 -0.456211E+02  0.218E-01    9.10       0.0  T
   2    -45.6211308 -0.105993E-04  0.162E-01    9.10       1.0  T
   3    -45.6211372 -0.640500E-05  0.208E-02    9.09       1.0  T
   4    -45.6211387 -0.156233E-05  0.699E-03    9.09       3.0  T
   5    -45.6211388 -0.640497E-07  0.232E-03    9.09       9.0  T
   6    -45.6211388 -0.650876E-08  0.129E-03    9.09      16.2  T
speedup  0.89
cpu  time for SCC    0.00 s
wall time for SCC    0.00 s
speedup  0.99
cpu  time for grad    0.01 s
wall time for grad    0.01 s
 E :    -45.36663511  G :  0.016945    pred/act E change: -0.175D-03 -0.391D-04
Maxdispl :   0.2009   ||displ|| :   0.3027   Lambda : -0.665D-03
Largest |displ|/coords:  0.2009 (   4)  0.1357 (   1)  0.0976 (   5)
................................................................................
.............................. CYCLE   62 ......................................
................................................................................
   1    -45.6261052 -0.456261E+02  0.128E-01    9.09       0.0  T
   2    -45.6261100 -0.485895E-05  0.955E-02    9.08       1.0  T
   3    -45.6261127 -0.269879E-05  0.161E-02    9.08       1.3  T
   4    -45.6261134 -0.703253E-06  0.341E-03    9.08       6.1  T
   5    -45.6261135 -0.222533E-07  0.131E-03    9.08      15.9  T
   6    -45.6261135 -0.163296E-08  0.701E-04    9.08      29.8  T
speedup  1.14
cpu  time for SCC    0.00 s
wall time for SCC    0.00 s
speedup  0.99
cpu  time for grad    0.01 s
wall time for grad    0.01 s
 E :    -45.36699841  G :  0.009901    pred/act E change: -0.283D-03 -0.363D-03
Maxdispl :   0.2263   ||displ|| :   0.3401   Lambda : -0.409D-03
Largest |displ|/coords:  0.2263 (   4)  0.1527 (   1)  0.1171 (   3)
................................................................................
.............................. CYCLE   63 ......................................
................................................................................
   1    -45.6273620 -0.456274E+02  0.166E-01    9.08       0.0  T
   2    -45.6273666 -0.452415E-05  0.125E-01    9.08       1.0  T
   3    -45.6273712 -0.459896E-05  0.131E-02    9.08       1.6  T
   4    -45.6273716 -0.402186E-06  0.547E-03    9.08       3.8  T
   5    -45.6273716 -0.280477E-07  0.152E-03    9.08      13.7  T
   6    -45.6273716 -0.234635E-08  0.926E-04    9.08      22.5  T
speedup  1.11
cpu  time for SCC    0.01 s
wall time for SCC    0.00 s
speedup  0.98
cpu  time for grad    0.01 s
wall time for grad    0.01 s
 E :    -45.36728225  G :  0.007411    pred/act E change: -0.363D-03 -0.284D-03
Maxdispl :   0.2865   ||displ|| :   0.5012   Lambda : -0.537D-03
Largest |displ|/coords:  0.2865 (   4)  0.2478 (   1)  0.1640 (   3)
................................................................................
.............................. CYCLE   64 ......................................
................................................................................
   1    -45.6250000 -0.456250E+02  0.257E-01    9.04       0.0  T
   2    -45.6250101 -0.101479E-04  0.194E-01    9.05       1.0  T
   3    -45.6250206 -0.104646E-04  0.185E-02    9.06       1.1  T
   4    -45.6250215 -0.839791E-06  0.721E-03    9.06       2.9  T
   5    -45.6250215 -0.527229E-07  0.251E-03    9.06       8.3  T
   6    -45.6250215 -0.699235E-08  0.131E-03    9.06      15.9  T
speedup  0.89
cpu  time for SCC    0.00 s
wall time for SCC    0.00 s
speedup  0.99
cpu  time for grad    0.01 s
wall time for grad    0.01 s
 E :    -45.36763433  G :  0.014291    pred/act E change: -0.228D-03 -0.352D-03
Maxdispl :   0.1413   ||displ|| :   0.2640   Lambda : -0.464D-03
Largest |displ|/coords:  0.1413 (   2)  0.1036 (   1)  0.0783 (  13)
................................................................................
.............................. CYCLE   65 ......................................
................................................................................
   1    -45.6251078 -0.456251E+02  0.126E-01    9.05       0.0  T
   2    -45.6251103 -0.246151E-05  0.945E-02    9.05       1.0  T
   3    -45.6251124 -0.207571E-05  0.870E-03    9.06       2.4  T
   4    -45.6251126 -0.240104E-06  0.320E-03    9.06       6.5  T
   5    -45.6251126 -0.141837E-07  0.112E-03    9.06      18.5  T
   6    -45.6251126 -0.110273E-08  0.566E-04    9.06      36.8  T
speedup  0.89
cpu  time for SCC    0.00 s
wall time for SCC    0.00 s
speedup  0.99
cpu  time for grad    0.01 s
wall time for grad    0.01 s
 E :    -45.36795196  G :  0.010768    pred/act E change: -0.336D-03 -0.318D-03
Maxdispl :   0.2058   ||displ|| :   0.3674   Lambda : -0.461D-03
Largest |displ|/coords:  0.2058 (   2)  0.1921 (   1)  0.0979 (   3)
[...]
................................................................................
   1    -45.6373166 -0.456373E+02  0.275E-02    9.27       0.0  T
   2    -45.6373167 -0.108394E-06  0.205E-02    9.27       1.0  T
   3    -45.6373168 -0.795064E-07  0.316E-03    9.27       6.6  T
   4    -45.6373168 -0.130698E-07  0.115E-03    9.27      18.1  T
   5    -45.6373168 -0.956256E-09  0.152E-04    9.27     137.6  T
   6    -45.6373168 -0.161791E-10  0.107E-04    9.27     194.7  T
speedup  0.65
cpu  time for SCC    0.00 s
wall time for SCC    0.00 s
speedup  0.85
cpu  time for grad    0.01 s
wall time for grad    0.01 s
 E :    -45.37610809  G :  0.000561    pred/act E change: -0.798D-06 -0.101D-05
Maxdispl :   0.0092   ||displ|| :   0.0239   Lambda : -0.120D-05
Largest |displ|/coords:  0.0092 (  10)  0.0079 (   8)  0.0072 (   1)
................................................................................
.............................. CYCLE  140 ......................................
................................................................................
   1    -45.6373036 -0.456373E+02  0.226E-02    9.27       0.0  T
   2    -45.6373037 -0.782291E-07  0.169E-02    9.27       1.2  T
   3    -45.6373037 -0.554111E-07  0.243E-03    9.27       8.6  T
   4    -45.6373037 -0.107917E-07  0.926E-04    9.27      22.5  T
   5    -45.6373037 -0.581643E-09  0.139E-04    9.27     150.5  T
speedup  0.79
cpu  time for SCC    0.00 s
wall time for SCC    0.00 s
speedup  0.93
cpu  time for grad    0.01 s
wall time for grad    0.01 s
 E :    -45.37610895  G :  0.000582    pred/act E change: -0.694D-06 -0.862D-06
Maxdispl :   0.0072   ||displ|| :   0.0188   Lambda : -0.949D-06
Largest |displ|/coords:  0.0072 (  10)  0.0062 (  12)  0.0061 (   1)
................................................................................
.............................. CYCLE  141 ......................................
................................................................................
   1    -45.6373467 -0.456373E+02  0.164E-02    9.27       0.0  T
   2    -45.6373468 -0.472600E-07  0.123E-02    9.27       1.7  T
   3    -45.6373468 -0.334125E-07  0.161E-03    9.27      12.9  T
   4    -45.6373468 -0.717006E-08  0.618E-04    9.27      33.7  T
   5    -45.6373468 -0.300346E-09  0.117E-04    9.27     178.0  T
speedup  1.05
cpu  time for SCC    0.00 s
wall time for SCC    0.00 s
speedup  1.02
cpu  time for grad    0.01 s
wall time for grad    0.01 s
 E :    -45.37610962  G :  0.000511    pred/act E change: -0.599D-06 -0.664D-06
Maxdispl :   0.0070   ||displ|| :   0.0161   Lambda : -0.670D-06
Largest |displ|/coords:  0.0070 (  31)  0.0055 (  24)  0.0050 (  10)
................................................................................
.............................. CYCLE  142 ......................................
................................................................................
   1    -45.6373508 -0.456374E+02  0.180E-02    9.28       0.0  T
   2    -45.6373508 -0.579287E-07  0.135E-02    9.27       1.5  T
   3    -45.6373509 -0.289034E-07  0.192E-03    9.27      10.9  T
   4    -45.6373509 -0.105384E-07  0.705E-04    9.27      29.6  T
   5    -45.6373509 -0.279279E-09  0.112E-04    9.27     185.3  T
speedup  1.08
cpu  time for SCC    0.00 s
wall time for SCC    0.00 s
speedup  1.02
cpu  time for grad    0.01 s
wall time for grad    0.01 s
 E :    -45.37611002  G :  0.000570    pred/act E change: -0.475D-06 -0.400D-06
Maxdispl :   0.0076   ||displ|| :   0.0175   Lambda : -0.825D-06
Largest |displ|/coords:  0.0076 (  11)  0.0069 (   4)  0.0061 (   3)
................................................................................
.............................. CYCLE  143 ......................................
................................................................................
   1    -45.6375232 -0.456375E+02  0.106E-02    9.28       0.0  T
   2    -45.6375232 -0.236003E-07  0.780E-03    9.28       2.7  T
   3    -45.6375233 -0.150171E-07  0.141E-03    9.28      14.8  T
   4    -45.6375233 -0.295392E-08  0.403E-04    9.28      51.8  T
   5    -45.6375233 -0.163276E-09  0.789E-05    9.28     264.3  T
speedup  0.81
cpu  time for SCC    0.00 s
wall time for SCC    0.00 s
speedup  0.93
cpu  time for grad    0.01 s
wall time for grad    0.01 s
 E :    -45.37611006  G :  0.000612    pred/act E change: -0.335D-06 -0.462D-07
Maxdispl :   0.0041   ||displ|| :   0.0113   Lambda : -0.632D-06
Largest |displ|/coords:  0.0041 (  31)  0.0038 (   2)  0.0035 (   4)
................................................................................
.............................. CYCLE  144 ......................................
................................................................................
   1    -45.6374261 -0.456374E+02  0.949E-03    9.27       0.0  T
   2    -45.6374261 -0.211835E-07  0.695E-03    9.28       3.0  T
   3    -45.6374261 -0.841582E-08  0.146E-03    9.28      14.3  T
   4    -45.6374261 -0.306817E-08  0.472E-04    9.28      44.2  T
   5    -45.6374261 -0.113026E-09  0.534E-05    9.28     390.8  T
speedup  1.08
cpu  time for SCC    0.00 s
wall time for SCC    0.00 s
speedup  1.02
cpu  time for grad    0.01 s
wall time for grad    0.01 s
 E :    -45.37611047  G :  0.000272    pred/act E change: -0.413D-06 -0.407D-06
Maxdispl :   0.0030   ||displ|| :   0.0073   Lambda : -0.210D-06
Largest |displ|/coords:  0.0030 (  31)  0.0027 (  10)  0.0023 (  13)
................................................................................
.............................. CYCLE  145 ......................................
................................................................................
   1    -45.6373862 -0.456374E+02  0.762E-03    9.27       0.0  T
   2    -45.6373862 -0.118620E-07  0.562E-03    9.27       3.7  T
   3    -45.6373862 -0.710418E-08  0.109E-03    9.28      19.1  T
   4    -45.6373862 -0.149375E-08  0.373E-04    9.28      55.9  T
   5    -45.6373862 -0.922924E-10  0.378E-05    9.28     551.3  T
speedup  1.05
cpu  time for SCC    0.00 s
wall time for SCC    0.00 s
speedup  1.02
cpu  time for grad    0.01 s
wall time for grad    0.01 s
 E :    -45.37611063  G :  0.000268    pred/act E change: -0.316D-06 -0.161D-06
Maxdispl :   0.0055   ||displ|| :   0.0116   Lambda : -0.287D-06
Largest |displ|/coords:  0.0055 (  10)  0.0043 (  31)  0.0036 (   1)
................................................................................
.............................. CYCLE  146 ......................................
................................................................................
   1    -45.6373559 -0.456374E+02  0.120E-02    9.27       0.0  T
   2    -45.6373559 -0.258918E-07  0.885E-03    9.27       2.4  T
   3    -45.6373559 -0.198750E-07  0.162E-03    9.28      12.8  T
   4    -45.6373559 -0.266716E-08  0.520E-04    9.28      40.1  T
   5    -45.6373559 -0.261977E-09  0.555E-05    9.28     375.9  T
speedup  0.79
cpu  time for SCC    0.00 s
wall time for SCC    0.00 s
speedup  0.93
cpu  time for grad    0.01 s
wall time for grad    0.01 s
 E :    -45.37611083  G :  0.000271    pred/act E change: -0.105D-06 -0.201D-06
Maxdispl :   0.0054   ||displ|| :   0.0103   Lambda : -0.192D-06
Largest |displ|/coords:  0.0054 (  10)  0.0033 (  11)  0.0032 (  31)

generating ANC from model Hessian ...
 Shifting diagonal of input Hessian by   5.094981350161813E-003
 Lowest  eigenvalues of input Hessian
    0.005000   -0.000000   -0.000000   -0.000000    0.000000    0.000000
    0.000000    0.005342    0.005513    0.005787    0.006967    0.008539
    0.009209    0.009890    0.010626    0.011321    0.012625    0.014333
 Highest eigenvalues
    1.401783    1.410917    1.434122    2.601283    3.476847    3.618819
 
cpu  time for ANC gen    0.02 s
wall time for ANC gen    0.02 s
................................................................................
.............................. CYCLE  147 ......................................
................................................................................
   1    -45.6373526 -0.456374E+02  0.103E-02    9.27       0.0  T
   2    -45.6373526 -0.160838E-07  0.762E-03    9.27       2.7  T
   3    -45.6373526 -0.152071E-07  0.129E-03    9.28      16.2  T
   4    -45.6373526 -0.124358E-08  0.360E-04    9.28      58.0  T
   5    -45.6373526 -0.185743E-09  0.478E-05    9.28     435.8  T
speedup  0.79
cpu  time for SCC    0.00 s
wall time for SCC    0.00 s
speedup  0.93
cpu  time for grad    0.01 s
wall time for grad    0.01 s
 E :    -45.37611098  G :  0.000240    pred/act E change:  0.000D+00 -0.145D-06
Maxdispl :   0.0013   ||displ|| :   0.0022   Lambda : -0.956D-07
Largest |displ|/coords:  0.0013 (   9)  0.0009 (   7)  0.0009 (   3)
................................................................................
.............................. CYCLE  148 ......................................
................................................................................
   1    -45.6373752 -0.456374E+02  0.229E-03    9.28       0.0  T
   2    -45.6373752 -0.903597E-09  0.173E-03    9.28      12.1  T
   3    -45.6373752 -0.572555E-09  0.198E-04    9.28     105.4  T
   4    -45.6373752 -0.159297E-09  0.677E-05    9.28     307.9  T
speedup  1.00
cpu  time for SCC    0.00 s
wall time for SCC    0.00 s
speedup  0.99
cpu  time for grad    0.01 s
wall time for grad    0.01 s
 E :    -45.37611106  G :  0.000152    pred/act E change:  0.000D+00 -0.776D-07
Maxdispl :   0.0034   ||displ|| :   0.0062   Lambda : -0.169D-06
Largest |displ|/coords:  0.0034 (   9)  0.0030 (   3)  0.0021 (   2)

   *** GEOMETRY OPTIMIZATION CONVERGED AFTER 148 ITERATIONS ***

------------------------------------------------------------------------
 total energy gain (kcal):     -0.0000
------------------------------------------------------------------------
================
 final structure:
================
$coord
       -3.31340261842535       -0.57985814412540       -1.72595389749032      S 
       -4.12978429173735       -1.24946422635166        0.79201316188516      O 
       -2.26021613858989        1.95387380049350       -1.90140954863366      O 
       -1.61089477740777       -2.45879583397563       -2.81807462035086      O 
       -5.77315500777036       -0.57189014396893       -3.43485332653964      O 
       -6.57313583896670       -2.07371286716725       -2.85686257319040      H 
        3.57111919225562       -3.18349360008665        2.74125937584492      O 
        3.16647120879088       -4.91767800072572        3.07129221967881      H 
       -0.66228698879970        4.16388096077985        2.30616250535984      O 
       -1.94489170733934        5.16410237865916        3.10155847452310      H 
       -1.45778610029738        3.39685576739086        0.81302597227969      H 
        2.58758760424451        3.45401734375537       -2.05833548864955      O 
        3.24344275975662        0.44911618752722       -1.97867220243293      H 
        0.80861384867411        3.19134159013101       -2.47598387337230      H 
        2.54659761910108        4.20006341218315       -0.39640393920679      H 
       -0.41494235989565       -0.67636397566908        4.15292053658845      O 
       -1.86084569761249       -1.11552073143918        3.08539696380480      H 
        2.12762621275414       -2.18986077955640        3.44661602173803      H 
       -0.20230325417137        1.13173202463761        3.90106939472337      H 
        3.12603453365812       -1.54209137601579       -1.96551572583949      N 
        1.20859263898884       -1.99877881944594       -2.41025047262390      H 
        3.50047657347709       -2.24327873185035       -0.13025355907718      H 
        4.31708260824433       -2.30419625407464       -3.25874543681089      H 
$end
 
 Bond Distances (Angstroems)
 ---------------------------
S1-O2=1.4449         S1-O3=1.4550         S1-O4=1.4609         S1-O5=1.5850         O2-S1=1.4449         O3-S1=1.4550         
O4-S1=1.4609         O5-S1=1.5850         O5-H6=0.9510         H6-O5=0.9510         O7-H8=0.9584         O7-H18=0.9996        
H8-O7=0.9584         O9-H10=0.9581        O9-H11=0.9830        H10-O9=0.9581        H11-O9=0.9830        O12-H14=0.9769       
O12-H15=0.9642       H13-N20=1.0556       H14-O12=0.9769       H15-O12=0.9642       O16-H17=0.9791       O16-H19=0.9726       
H17-O16=0.9791       H18-O7=0.9996        H19-O16=0.9726       N20-H13=1.0556       N20-H21=1.0693       N20-H22=1.0584       
N20-H23=1.0140       H21-N20=1.0693       H22-N20=1.0584       H23-N20=1.0140       
 N  H  Rav=1.0493 sigma=0.0210  Rmin=1.0140  Rmax=1.0693     4
 O  H  Rav=0.9714 sigma=0.0143  Rmin=0.9510  Rmax=0.9996     9
 S  O  Rav=1.4864 sigma=0.0572  Rmin=1.4449  Rmax=1.5850     4
 
 selected bond angles (degree)
 --------------------
O3-S1-O2=113.54                O4-S1-O2=112.48                O4-S1-O3=111.45                O5-S1-O2=106.34                
O5-S1-O3=106.00                O5-S1-O4=106.41                H6-O5-S1=100.36                H18-O7-H8=105.36               
H11-O9-H10=106.13              
 
 selected dihedral angles (degree)
 ---------------------------------
H6-O5-S1-O2=316.54            H6-O5-S1-O3=195.41            H6-O5-S1-O4= 76.65            
 
 CMA Distance (Angstroems)
 ---------------------------
R(CMA):  3.0941

========================================================================
 FINAL SINGLEPOINT CALCULATION ON OPTIMIZED GEOMETRY
========================================================================

 Ncao       : 59
 Nao        : 58
 Nshell     : 34
 Nel        : 72
 T(el)      :   300.0
 intcut     :    25.0
 scfconv/Eh :  0.100E-05
   qconv/e  :  0.100E-03
 intneglect :  0.100E-07
 broydamp   :      0.250
 iter      E             dE          RMSdq      gap      omega  full diag
   1    -45.6373752 -0.456374E+02  0.178E-05    9.28       0.0  T
   2    -45.6373752 -0.461853E-12  0.117E-05    9.28    1784.1  T
   3    -45.6373752 -0.149214E-12  0.326E-06    9.28    6394.6  T
speedup  1.30
cpu  time for SCC    0.00 s
wall time for SCC    0.00 s

   *** convergence criteria satisfied after 3 iterations ***

          eigenvalues
 #    :          24         25         26         27         28         29         30         31
 occ. :        2.000      2.000      2.000      2.000      2.000      2.000      2.000      2.000
 eps  :       -13.693    -13.510    -13.299    -12.504    -12.340    -12.220    -12.176    -12.147
 #    :          32         33         34         35         36         37         38         39
 occ. :        2.000      2.000      2.000      2.000      2.000      0.000      0.000      0.000
 eps  :       -12.032    -11.962    -11.839    -11.676    -11.604     -2.328     -0.695     -0.404
 #    :          40         41         42         43         44         45         46         47
 occ. :        0.000      0.000      0.000      0.000      0.000      0.000      0.000      0.000
 eps  :         0.781      1.263      1.695      1.982      3.689      4.130      4.792      5.617


   #   Z            q   n(s)   n(p)   n(d)      C6AA      α(0)
   1  16 S      1.645  1.583  1.807  0.965    90.037    15.970
   2   8 O     -0.731  1.770  4.961  0.000    29.576     7.291
   3   8 O     -0.733  1.761  4.972  0.000    29.615     7.296
   4   8 O     -0.731  1.766  4.965  0.000    29.562     7.290
   5   8 O     -0.581  1.751  4.831  0.000    24.713     6.711
   6   1 H      0.343  0.657  0.000  0.000     0.594     1.206
   7   8 O     -0.613  1.749  4.864  0.000    25.503     6.816
   8   1 H      0.285  0.715  0.000  0.000     0.767     1.376
   9   8 O     -0.621  1.745  4.876  0.000    25.707     6.843
  10   1 H      0.285  0.715  0.000  0.000     0.768     1.376
  11   1 H      0.326  0.674  0.000  0.000     0.647     1.264
  12   8 O     -0.598  1.744  4.853  0.000    25.132     6.766
  13   1 H      0.286  0.714  0.000  0.000     0.758     1.364
  14   1 H      0.330  0.670  0.000  0.000     0.638     1.255
  15   1 H      0.314  0.686  0.000  0.000     0.680     1.295
  16   8 O     -0.633  1.754  4.879  0.000    25.998     6.882
  17   1 H      0.319  0.681  0.000  0.000     0.667     1.283
  18   1 H      0.343  0.657  0.000  0.000     0.604     1.221
  19   1 H      0.314  0.686  0.000  0.000     0.681     1.296
  20   7 N     -0.356  1.280  4.076  0.000    29.159     8.020
  21   1 H      0.293  0.707  0.000  0.000     0.735     1.343
  22   1 H      0.290  0.710  0.000  0.000     0.744     1.352
  23   1 H      0.225  0.775  0.000  0.000     0.986     1.555

 Mol. C6AA /au·bohr⁶  :       4495.209990
 Mol. C8AA /au·bohr⁸  :      99059.086761
 Mol. α(0) /au        :         97.070589

 
 Wiberg/Mayer (AO) data. WBOs > 0.1 written file <wbo>
 largest (>0.05) Wiberg bond orders for each atom
           total WBO             WBO to atom ...
     1  S   4.894    O    2 1.352    O    3 1.317    O    4 1.285    O    5 0.898
     2  O   1.729    S    1 1.352    O    4 0.111    O    3 0.110    O    5 0.077    H   17 0.053
     3  O   1.740    S    1 1.317    O    2 0.110    O    4 0.109    O    5 0.060    H   11 0.060
     4  O   1.751    S    1 1.285    H   21 0.124    O    2 0.111    O    3 0.109    O    5 0.070
     5  O   1.980    S    1 0.898    H    6 0.865    O    2 0.077    O    4 0.070    O    3 0.060
     6  H   0.882    O    5 0.865
     7  O   1.910    H    8 0.915    H   18 0.785    H   22 0.112    N   20 0.054
     8  H   0.919    O    7 0.915
     9  O   1.850    H   10 0.915    H   11 0.827
    10  H   0.919    O    9 0.915
    11  H   0.893    O    9 0.827    O    3 0.060
    12  O   1.924    H   15 0.890    H   14 0.846    H   13 0.104    N   20 0.053
    13  H   0.918    N   20 0.811    O   12 0.104
    14  H   0.891    O   12 0.846
    15  H   0.901    O   12 0.890
    16  O   1.885    H   19 0.857    H   17 0.840    H   18 0.096
    17  H   0.898    O   16 0.840    O    2 0.053
    18  H   0.882    O    7 0.785    O   16 0.096
    19  H   0.901    O   16 0.857
    20  N   3.518    H   23 0.946    H   13 0.811    H   22 0.801    H   21 0.783    O    7 0.054    O   12 0.053
    21  H   0.914    N   20 0.783    O    4 0.124
    22  H   0.916    N   20 0.801    O    7 0.112
    23  H   0.949    N   20 0.946
 MOs/occ written to file <molden.input>
 
molecular dipole:
                 x           y           z       tot (Debye)
 q only:        1.611      -0.604      -0.327
   full:        0.551      -0.662      -0.461       2.484
molecular quadrupole (traceless):
                xx          xy          yy          xz          yz          zz
 q only:        2.588      -4.737       4.485      -6.300       5.857      -7.073
  q+dip:        3.155      -5.657       6.299      -5.637       7.498      -9.454
   full:        3.510      -5.453       6.244      -5.317       7.831      -9.754

SCC energy    :     -45.6373752
rep           :       0.2610130
ES            :       0.2350480
AES           :      -0.0654569
AXC           :      -0.0079106
disp          :      -0.0163564
XB            :       0.0000000
fix           :       0.0000000
total E       :     -45.3761111
atomizationE  :       4.4591736     2798.17
(atE without considering molecular charge,
 total energy contains solvation terms)
H-L gap (eV)  :          9.2752
optimized geometry written to: xtbopt.xyz


------------------------------------------------------------------------
 * finished run on 2019/09/16 at 11:45:50.088     
------------------------------------------------------------------------
 total:
 * wall-time:     0 d,  0 h,  0 min,  2.775 sec
 *  cpu-time:     0 d,  0 h,  0 min,  2.737 sec
 * ratio c/w:     0.986 speedup
 SCF:
 * wall-time:     0 d,  0 h,  0 min,  0.117 sec
 *  cpu-time:     0 d,  0 h,  0 min,  0.113 sec
 * ratio c/w:     0.969 speedup
 ANC optimizer:
 * wall-time:     0 d,  0 h,  0 min,  2.636 sec
 *  cpu-time:     0 d,  0 h,  0 min,  2.604 sec
 * ratio c/w:     0.988 speedup

