      -----------------------------------------------------------      
     |                   =====================                   |     
     |                           x T B                           |     
     |                   =====================                   |     
     |                         S. Grimme                         |     
     |          Mulliken Center for Theoretical Chemistry        |     
     |                    University of Bonn                     |     
     |                 Version 6.0.1 (SAW181210)                 |     
      -----------------------------------------------------------      

   This program is distributed in the hope that it will be useful,
   but WITHOUT ANY WARRANTY; without even the implied warranty of
   MERCHANTABILITY or FITNESS FOR A PARTICULAR PURPOSE.
   
   FOR NON-COMMERCIAL, ACADEMIA USE ONLY.
   
   Cite this work as:
   S. Grimme, C. Bannwarth, P. Shushkov, J. Comput. Theory Chem., 2017,
   13, 1989-2009.
   C. Bannwarth, S. Ehlert and S. Grimme., ChemRxiv, 2018, preprint.
   http://doi.org/10.26434/chemrxiv.7246238.v1
   
   for sTDA-xTB:
   S. Grimme and C. Bannwarth, J. Chem. Phys., 2016, 145, 054103.
   
   in the mass-spec context:
   V. Asgeirsson, C. Bauer and S. Grimme, Chem. Sci., 2017, 8, 4879.
   
   if GBSA is used:
   P. Shushkov, F. März and S. Grimme, unpublished.
   
   for ANC optimizer:
   S. Grimme, unpublished.
   Rational Function algorithm used in ANCopt:
   F. Eckert, P. Pulay, H.-J. Werner, J. Comput. Chem., 1997, 18, 1473.
   
   with help from (in alphabetical order)
   C. Bannwarth, F. Bohle, G. Brandenburg, E. Caldeweyher, M. Checinski,
   S. Dohm, S. Ehlert, S. Ehrlich, F. März, H. Neugebauer, J. Pisarek,
   P. Pracht, P. Shushkov, and S. Spicher.
   
 * started run on 2019/09/16 at 12:00:50.696     
========================================================================
 # omp threads = 1
========================================================================
number of atoms            : 23
number of electrons        : 72
charge                     : 0
spin                       : .0
first test random number   : .0724

########################################################################
# WARNING! Please study the warnings concerning your input carefully
#  - XTBPATH is not set, using XTBHOME instead
#  - the use of '-opt' is discouraged, please use '--opt' next time
#  - the use of '-chrg' is discouraged, please use '--chrg' next time
#  - the use of '-uhf' is discouraged, please use '--uhf' next time
########################################################################

           ------------------------------------------------- 
          |                 G F N 2 - x T B                 |
          | Geometry, Frequencies, Noncovalent interactions |
          |            JCTC 2018 parametrisation            |
           ------------------------------------------------- 
      method parameters     
 k(s)        :  1.8500
 k(p)        :  2.2300
 k(d)        :  2.2300
 k(f)        :  2.0000
 kEN (H0ij)  : -2.0000
 D4 a1       :  0.5200
 D4 a2       :  5.0000
 D4 s6       :  1.0000
 D4 s8       :  2.7000
 D4 s9       :  5.0000
 alphaj      :  2.0000


            Z     q(EN)     CN     RAES       Cart. coordinates
     1  S   6.0    0.64    4.27    4.18    -1.92492    -1.87661    -3.06341
     2  O   6.0   -0.33    1.20    1.80    -0.90638     0.74269    -2.89039
     3  O   6.0   -0.31    1.22    1.80     0.10951    -3.71829    -2.43300
     4  O   6.0   -0.30    1.23    1.80    -4.05729    -2.17620    -1.24920
     5  O   6.0   -0.25    2.08    1.84    -2.83292    -2.34810    -5.64522
     6  H   1.0    0.14    1.21    1.47    -1.45960    -2.15528    -6.81480
     7  O   6.0   -0.39    1.66    1.81     0.32331    -0.27451     4.14689
     8  H   1.0    0.17    0.95    1.42     0.96765     0.04427     5.86937
     9  O   6.0   -0.28    1.97    1.82    -1.10745     3.47630     1.53640
    10  H   1.0    0.17    1.02    1.43    -0.98285     2.82303    -0.15840
    11  H   1.0    0.17    1.09    1.44    -0.30227     2.23114     2.59274
    12  O   6.0   -0.22    2.93    2.60     3.13822    -1.97071     1.03111
    13  H   1.0    0.15    1.06    1.44     2.19310    -3.05321    -0.16253
    14  H   1.0    0.12    1.06    1.44     3.94841    -0.52276     0.17259
    15  H   1.0    0.16    1.21    1.47     2.07853    -1.42591     2.47046
    16  O   6.0   -0.22    2.91    2.57    -4.12606    -0.39159     3.28641
    17  H   1.0    0.16    1.20    1.46    -2.36134    -0.56099     3.87539
    18  H   1.0    0.13    0.96    1.43    -4.64858     1.39642     3.14488
    19  H   1.0    0.16    1.06    1.44    -4.42816    -1.33537     1.70227
    20  N   5.0   -0.22    3.03    1.93     4.27163     2.31167    -1.58276
    21  H   1.0    0.11    0.99    1.43     4.12686     3.84756    -0.42900
    22  H   1.0    0.12    1.01    1.43     2.53392     2.09476    -2.38549
    23  H   1.0    0.11    0.99    1.43     5.44670     2.84169    -3.01431

  Z AO/shell   Hii/eV     exponent
  1     Wed Apr 25 08:07:45 CEST 2018   EN: 2.200 GM2: 0.406  GM3: 0.0800  RAES: 1.40
     1s    -10.707211    1.230000
  7     Wed Apr 25 08:07:45 CEST 2018   EN: 3.040 GM2: 0.461  GM3:-0.0640  RAES: 1.90
     2s    -16.686243    2.339881
     2p    -12.523956    2.014332
  8     Wed Apr 25 08:07:45 CEST 2018   EN: 3.440 GM2: 0.452  GM3:-0.0517  RAES: 1.80
     2s    -20.229985    2.439742
     2p    -15.503117    2.137023
 16     Tue Apr 24 11:44:34 CEST 2018   EN: 2.580 GM2: 0.340  GM3:-0.0502  RAES: 3.10
     3s    -20.029654    1.981333
     3p    -11.377694    2.025643
     3d     -0.420282    1.702555
 no old-style atom pair restraining (fixing) potential

molecular fragmentation (1/2 indicates fragments):
11111122222222222222222
# atoms in fragment 1/2:     6    17
 fragment masses (1/2) :       97.07       90.10
CMA distance (Bohr)    :   5.881
constraining FC (au)   :  0.0500
           ------------------------------------------------- 
          |        Self-Consistent Charge Iterations        |
           ------------------------------------------------- 

 Ncao       : 59
 Nao        : 58
 Nshell     : 34
 Nel        : 72
 T(el)      :   300.0
 intcut     :    25.0
 scfconv/Eh :  0.100E-05
   qconv/e  :  0.100E-03
 intneglect :  0.100E-07
 broydamp   :      0.250
 iter      E             dE          RMSdq      gap      omega  full diag
   1    -45.4621978 -0.454622E+02  0.719E+00   10.12       0.0  T
   2    -45.5071676 -0.449698E-01  0.520E+00    9.59       1.0  T
   3    -45.5409751 -0.338074E-01  0.140E+00    7.53       1.0  T
   4    -45.5459818 -0.500678E-02  0.584E-01    7.92       1.0  T
   5    -45.5466124 -0.630517E-03  0.329E-01    7.94       1.0  T
   6    -45.5470480 -0.435663E-03  0.140E-01    8.03       1.0  T
   7    -45.5471468 -0.987452E-04  0.478E-02    8.01       1.0  T
   8    -45.5471563 -0.951315E-05  0.310E-02    8.01       1.0  T
   9    -45.5471619 -0.564048E-05  0.647E-03    8.03       3.2  T
  10    -45.5471621 -0.187202E-06  0.216E-03    8.03       9.6  T
  11    -45.5471621 -0.928146E-08  0.122E-03    8.03      17.1  T
  12    -45.5471621 -0.691063E-08  0.430E-04    8.03      48.5  T
  13    -45.5471621 -0.850086E-09  0.140E-04    8.03     148.7  T
speedup  0.97
cpu  time for SCC    0.01 s
wall time for SCC    0.01 s

   *** convergence criteria satisfied after 13 iterations ***

          eigenvalues
 #    :          24         25         26         27         28         29         30         31
 occ. :        2.000      2.000      2.000      2.000      2.000      2.000      2.000      2.000
 eps  :       -12.965    -12.913    -12.430    -12.001    -11.848    -11.568    -11.271    -11.190
 #    :          32         33         34         35         36         37         38         39
 occ. :        2.000      2.000      2.000      2.000      2.000      0.000      0.000      0.000
 eps  :       -11.176    -10.955    -10.722    -10.526    -10.071     -2.044     -0.327     -0.158
 #    :          40         41         42         43         44         45         46         47
 occ. :        0.000      0.000      0.000      0.000      0.000      0.000      0.000      0.000
 eps  :         0.353      1.053      1.230      2.562      3.616      3.887      5.178      5.671


   #   Z            q   n(s)   n(p)   n(d)      C6AA      α(0)
   1  16 S      1.606  1.583  1.835  0.976    90.936    16.050
   2   8 O     -0.763  1.777  4.986  0.000    30.473     7.401
   3   8 O     -0.760  1.775  4.985  0.000    30.386     7.391
   4   8 O     -0.733  1.763  4.970  0.000    29.621     7.297
   5   8 O     -0.543  1.720  4.823  0.000    23.842     6.592
   6   1 H      0.358  0.642  0.000  0.000     0.560     1.171
   7   8 O     -0.852  1.830  5.021  0.000    33.119     7.718
   8   1 H      0.212  0.788  0.000  0.000     1.061     1.619
   9   8 O     -0.685  1.763  4.922  0.000    27.307     7.053
  10   1 H      0.294  0.706  0.000  0.000     0.741     1.352
  11   1 H      0.312  0.688  0.000  0.000     0.684     1.299
  12   8 O     -0.453  1.653  4.801  0.000    21.853     6.314
  13   1 H      0.394  0.606  0.000  0.000     0.497     1.107
  14   1 H      0.382  0.618  0.000  0.000     0.520     1.133
  15   1 H      0.404  0.596  0.000  0.000     0.470     1.073
  16   8 O     -0.426  1.650  4.777  0.000    21.311     6.235
  17   1 H      0.414  0.586  0.000  0.000     0.454     1.056
  18   1 H      0.385  0.615  0.000  0.000     0.513     1.125
  19   1 H      0.408  0.592  0.000  0.000     0.471     1.078
  20   7 N     -0.460  1.384  4.076  0.000    32.127     8.418
  21   1 H      0.165  0.835  0.000  0.000     1.306     1.790
  22   1 H      0.197  0.803  0.000  0.000     1.121     1.659
  23   1 H      0.145  0.855  0.000  0.000     1.436     1.877

 Mol. C6AA /au·bohr⁶  :       4565.516586
 Mol. C8AA /au·bohr⁸  :     100585.396589
 Mol. α(0) /au        :         97.806867

 
 Wiberg/Mayer (AO) data. WBOs > 0.1 written file <wbo>
 largest (>0.05) Wiberg bond orders for each atom
           total WBO             WBO to atom ...
     1  S   4.910    O    4 1.311    O    2 1.289    O    3 1.277    O    5 0.994
     2  O   1.670    S    1 1.289    O    3 0.115    O    4 0.113    O    5 0.074
     3  O   1.687    S    1 1.277    O    2 0.115    O    4 0.111    H   13 0.081    O    5 0.071
     4  O   1.715    S    1 1.311    O    2 0.113    O    3 0.111    H   19 0.086    O    5 0.053
     5  O   2.046    S    1 0.994    H    6 0.848    O    2 0.074    O    3 0.071    O    4 0.053
     6  H   0.871    O    5 0.848
     7  O   1.610    H    8 0.946    H   15 0.200    H   17 0.198    H   11 0.087    O   12 0.062    O   16 0.060
     8  H   0.955    O    7 0.946
     9  O   1.778    H   10 0.878    H   11 0.813
    10  H   0.914    O    9 0.878
    11  H   0.902    O    9 0.813    O    7 0.087
    12  O   2.288    H   14 0.762    H   13 0.756    H   15 0.631    O    7 0.062
    13  H   0.845    O   12 0.756    O    3 0.081
    14  H   0.854    O   12 0.762    N   20 0.086
    15  H   0.836    O   12 0.631    O    7 0.200
    16  O   2.307    H   18 0.835    H   19 0.739    H   17 0.624    O    7 0.060
    17  H   0.829    O   16 0.624    O    7 0.198
    18  H   0.852    O   16 0.835
    19  H   0.834    O   16 0.739    O    4 0.086
    20  N   3.019    H   23 0.973    H   21 0.970    H   22 0.934    H   14 0.086
    21  H   0.973    N   20 0.970
    22  H   0.961    N   20 0.934
    23  H   0.979    N   20 0.973
 MOs/occ written to file <molden.input>
 
molecular dipole:
                 x           y           z       tot (Debye)
 q only:        0.785      -0.031       0.487
   full:        0.703       0.189      -0.406       2.119
molecular quadrupole (traceless):
                xx          xy          yy          xz          yz          zz
 q only:        7.034      -1.995     -13.698     -10.309      -2.447       6.663
  q+dip:        2.334       1.194     -15.150      -8.141      -1.245      12.817
   full:        2.088       1.165     -15.706      -8.006      -0.897      13.617

SCC energy    :     -45.5471621
rep           :       0.2562777
ES            :       0.2702285
AES           :      -0.0643794
AXC           :      -0.0066129
disp          :      -0.0168077
XB            :       0.0000000
fix           :       0.0000000
total E       :     -45.2906542
atomizationE  :       4.3737167     2744.55
(atE without considering molecular charge,
 total energy contains solvation terms)
H-L gap (eV)  :          8.0272
           ------------------------------------------------- 
          |                 ===============                 |
          |                   A N C O P T                   |
          |                 ===============                 |
          |          Approximate Normal Coordinate          |
          |           Rational Function Optimizer           |
           ------------------------------------------------- 
dumping coords to <xtbopt.coord> and <xtbopt.log>
 optlevel               2
 Maxcycle             460
 Maxmicro              25
 Econv         1.000000000000000E-007
 Gconv         2.000000000000000E-004
 Maxdispl       1.00000000000000     
 Hlow          5.000000000000000E-003
 S6             20.0000000000000     
 Nvar               63

generating ANC from model Hessian ...
 Shifting diagonal of input Hessian by   4.558251999557348E-003
 Lowest  eigenvalues of input Hessian
   -0.000000   -0.000000   -0.000000   -0.000000    0.000000    0.000000
    0.005000    0.005437    0.006330    0.006358    0.006784    0.007010
    0.007318    0.008242    0.009133    0.010377    0.011173    0.012333
 Highest eigenvalues
    1.555059    1.581884    1.584967    3.141796    3.213695    3.318535
 
cpu  time for ANC gen    0.02 s
wall time for ANC gen    0.02 s
................................................................................
.............................. CYCLE    1 ......................................
................................................................................
   1    -45.5471621 -0.455472E+02  0.771E-05    8.03       0.0  T
   2    -45.5471621 -0.105231E-10  0.604E-05    8.03     345.5  T
   3    -45.5471621 -0.121645E-10  0.292E-05    8.03     712.9  T
speedup  1.20
cpu  time for SCC    0.00 s
wall time for SCC    0.00 s
speedup  1.05
cpu  time for grad    0.01 s
wall time for grad    0.01 s
 E :    -45.29065418  G :  0.208981    pred/act E change:  0.000D+00  0.441D-07
Maxdispl :   0.1158   ||displ|| :   0.3212   Lambda : -0.335D-01
Largest |displ|/coords:  0.1158 (  17)  0.1087 (  47)  0.0981 (  26)
................................................................................
.............................. CYCLE    2 ......................................
................................................................................
   1    -45.5608976 -0.455609E+02  0.322E-01    8.16       0.0  T
   2    -45.5610797 -0.182073E-03  0.245E-01    8.21       1.0  T
   3    -45.5611612 -0.814987E-04  0.827E-02    8.30       1.0  T
   4    -45.5611763 -0.150582E-04  0.212E-02    8.29       1.0  T
   5    -45.5611770 -0.773711E-06  0.568E-03    8.28       3.7  T
   6    -45.5611771 -0.405813E-07  0.314E-03    8.28       6.6  T
speedup  0.87
cpu  time for SCC    0.00 s
wall time for SCC    0.00 s
speedup  0.98
cpu  time for grad    0.01 s
wall time for grad    0.01 s
 E :    -45.31727558  G :  0.129558    pred/act E change:  0.000D+00 -0.266D-01
Maxdispl :   0.1599   ||displ|| :   0.3459   Lambda : -0.174D-01
Largest |displ|/coords:  0.1599 (  26)  0.1457 (  17)  0.1172 (  16)
................................................................................
.............................. CYCLE    3 ......................................
................................................................................
   1    -45.5680262 -0.455680E+02  0.280E-01    8.39       0.0  T
   2    -45.5682628 -0.236553E-03  0.209E-01    8.45       1.0  T
   3    -45.5683624 -0.995801E-04  0.842E-02    8.55       1.0  T
   4    -45.5683737 -0.113017E-04  0.182E-02    8.53       1.1  T
   5    -45.5683741 -0.405498E-06  0.528E-03    8.53       4.0  T
   6    -45.5683741 -0.349952E-07  0.286E-03    8.53       7.3  T
speedup  1.11
cpu  time for SCC    0.00 s
wall time for SCC    0.00 s
speedup  1.08
cpu  time for grad    0.01 s
wall time for grad    0.01 s
 E :    -45.33117289  G :  0.083215    pred/act E change: -0.185D-01 -0.139D-01
Maxdispl :   0.1531   ||displ|| :   0.3480   Lambda : -0.874D-02
Largest |displ|/coords:  0.1531 (  16)  0.1289 (  11)  0.1171 (  17)
................................................................................
.............................. CYCLE    4 ......................................
................................................................................
   1    -45.5713259 -0.455713E+02  0.279E-01    8.64       0.0  T
   2    -45.5715690 -0.243125E-03  0.202E-01    8.70       1.0  T
   3    -45.5716696 -0.100603E-03  0.777E-02    8.77       1.0  T
   4    -45.5716803 -0.106653E-04  0.153E-02    8.76       1.4  T
   5    -45.5716806 -0.268207E-06  0.474E-03    8.76       4.4  T
   6    -45.5716806 -0.223508E-07  0.257E-03    8.76       8.1  T
speedup  1.11
cpu  time for SCC    0.00 s
wall time for SCC    0.00 s
speedup  1.06
cpu  time for grad    0.01 s
wall time for grad    0.01 s
 E :    -45.33811456  G :  0.055440    pred/act E change: -0.972D-02 -0.694D-02
Maxdispl :   0.1700   ||displ|| :   0.3094   Lambda : -0.452D-02
Largest |displ|/coords:  0.1700 (  16)  0.1180 (  11)  0.1010 (   6)
................................................................................
.............................. CYCLE    5 ......................................
................................................................................
   1    -45.5727869 -0.455728E+02  0.262E-01    8.80       0.0  T
   2    -45.5729539 -0.167058E-03  0.190E-01    8.84       1.0  T
   3    -45.5730228 -0.688307E-04  0.647E-02    8.90       1.0  T
   4    -45.5730331 -0.102884E-04  0.145E-02    8.90       1.4  T
   5    -45.5730334 -0.343362E-06  0.450E-03    8.90       4.6  T
   6    -45.5730334 -0.190632E-07  0.240E-03    8.90       8.7  T
speedup  1.09
cpu  time for SCC    0.00 s
wall time for SCC    0.00 s
speedup  1.07
cpu  time for grad    0.01 s
wall time for grad    0.01 s
 E :    -45.34185032  G :  0.041558    pred/act E change: -0.490D-02 -0.374D-02
Maxdispl :   0.2302   ||displ|| :   0.4190   Lambda : -0.649D-02
Largest |displ|/coords:  0.2302 (  16)  0.1251 (   7)  0.1210 (  11)
................................................................................
.............................. CYCLE    6 ......................................
................................................................................
   1    -45.5787346 -0.455787E+02  0.399E-01    8.91       0.0  T
   2    -45.5792979 -0.563262E-03  0.283E-01    8.98       1.0  T
   3    -45.5795343 -0.236436E-03  0.110E-01    9.07       1.0  T
   4    -45.5795550 -0.206828E-04  0.254E-02    9.08       1.0  T
   5    -45.5795560 -0.972751E-06  0.817E-03    9.08       2.6  T
   6    -45.5795561 -0.677567E-07  0.426E-03    9.08       4.9  T
   7    -45.5795561 -0.266444E-07  0.124E-03    9.08      16.8  T
speedup  1.15
cpu  time for SCC    0.01 s
wall time for SCC    0.01 s
speedup  0.92
cpu  time for grad    0.01 s
wall time for grad    0.01 s
 E :    -45.34619581  G :  0.032973    pred/act E change: -0.248D-02 -0.435D-02
Maxdispl :   0.1364   ||displ|| :   0.3664   Lambda : -0.312D-02
Largest |displ|/coords:  0.1364 (  16)  0.1327 (  11)  0.1051 (   8)
................................................................................
.............................. CYCLE    7 ......................................
................................................................................
   1    -45.5824081 -0.455824E+02  0.312E-01    8.97       0.0  T
   2    -45.5826663 -0.258219E-03  0.224E-01    9.00       1.0  T
   3    -45.5827786 -0.112318E-03  0.787E-02    9.05       1.0  T
   4    -45.5827935 -0.149064E-04  0.196E-02    9.05       1.1  T
   5    -45.5827943 -0.740962E-06  0.694E-03    9.05       3.0  T
   6    -45.5827943 -0.478798E-07  0.376E-03    9.05       5.5  T
   7    -45.5827943 -0.162608E-07  0.860E-04    9.05      24.3  T
speedup  0.94
cpu  time for SCC    0.00 s
wall time for SCC    0.01 s
speedup  0.98
cpu  time for grad    0.01 s
wall time for grad    0.01 s
 E :    -45.34813216  G :  0.039924    pred/act E change: -0.382D-02 -0.194D-02
Maxdispl :   0.1137   ||displ|| :   0.3609   Lambda : -0.372D-02
Largest |displ|/coords:  0.1137 (  16)  0.1104 (   4)  0.1099 (  25)
................................................................................
.............................. CYCLE    8 ......................................
................................................................................
   1    -45.5945122 -0.455945E+02  0.344E-01    8.99       0.0  T
   2    -45.5947038 -0.191593E-03  0.254E-01    9.01       1.0  T
   3    -45.5947963 -0.925335E-04  0.736E-02    9.03       1.0  T
   4    -45.5948167 -0.203454E-04  0.144E-02    9.03       1.4  T
   5    -45.5948169 -0.176997E-06  0.643E-03    9.03       3.2  T
   6    -45.5948169 -0.491347E-07  0.267E-03    9.03       7.8  T
   7    -45.5948169 -0.863527E-08  0.637E-04    9.03      32.7  T
speedup  0.94
cpu  time for SCC    0.00 s
wall time for SCC    0.01 s
speedup  1.00
cpu  time for grad    0.01 s
wall time for grad    0.01 s
 E :    -45.34959812  G :  0.050560    pred/act E change: -0.177D-02 -0.147D-02
Maxdispl :   0.1219   ||displ|| :   0.2814   Lambda : -0.486D-02
Largest |displ|/coords:  0.1219 (  16)  0.1155 (  13)  0.0935 (   7)
................................................................................
.............................. CYCLE    9 ......................................
................................................................................
   1    -45.5826251 -0.455826E+02  0.320E-01    9.06       0.0  T
   2    -45.5827101 -0.849448E-04  0.238E-01    9.05       1.0  T
   3    -45.5827631 -0.529781E-04  0.530E-02    9.03       1.0  T
   4    -45.5827728 -0.975591E-05  0.159E-02    9.04       1.3  T
   5    -45.5827731 -0.274881E-06  0.503E-03    9.04       4.1  T
   6    -45.5827731 -0.358505E-07  0.288E-03    9.04       7.3  T
speedup  1.11
cpu  time for SCC    0.00 s
wall time for SCC    0.00 s
speedup  1.07
cpu  time for grad    0.01 s
wall time for grad    0.01 s
 E :    -45.34974604  G :  0.065000    pred/act E change: -0.210D-02 -0.148D-03
Maxdispl :   0.1339   ||displ|| :   0.3141   Lambda : -0.818D-02
Largest |displ|/coords:  0.1339 (   8)  0.1217 (  16)  0.1091 (   7)
................................................................................
.............................. CYCLE   10 ......................................
................................................................................
   1    -45.5986969 -0.455987E+02  0.365E-01    9.09       0.0  T
   2    -45.5988321 -0.135175E-03  0.270E-01    9.09       1.0  T
   3    -45.5989259 -0.938532E-04  0.679E-02    9.09       1.0  T
   4    -45.5989392 -0.132901E-04  0.175E-02    9.09       1.2  T
   5    -45.5989397 -0.510735E-06  0.762E-03    9.09       2.7  T
   6    -45.5989397 -0.304390E-07  0.351E-03    9.09       5.9  T
   7    -45.5989398 -0.280799E-07  0.735E-04    9.09      28.4  T
speedup  1.15
cpu  time for SCC    0.01 s
wall time for SCC    0.01 s
speedup  1.01
cpu  time for grad    0.01 s
wall time for grad    0.01 s
 E :    -45.35082513  G :  0.060006    pred/act E change: -0.263D-02 -0.108D-02
Maxdispl :   0.1113   ||displ|| :   0.2998   Lambda : -0.693D-02
Largest |displ|/coords:  0.1113 (   9)  0.1106 (  22)  0.1046 (  19)
................................................................................
.............................. CYCLE   11 ......................................
................................................................................
   1    -45.5876205 -0.455876E+02  0.398E-01    9.01       0.0  T
   2    -45.5877093 -0.888008E-04  0.298E-01    9.04       1.0  T
   3    -45.5877714 -0.620780E-04  0.556E-02    9.09       1.0  T
   4    -45.5877826 -0.111683E-04  0.156E-02    9.07       1.3  T
   5    -45.5877829 -0.299549E-06  0.566E-03    9.07       3.7  T
   6    -45.5877829 -0.482134E-07  0.310E-03    9.07       6.7  T
speedup  0.91
cpu  time for SCC    0.00 s
wall time for SCC    0.00 s
speedup  0.99
cpu  time for grad    0.01 s
wall time for grad    0.01 s
 E :    -45.35203891  G :  0.055749    pred/act E change: -0.449D-02 -0.121D-02
Maxdispl :   0.1195   ||displ|| :   0.3054   Lambda : -0.653D-02
Largest |displ|/coords:  0.1195 (  21)  0.1083 (  22)  0.1076 (   4)
................................................................................
.............................. CYCLE   12 ......................................
................................................................................
   1    -45.6001715 -0.456002E+02  0.436E-01    9.13       0.0  T
   2    -45.6002641 -0.926357E-04  0.330E-01    9.13       1.0  T
   3    -45.6003336 -0.694770E-04  0.565E-02    9.07       1.0  T
   4    -45.6003459 -0.122678E-04  0.149E-02    9.12       1.4  T
   5    -45.6003462 -0.377665E-06  0.647E-03    9.12       3.2  T
   6    -45.6003463 -0.242873E-07  0.300E-03    9.12       6.9  T
   7    -45.6003463 -0.174289E-07  0.656E-04    9.12      31.8  T
speedup  0.93
cpu  time for SCC    0.00 s
wall time for SCC    0.01 s
speedup  1.00
cpu  time for grad    0.01 s
wall time for grad    0.01 s
 E :    -45.35306307  G :  0.052378    pred/act E change: -0.378D-02 -0.102D-02
Maxdispl :   0.1178   ||displ|| :   0.2805   Lambda : -0.479D-02
Largest |displ|/coords:  0.1178 (   2)  0.0977 (   5)  0.0851 (   4)
................................................................................
.............................. CYCLE   13 ......................................
................................................................................
   1    -45.5956424 -0.455956E+02  0.351E-01    9.04       0.0  T
   2    -45.5956993 -0.568926E-04  0.265E-01    9.07       1.0  T
   3    -45.5957401 -0.407200E-04  0.426E-02    9.12       1.0  T
   4    -45.5957478 -0.769265E-05  0.118E-02    9.09       1.8  T
   5    -45.5957479 -0.163237E-06  0.472E-03    9.09       4.4  T
   6    -45.5957479 -0.230355E-07  0.209E-03    9.09      10.0  T
speedup  1.11
cpu  time for SCC    0.00 s
wall time for SCC    0.00 s
speedup  1.08
cpu  time for grad    0.01 s
wall time for grad    0.01 s
 E :    -45.35472494  G :  0.034153    pred/act E change: -0.357D-02 -0.166D-02
Maxdispl :   0.0646   ||displ|| :   0.1473   Lambda : -0.158D-02
Largest |displ|/coords:  0.0646 (  14)  0.0601 (   4)  0.0446 (  25)
................................................................................
.............................. CYCLE   14 ......................................
................................................................................
   1    -45.5993627 -0.455994E+02  0.131E-01    9.13       0.0  T
   2    -45.5993713 -0.852312E-05  0.987E-02    9.12       1.0  T
   3    -45.5993785 -0.725234E-05  0.161E-02    9.09       1.3  T
   4    -45.5993795 -0.102922E-05  0.551E-03    9.10       3.8  T
   5    -45.5993796 -0.304118E-07  0.210E-03    9.10       9.9  T
speedup  1.08
cpu  time for SCC    0.00 s
wall time for SCC    0.00 s
speedup  0.96
cpu  time for grad    0.01 s
wall time for grad    0.01 s
 E :    -45.35591043  G :  0.026170    pred/act E change: -0.258D-02 -0.119D-02
Maxdispl :   0.1310   ||displ|| :   0.2883   Lambda : -0.287D-02
Largest |displ|/coords:  0.1310 (  25)  0.0972 (  10)  0.0919 (   4)
................................................................................
.............................. CYCLE   15 ......................................
................................................................................
   1    -45.6075408 -0.456075E+02  0.221E-01    9.16       0.0  T
   2    -45.6075857 -0.449572E-04  0.168E-01    9.13       1.0  T
   3    -45.6076232 -0.374991E-04  0.385E-02    9.06       1.0  T
   4    -45.6076289 -0.562306E-05  0.123E-02    9.07       1.7  T
   5    -45.6076290 -0.167895E-06  0.481E-03    9.08       4.3  T
   6    -45.6076291 -0.170539E-07  0.219E-03    9.08       9.5  T
speedup  0.89
cpu  time for SCC    0.00 s
wall time for SCC    0.00 s
speedup  0.99
cpu  time for grad    0.01 s
wall time for grad    0.01 s
 E :    -45.35754621  G :  0.024220    pred/act E change: -0.806D-03 -0.164D-02
Maxdispl :   0.1076   ||displ|| :   0.1919   Lambda : -0.136D-02
Largest |displ|/coords:  0.1076 (  27)  0.0802 (  25)  0.0423 (  60)
................................................................................
.............................. CYCLE   16 ......................................
................................................................................
   1    -45.6109633 -0.456110E+02  0.153E-01    9.09       0.0  T
   2    -45.6109783 -0.149412E-04  0.115E-01    9.09       1.0  T
   3    -45.6109902 -0.119541E-04  0.209E-02    9.08       1.0  T
   4    -45.6109918 -0.161617E-05  0.896E-03    9.08       2.3  T
   5    -45.6109919 -0.915160E-07  0.275E-03    9.08       7.6  T
   6    -45.6109919 -0.832866E-08  0.143E-03    9.08      14.6  T
speedup  0.89
cpu  time for SCC    0.00 s
wall time for SCC    0.00 s
speedup  0.99
cpu  time for grad    0.01 s
wall time for grad    0.01 s
 E :    -45.35817916  G :  0.017327    pred/act E change: -0.156D-02 -0.633D-03
Maxdispl :   0.0436   ||displ|| :   0.1286   Lambda : -0.590D-03
Largest |displ|/coords:  0.0436 (  14)  0.0421 (  27)  0.0406 (   5)
................................................................................
.............................. CYCLE   17 ......................................
................................................................................
   1    -45.6104571 -0.456105E+02  0.962E-02    9.05       0.0  T
   2    -45.6104666 -0.951360E-05  0.711E-02    9.05       1.0  T
   3    -45.6104720 -0.540173E-05  0.180E-02    9.05       1.2  T
   4    -45.6104731 -0.115948E-05  0.518E-03    9.05       4.0  T
   5    -45.6104732 -0.399926E-07  0.195E-03    9.05      10.7  T
   6    -45.6104732 -0.366954E-08  0.917E-04    9.05      22.7  T
speedup  1.11
cpu  time for SCC    0.00 s
wall time for SCC    0.00 s
speedup  1.07
cpu  time for grad    0.01 s
wall time for grad    0.01 s
 E :    -45.35846660  G :  0.008748    pred/act E change: -0.704D-03 -0.287D-03
Maxdispl :   0.0390   ||displ|| :   0.0799   Lambda : -0.221D-03
Largest |displ|/coords:  0.0390 (  14)  0.0313 (   9)  0.0306 (   2)
................................................................................
.............................. CYCLE   18 ......................................
................................................................................
   1    -45.6080411 -0.456080E+02  0.504E-02    9.06       0.0  T
   2    -45.6080430 -0.187601E-05  0.372E-02    9.06       1.0  T
   3    -45.6080443 -0.125067E-05  0.785E-03    9.07       2.7  T
   4    -45.6080445 -0.219331E-06  0.249E-03    9.06       8.4  T
   5    -45.6080445 -0.836883E-08  0.860E-04    9.06      24.2  T
speedup  1.08
cpu  time for SCC    0.00 s
wall time for SCC    0.00 s
speedup  1.06
cpu  time for grad    0.01 s
wall time for grad    0.01 s
 E :    -45.35852179  G :  0.006289    pred/act E change: -0.300D-03 -0.552D-04
Maxdispl :   0.0245   ||displ|| :   0.0495   Lambda : -0.104D-03
Largest |displ|/coords:  0.0245 (   4)  0.0181 (  14)  0.0152 (  13)
................................................................................
.............................. CYCLE   19 ......................................
................................................................................
   1    -45.6100130 -0.456100E+02  0.398E-02    9.07       0.0  T
   2    -45.6100138 -0.800299E-06  0.296E-02    9.07       1.0  T
   3    -45.6100144 -0.647888E-06  0.490E-03    9.06       4.3  T
   4    -45.6100145 -0.818266E-07  0.144E-03    9.06      14.5  T
   5    -45.6100145 -0.235291E-08  0.544E-04    9.06      38.4  T
speedup  0.81
cpu  time for SCC    0.00 s
wall time for SCC    0.00 s
speedup  0.96
cpu  time for grad    0.01 s
wall time for grad    0.01 s
 E :    -45.35857630  G :  0.002654    pred/act E change: -0.111D-03 -0.545D-04
Maxdispl :   0.0316   ||displ|| :   0.0556   Lambda : -0.499D-04
Largest |displ|/coords:  0.0316 (   1)  0.0237 (   2)  0.0169 (  12)
................................................................................
.............................. CYCLE   20 ......................................
................................................................................
   1    -45.6094126 -0.456094E+02  0.313E-02    9.06       0.0  T
   2    -45.6094131 -0.548496E-06  0.232E-02    9.06       1.0  T
   3    -45.6094134 -0.258814E-06  0.443E-03    9.06       4.7  T
   4    -45.6094135 -0.828802E-07  0.135E-03    9.06      15.5  T
   5    -45.6094135 -0.154381E-08  0.381E-04    9.06      54.7  T
   6    -45.6094135 -0.182588E-09  0.193E-04    9.06     108.2  T
speedup  1.06
cpu  time for SCC    0.01 s
wall time for SCC    0.00 s
speedup  1.02
cpu  time for grad    0.01 s
wall time for grad    0.01 s
 E :    -45.35859423  G :  0.003545    pred/act E change: -0.522D-04 -0.179D-04
Maxdispl :   0.0146   ||displ|| :   0.0299   Lambda : -0.278D-04
Largest |displ|/coords:  0.0146 (   2)  0.0096 (   4)  0.0091 (   5)
................................................................................
.............................. CYCLE   21 ......................................
................................................................................
   1    -45.6094394 -0.456094E+02  0.178E-02    9.06       0.0  T
   2    -45.6094395 -0.120649E-06  0.131E-02    9.06       1.6  T
   3    -45.6094396 -0.723466E-07  0.257E-03    9.06       8.1  T
   4    -45.6094396 -0.139252E-07  0.887E-04    9.06      23.5  T
   5    -45.6094396 -0.730005E-09  0.211E-04    9.06      99.0  T
speedup  0.79
cpu  time for SCC    0.00 s
wall time for SCC    0.00 s
speedup  0.93
cpu  time for grad    0.01 s
wall time for grad    0.01 s
 E :    -45.35861464  G :  0.002873    pred/act E change: -0.250D-04 -0.204D-04
Maxdispl :   0.0246   ||displ|| :   0.0595   Lambda : -0.378D-04
Largest |displ|/coords:  0.0246 (   2)  0.0220 (   4)  0.0218 (   1)
................................................................................
.............................. CYCLE   22 ......................................
................................................................................
   1    -45.6094746 -0.456095E+02  0.343E-02    9.07       0.0  T
   2    -45.6094751 -0.491528E-06  0.255E-02    9.07       1.0  T
   3    -45.6094754 -0.285192E-06  0.520E-03    9.07       4.0  T
   4    -45.6094755 -0.690526E-07  0.175E-03    9.07      11.9  T
   5    -45.6094755 -0.288055E-08  0.438E-04    9.07      47.6  T
   6    -45.6094755 -0.271207E-09  0.253E-04    9.07      82.4  T
speedup  1.14
cpu  time for SCC    0.00 s
wall time for SCC    0.00 s
speedup  1.04
cpu  time for grad    0.01 s
wall time for grad    0.01 s
 E :    -45.35863682  G :  0.002104    pred/act E change: -0.139D-04 -0.222D-04
Maxdispl :   0.0384   ||displ|| :   0.0665   Lambda : -0.265D-04
Largest |displ|/coords:  0.0384 (   2)  0.0285 (   1)  0.0250 (  16)
................................................................................
.............................. CYCLE   23 ......................................
................................................................................
   1    -45.6091488 -0.456091E+02  0.394E-02    9.07       0.0  T
   2    -45.6091493 -0.521078E-06  0.292E-02    9.07       1.0  T
   3    -45.6091496 -0.264287E-06  0.557E-03    9.07       3.7  T
   4    -45.6091496 -0.787653E-07  0.162E-03    9.07      12.9  T
   5    -45.6091496 -0.232019E-08  0.450E-04    9.07      46.3  T
   6    -45.6091496 -0.299600E-09  0.250E-04    9.07      83.6  T
speedup  0.89
cpu  time for SCC    0.00 s
wall time for SCC    0.00 s
speedup  0.96
cpu  time for grad    0.01 s
wall time for grad    0.01 s
 E :    -45.35865346  G :  0.003303    pred/act E change: -0.190D-04 -0.166D-04
Maxdispl :   0.0412   ||displ|| :   0.0718   Lambda : -0.282D-04
Largest |displ|/coords:  0.0412 (   2)  0.0292 (   1)  0.0275 (  16)
................................................................................
.............................. CYCLE   24 ......................................
................................................................................
   1    -45.6092127 -0.456092E+02  0.419E-02    9.07       0.0  T
   2    -45.6092131 -0.467705E-06  0.309E-02    9.07       1.0  T
   3    -45.6092134 -0.263173E-06  0.567E-03    9.08       3.7  T
   4    -45.6092135 -0.675806E-07  0.173E-03    9.08      12.1  T
   5    -45.6092135 -0.250029E-08  0.431E-04    9.08      48.4  T
   6    -45.6092135 -0.275477E-09  0.262E-04    9.08      79.5  T
speedup  0.91
cpu  time for SCC    0.00 s
wall time for SCC    0.00 s
speedup  0.96
cpu  time for grad    0.01 s
wall time for grad    0.01 s
 E :    -45.35867407  G :  0.003045    pred/act E change: -0.133D-04 -0.206D-04
Maxdispl :   0.0624   ||displ|| :   0.1047   Lambda : -0.414D-04
Largest |displ|/coords:  0.0624 (   2)  0.0440 (  16)  0.0333 (   1)
................................................................................
.............................. CYCLE   25 ......................................
................................................................................
   1    -45.6092074 -0.456092E+02  0.600E-02    9.08       0.0  T
   2    -45.6092083 -0.888437E-06  0.443E-02    9.08       1.0  T
   3    -45.6092087 -0.459098E-06  0.771E-03    9.09       2.7  T
   4    -45.6092089 -0.129577E-06  0.248E-03    9.09       8.4  T
   5    -45.6092089 -0.490780E-08  0.584E-04    9.09      35.7  T
   6    -45.6092089 -0.523372E-09  0.357E-04    9.09      58.4  T
speedup  1.11
cpu  time for SCC    0.00 s
wall time for SCC    0.00 s
speedup  1.03
cpu  time for grad    0.01 s
wall time for grad    0.01 s
 E :    -45.35869956  G :  0.003706    pred/act E change: -0.142D-04 -0.255D-04
Maxdispl :   0.0481   ||displ|| :   0.0785   Lambda : -0.312D-04
Largest |displ|/coords:  0.0481 (   2)  0.0323 (  16)  0.0295 (   4)

generating ANC from model Hessian ...
 Shifting diagonal of input Hessian by   4.803483479998320E-003
 Lowest  eigenvalues of input Hessian
   -0.000000   -0.000000    0.000000    0.000000    0.000000    0.000000
    0.005000    0.005149    0.005674    0.005847    0.007399    0.008005
    0.008400    0.009625    0.010350    0.011470    0.011856    0.014256
 Highest eigenvalues
    1.385266    1.407618    1.424194    2.625953    3.374898    3.709698
 
cpu  time for ANC gen    0.02 s
wall time for ANC gen    0.02 s
................................................................................
.............................. CYCLE   26 ......................................
................................................................................
   1    -45.6095248 -0.456095E+02  0.466E-02    9.09       0.0  T
   2    -45.6095252 -0.377837E-06  0.344E-02    9.09       1.0  T
   3    -45.6095254 -0.282362E-06  0.533E-03    9.09       3.9  T
   4    -45.6095255 -0.397178E-07  0.173E-03    9.09      12.1  T
   5    -45.6095255 -0.283600E-08  0.424E-04    9.09      49.2  T
   6    -45.6095255 -0.157520E-09  0.271E-04    9.09      77.0  T
speedup  0.89
cpu  time for SCC    0.00 s
wall time for SCC    0.00 s
speedup  1.03
cpu  time for grad    0.01 s
wall time for grad    0.01 s
 E :    -45.35871964  G :  0.003620    pred/act E change:  0.000D+00 -0.201D-04
Maxdispl :   0.0366   ||displ|| :   0.0764   Lambda : -0.870D-04
Largest |displ|/coords:  0.0366 (   1)  0.0313 (   8)  0.0250 (   2)
................................................................................
.............................. CYCLE   27 ......................................
................................................................................
   1    -45.6094230 -0.456094E+02  0.793E-02    9.09       0.0  T
   2    -45.6094237 -0.687735E-06  0.602E-02    9.09       1.0  T
   3    -45.6094246 -0.884164E-06  0.389E-03    9.09       5.4  T
   4    -45.6094246 -0.321924E-07  0.159E-03    9.09      13.1  T
   5    -45.6094246 -0.197779E-08  0.616E-04    9.09      33.8  T
   6    -45.6094246 -0.485024E-09  0.232E-04    9.09      89.8  T
speedup  0.91
cpu  time for SCC    0.00 s
wall time for SCC    0.00 s
speedup  0.96
cpu  time for grad    0.01 s
wall time for grad    0.01 s
 E :    -45.35878070  G :  0.002036    pred/act E change:  0.000D+00 -0.611D-04
Maxdispl :   0.0862   ||displ|| :   0.1362   Lambda : -0.808D-04
Largest |displ|/coords:  0.0862 (   1)  0.0639 (   4)  0.0387 (  11)
................................................................................
.............................. CYCLE   28 ......................................
................................................................................
   1    -45.6088604 -0.456089E+02  0.123E-01    9.09       0.0  T
   2    -45.6088614 -0.993795E-06  0.928E-02    9.09       1.0  T
   3    -45.6088627 -0.131287E-05  0.557E-03    9.09       3.7  T
   4    -45.6088627 -0.427530E-07  0.228E-03    9.09       9.1  T
   5    -45.6088627 -0.416034E-08  0.888E-04    9.09      23.5  T
   6    -45.6088627 -0.102548E-08  0.407E-04    9.09      51.2  T
speedup  0.89
cpu  time for SCC    0.00 s
wall time for SCC    0.00 s
speedup  0.96
cpu  time for grad    0.01 s
wall time for grad    0.01 s
 E :    -45.35881980  G :  0.003699    pred/act E change: -0.438D-04 -0.391D-04
Maxdispl :   0.0611   ||displ|| :   0.0735   Lambda : -0.372D-04
Largest |displ|/coords:  0.0611 (   1)  0.0214 (   3)  0.0149 (  10)
................................................................................
.............................. CYCLE   29 ......................................
................................................................................
   1    -45.6089787 -0.456090E+02  0.491E-02    9.10       0.0  T
   2    -45.6089789 -0.231488E-06  0.371E-02    9.10       1.0  T
   3    -45.6089792 -0.260799E-06  0.267E-03    9.10       7.8  T
   4    -45.6089792 -0.175020E-07  0.106E-03    9.10      19.6  T
   5    -45.6089792 -0.747001E-09  0.370E-04    9.10      56.3  T
   6    -45.6089792 -0.178701E-09  0.199E-04    9.10     105.0  T
speedup  1.11
cpu  time for SCC    0.00 s
wall time for SCC    0.00 s
speedup  1.03
cpu  time for grad    0.01 s
wall time for grad    0.01 s
 E :    -45.35884419  G :  0.002826    pred/act E change: -0.411D-04 -0.244D-04
Maxdispl :   0.0847   ||displ|| :   0.1030   Lambda : -0.391D-04
Largest |displ|/coords:  0.0847 (   1)  0.0324 (   4)  0.0290 (   3)
................................................................................
.............................. CYCLE   30 ......................................
................................................................................
   1    -45.6093412 -0.456093E+02  0.595E-02    9.11       0.0  T
   2    -45.6093415 -0.325422E-06  0.447E-02    9.11       1.0  T
   3    -45.6093418 -0.281723E-06  0.378E-03    9.11       5.5  T
   4    -45.6093419 -0.389750E-07  0.146E-03    9.11      14.3  T
   5    -45.6093419 -0.132116E-08  0.424E-04    9.11      49.2  T
   6    -45.6093419 -0.184002E-09  0.243E-04    9.11      85.8  T
speedup  0.89
cpu  time for SCC    0.00 s
wall time for SCC    0.00 s
speedup  0.95
cpu  time for grad    0.01 s
wall time for grad    0.01 s
 E :    -45.35887093  G :  0.001094    pred/act E change: -0.187D-04 -0.267D-04
Maxdispl :   0.1320   ||displ|| :   0.1729   Lambda : -0.326D-04
Largest |displ|/coords:  0.1320 (   1)  0.0640 (   4)  0.0454 (   3)
................................................................................
.............................. CYCLE   31 ......................................
................................................................................
   1    -45.6088120 -0.456088E+02  0.120E-01    9.12       0.0  T
   2    -45.6088132 -0.126113E-05  0.901E-02    9.12       1.0  T
   3    -45.6088145 -0.127949E-05  0.696E-03    9.12       3.0  T
   4    -45.6088146 -0.128589E-06  0.248E-03    9.12       8.4  T
   5    -45.6088146 -0.446729E-08  0.939E-04    9.12      22.2  T
   6    -45.6088146 -0.119901E-08  0.509E-04    9.12      41.0  T
speedup  1.11
cpu  time for SCC    0.00 s
wall time for SCC    0.00 s
speedup  1.04
cpu  time for grad    0.01 s
wall time for grad    0.01 s
 E :    -45.35888492  G :  0.003880    pred/act E change: -0.198D-04 -0.140D-04
Maxdispl :   0.0279   ||displ|| :   0.0562   Lambda : -0.284D-04
Largest |displ|/coords:  0.0279 (   1)  0.0250 (   4)  0.0242 (   3)
................................................................................
.............................. CYCLE   32 ......................................
................................................................................
   1    -45.6094345 -0.456094E+02  0.294E-02    9.13       0.0  T
   2    -45.6094347 -0.233107E-06  0.220E-02    9.13       1.0  T
   3    -45.6094349 -0.185509E-06  0.311E-03    9.13       6.7  T
   4    -45.6094349 -0.261128E-07  0.810E-04    9.13      25.8  T
   5    -45.6094349 -0.104325E-08  0.311E-04    9.13      66.9  T
speedup  1.08
cpu  time for SCC    0.00 s
wall time for SCC    0.00 s
speedup  1.02
cpu  time for grad    0.01 s
wall time for grad    0.01 s
 E :    -45.35889818  G :  0.002256    pred/act E change: -0.168D-04 -0.133D-04
Maxdispl :   0.0443   ||displ|| :   0.0724   Lambda : -0.152D-04
Largest |displ|/coords:  0.0443 (   1)  0.0389 (   2)  0.0269 (   3)
................................................................................
.............................. CYCLE   33 ......................................
................................................................................
   1    -45.6093163 -0.456093E+02  0.491E-02    9.13       0.0  T
   2    -45.6093165 -0.272243E-06  0.372E-02    9.14       1.0  T
   3    -45.6093168 -0.296591E-06  0.308E-03    9.14       6.8  T
   4    -45.6093169 -0.228493E-07  0.120E-03    9.14      17.4  T
   5    -45.6093169 -0.101539E-08  0.376E-04    9.14      55.5  T
   6    -45.6093169 -0.172982E-09  0.198E-04    9.14     105.2  T
speedup  1.11
cpu  time for SCC    0.00 s
wall time for SCC    0.00 s
speedup  1.04
cpu  time for grad    0.01 s
wall time for grad    0.01 s
 E :    -45.35890760  G :  0.001285    pred/act E change: -0.143D-04 -0.942D-05
Maxdispl :   0.0634   ||displ|| :   0.1140   Lambda : -0.168D-04
Largest |displ|/coords:  0.0634 (   2)  0.0626 (   1)  0.0366 (   4)
................................................................................
.............................. CYCLE   34 ......................................
................................................................................
   1    -45.6090757 -0.456091E+02  0.699E-02    9.14       0.0  T
   2    -45.6090762 -0.535074E-06  0.527E-02    9.14       1.0  T
   3    -45.6090767 -0.516474E-06  0.457E-03    9.14       4.6  T
   4    -45.6090768 -0.574426E-07  0.144E-03    9.14      14.5  T
   5    -45.6090768 -0.273949E-08  0.593E-04    9.14      35.2  T
   6    -45.6090768 -0.615806E-09  0.287E-04    9.14      72.7  T
speedup  1.11
cpu  time for SCC    0.00 s
wall time for SCC    0.00 s
speedup  1.02
cpu  time for grad    0.01 s
wall time for grad    0.01 s
 E :    -45.35891596  G :  0.001641    pred/act E change: -0.762D-05 -0.836D-05
Maxdispl :   0.0172   ||displ|| :   0.0259   Lambda : -0.709D-05
Largest |displ|/coords:  0.0172 (   2)  0.0095 (   6)  0.0071 (   1)
................................................................................
.............................. CYCLE   35 ......................................
................................................................................
   1    -45.6092526 -0.456093E+02  0.114E-02    9.14       0.0  T
   2    -45.6092527 -0.926910E-07  0.841E-03    9.14       2.5  T
   3    -45.6092527 -0.410066E-07  0.181E-03    9.14      11.5  T
   4    -45.6092527 -0.132301E-07  0.543E-04    9.14      38.4  T
   5    -45.6092527 -0.315211E-09  0.126E-04    9.14     165.5  T
speedup  1.08
cpu  time for SCC    0.00 s
wall time for SCC    0.00 s
speedup  1.02
cpu  time for grad    0.01 s
wall time for grad    0.01 s
 E :    -45.35892121  G :  0.001184    pred/act E change: -0.851D-05 -0.524D-05
Maxdispl :   0.0466   ||displ|| :   0.0719   Lambda : -0.996D-05
Largest |displ|/coords:  0.0466 (   2)  0.0243 (   6)  0.0213 (   1)
................................................................................
.............................. CYCLE   36 ......................................
................................................................................
   1    -45.6092212 -0.456092E+02  0.400E-02    9.14       0.0  T
   2    -45.6092214 -0.243589E-06  0.299E-02    9.14       1.0  T
   3    -45.6092215 -0.140582E-06  0.318E-03    9.14       6.6  T
   4    -45.6092216 -0.424498E-07  0.105E-03    9.14      19.8  T
   5    -45.6092216 -0.915442E-09  0.319E-04    9.14      65.4  T
   6    -45.6092216 -0.119655E-09  0.168E-04    9.14     124.4  T
speedup  0.89
cpu  time for SCC    0.00 s
wall time for SCC    0.00 s
speedup  0.96
cpu  time for grad    0.01 s
wall time for grad    0.01 s
 E :    -45.35892750  G :  0.001193    pred/act E change: -0.355D-05 -0.630D-05
Maxdispl :   0.0300   ||displ|| :   0.0490   Lambda : -0.819D-05
Largest |displ|/coords:  0.0300 (   2)  0.0210 (   6)  0.0157 (  10)
................................................................................
.............................. CYCLE   37 ......................................
................................................................................
   1    -45.6094978 -0.456095E+02  0.242E-02    9.14       0.0  T
   2    -45.6094979 -0.160177E-06  0.180E-02    9.14       1.2  T
   3    -45.6094980 -0.102730E-06  0.304E-03    9.14       6.9  T
   4    -45.6094981 -0.218603E-07  0.103E-03    9.14      20.2  T
   5    -45.6094981 -0.831918E-09  0.194E-04    9.14     107.4  T
   6    -45.6094981 -0.488356E-10  0.121E-04    9.14     172.7  T
speedup  1.11
cpu  time for SCC    0.00 s
wall time for SCC    0.00 s
speedup  1.04
cpu  time for grad    0.01 s
wall time for grad    0.01 s
 E :    -45.35893279  G :  0.001508    pred/act E change: -0.500D-05 -0.529D-05
Maxdispl :   0.0333   ||displ|| :   0.0649   Lambda : -0.790D-05
Largest |displ|/coords:  0.0333 (   2)  0.0277 (   1)  0.0217 (   6)
................................................................................
.............................. CYCLE   38 ......................................
................................................................................
   1    -45.6094034 -0.456094E+02  0.426E-02    9.14       0.0  T
   2    -45.6094037 -0.226082E-06  0.319E-02    9.14       1.0  T
   3    -45.6094039 -0.197406E-06  0.361E-03    9.14       5.8  T
   4    -45.6094039 -0.254458E-07  0.109E-03    9.14      19.2  T
   5    -45.6094039 -0.125596E-08  0.325E-04    9.14      64.3  T
   6    -45.6094039 -0.137923E-09  0.185E-04    9.14     112.8  T
speedup  1.11
cpu  time for SCC    0.00 s
wall time for SCC    0.00 s
speedup  1.04
cpu  time for grad    0.01 s
wall time for grad    0.01 s
 E :    -45.35893858  G :  0.001175    pred/act E change: -0.410D-05 -0.579D-05
Maxdispl :   0.0245   ||displ|| :   0.0546   Lambda : -0.908D-05
Largest |displ|/coords:  0.0245 (   1)  0.0202 (  31)  0.0180 (   7)
................................................................................
.............................. CYCLE   39 ......................................
................................................................................
   1    -45.6094142 -0.456094E+02  0.382E-02    9.13       0.0  T
   2    -45.6094144 -0.234561E-06  0.285E-02    9.13       1.0  T
   3    -45.6094147 -0.219337E-06  0.397E-03    9.13       5.3  T
   4    -45.6094147 -0.223754E-07  0.112E-03    9.13      18.5  T
   5    -45.6094147 -0.140536E-08  0.307E-04    9.13      68.0  T
   6    -45.6094147 -0.129887E-09  0.189E-04    9.13     110.4  T
speedup  1.14
cpu  time for SCC    0.00 s
wall time for SCC    0.00 s
speedup  1.04
cpu  time for grad    0.01 s
wall time for grad    0.01 s
 E :    -45.35894502  G :  0.001334    pred/act E change: -0.397D-05 -0.644D-05
Maxdispl :   0.0227   ||displ|| :   0.0475   Lambda : -0.773D-05
Largest |displ|/coords:  0.0227 (   1)  0.0185 (  31)  0.0148 (   7)
................................................................................
.............................. CYCLE   40 ......................................
................................................................................
   1    -45.6093941 -0.456094E+02  0.331E-02    9.13       0.0  T
   2    -45.6093943 -0.188849E-06  0.247E-02    9.13       1.0  T
   3    -45.6093945 -0.186568E-06  0.358E-03    9.12       5.8  T
   4    -45.6093945 -0.161820E-07  0.103E-03    9.12      20.2  T
   5    -45.6093945 -0.118320E-08  0.272E-04    9.12      76.6  T
   6    -45.6093945 -0.879368E-10  0.173E-04    9.12     120.8  T
speedup  1.11
cpu  time for SCC    0.00 s
wall time for SCC    0.00 s
speedup  1.03
cpu  time for grad    0.01 s
wall time for grad    0.01 s
 E :    -45.35895085  G :  0.001288    pred/act E change: -0.456D-05 -0.583D-05
Maxdispl :   0.0243   ||displ|| :   0.0575   Lambda : -0.879D-05
Largest |displ|/coords:  0.0243 (   2)  0.0240 (   1)  0.0221 (  31)
................................................................................
.............................. CYCLE   41 ......................................
................................................................................
   1    -45.6093815 -0.456094E+02  0.387E-02    9.12       0.0  T
   2    -45.6093818 -0.275999E-06  0.289E-02    9.12       1.0  T
   3    -45.6093821 -0.266795E-06  0.427E-03    9.12       4.9  T
   4    -45.6093821 -0.246037E-07  0.135E-03    9.12      15.5  T
   5    -45.6093821 -0.178908E-08  0.321E-04    9.12      65.0  T
   6    -45.6093821 -0.101508E-09  0.206E-04    9.12     101.2  T
speedup  0.89
cpu  time for SCC    0.00 s
wall time for SCC    0.00 s
speedup  0.95
cpu  time for grad    0.01 s
wall time for grad    0.01 s
 E :    -45.35895709  G :  0.001106    pred/act E change: -0.387D-05 -0.624D-05
Maxdispl :   0.0257   ||displ|| :   0.0503   Lambda : -0.655D-05
Largest |displ|/coords:  0.0257 (   2)  0.0199 (  31)  0.0198 (   1)
................................................................................
.............................. CYCLE   42 ......................................
................................................................................
   1    -45.6093649 -0.456094E+02  0.351E-02    9.12       0.0  T
   2    -45.6093652 -0.255874E-06  0.263E-02    9.12       1.0  T
   3    -45.6093654 -0.201301E-06  0.397E-03    9.12       5.3  T
   4    -45.6093654 -0.311068E-07  0.135E-03    9.12      15.5  T
   5    -45.6093654 -0.147186E-08  0.280E-04    9.12      74.4  T
   6    -45.6093654 -0.865157E-10  0.176E-04    9.12     118.3  T
speedup  1.09
cpu  time for SCC    0.00 s
wall time for SCC    0.00 s
speedup  1.03
cpu  time for grad    0.01 s
wall time for grad    0.01 s
 E :    -45.35896198  G :  0.001220    pred/act E change: -0.441D-05 -0.489D-05
Maxdispl :   0.0371   ||displ|| :   0.0577   Lambda : -0.734D-05
Largest |displ|/coords:  0.0371 (   2)  0.0219 (  31)  0.0156 (   4)
................................................................................
.............................. CYCLE   43 ......................................
................................................................................
   1    -45.6094566 -0.456095E+02  0.405E-02    9.12       0.0  T
   2    -45.6094570 -0.403898E-06  0.304E-02    9.12       1.0  T
   3    -45.6094572 -0.261515E-06  0.481E-03    9.12       4.3  T
   4    -45.6094573 -0.588439E-07  0.164E-03    9.12      12.7  T
   5    -45.6094573 -0.220253E-08  0.329E-04    9.12      63.3  T
   6    -45.6094573 -0.132161E-09  0.201E-04    9.12     103.8  T
speedup  0.91
cpu  time for SCC    0.00 s
wall time for SCC    0.00 s
speedup  0.96
cpu  time for grad    0.01 s
wall time for grad    0.01 s
 E :    -45.35896742  G :  0.001649    pred/act E change: -0.328D-05 -0.543D-05
Maxdispl :   0.0336   ||displ|| :   0.0737   Lambda : -0.868D-05
Largest |displ|/coords:  0.0336 (  31)  0.0315 (   2)  0.0308 (   1)
................................................................................
.............................. CYCLE   44 ......................................
................................................................................
   1    -45.6093054 -0.456093E+02  0.604E-02    9.12       0.0  T
   2    -45.6093063 -0.949297E-06  0.453E-02    9.12       1.0  T
   3    -45.6093069 -0.552070E-06  0.735E-03    9.13       2.8  T
   4    -45.6093070 -0.149065E-06  0.242E-03    9.13       8.6  T
   5    -45.6093070 -0.506866E-08  0.513E-04    9.13      40.7  T
   6    -45.6093070 -0.332662E-09  0.307E-04    9.13      67.9  T
speedup  1.11
cpu  time for SCC    0.00 s
wall time for SCC    0.00 s
speedup  1.03
cpu  time for grad    0.01 s
wall time for grad    0.01 s
 E :    -45.35897331  G :  0.002192    pred/act E change: -0.368D-05 -0.589D-05
Maxdispl :   0.0872   ||displ|| :   0.1201   Lambda : -0.151D-04
Largest |displ|/coords:  0.0872 (   2)  0.0454 (   4)  0.0275 (   3)
................................................................................
.............................. CYCLE   45 ......................................
................................................................................
   1    -45.6097422 -0.456097E+02  0.718E-02    9.13       0.0  T
   2    -45.6097435 -0.127166E-05  0.539E-02    9.13       1.0  T
   3    -45.6097442 -0.672891E-06  0.880E-03    9.13       2.4  T
   4    -45.6097444 -0.211039E-06  0.260E-03    9.13       8.0  T
   5    -45.6097444 -0.641916E-08  0.610E-04    9.13      34.2  T
   6    -45.6097444 -0.350170E-09  0.353E-04    9.13      59.1  T
speedup  0.89
cpu  time for SCC    0.00 s
wall time for SCC    0.00 s
speedup  0.96
cpu  time for grad    0.01 s
wall time for grad    0.01 s
 E :    -45.35897968  G :  0.002769    pred/act E change: -0.436D-05 -0.638D-05
Maxdispl :   0.0354   ||displ|| :   0.0700   Lambda : -0.120D-04
Largest |displ|/coords:  0.0354 (  31)  0.0279 (   1)  0.0237 (   4)
................................................................................
.............................. CYCLE   46 ......................................
................................................................................
   1    -45.6093053 -0.456093E+02  0.614E-02    9.12       0.0  T
   2    -45.6093063 -0.956510E-06  0.460E-02    9.13       1.0  T
   3    -45.6093069 -0.624275E-06  0.777E-03    9.13       2.7  T
   4    -45.6093071 -0.140012E-06  0.242E-03    9.13       8.6  T
   5    -45.6093071 -0.532715E-08  0.573E-04    9.13      36.4  T
   6    -45.6093071 -0.408988E-09  0.354E-04    9.13      58.9  T
speedup  0.89
cpu  time for SCC    0.00 s
wall time for SCC    0.00 s
speedup  1.04
cpu  time for grad    0.01 s
wall time for grad    0.01 s
 E :    -45.35898704  G :  0.002834    pred/act E change: -0.765D-05 -0.736D-05
Maxdispl :   0.0224   ||displ|| :   0.0422   Lambda : -0.168D-04
Largest |displ|/coords:  0.0224 (   2)  0.0209 (   3)  0.0142 (  16)
................................................................................
.............................. CYCLE   47 ......................................
................................................................................
   1    -45.6092769 -0.456093E+02  0.205E-02    9.12       0.0  T
   2    -45.6092771 -0.212753E-06  0.149E-02    9.12       1.4  T
   3    -45.6092772 -0.120615E-06  0.373E-03    9.12       5.6  T
   4    -45.6092773 -0.216206E-07  0.743E-04    9.12      28.0  T
   5    -45.6092773 -0.127063E-08  0.287E-04    9.12      72.6  T
speedup  1.05
cpu  time for SCC    0.00 s
wall time for SCC    0.00 s
speedup  1.01
cpu  time for grad    0.01 s
wall time for grad    0.01 s
 E :    -45.35899707  G :  0.001932    pred/act E change: -0.601D-05 -0.100D-04
Maxdispl :   0.0580   ||displ|| :   0.0975   Lambda : -0.119D-04
Largest |displ|/coords:  0.0580 (   3)  0.0458 (   4)  0.0393 (   2)
................................................................................
.............................. CYCLE   48 ......................................
................................................................................
   1    -45.6088663 -0.456089E+02  0.694E-02    9.11       0.0  T
   2    -45.6088670 -0.762124E-06  0.522E-02    9.11       1.0  T
   3    -45.6088677 -0.625564E-06  0.729E-03    9.11       2.9  T
   4    -45.6088678 -0.101127E-06  0.195E-03    9.11      10.7  T
   5    -45.6088678 -0.372819E-08  0.575E-04    9.11      36.3  T
   6    -45.6088678 -0.311985E-09  0.337E-04    9.11      61.8  T
speedup  1.09
cpu  time for SCC    0.00 s
wall time for SCC    0.00 s
speedup  1.03
cpu  time for grad    0.01 s
wall time for grad    0.01 s
 E :    -45.35900477  G :  0.002306    pred/act E change: -0.841D-05 -0.770D-05
Maxdispl :   0.0525   ||displ|| :   0.0881   Lambda : -0.101D-04
Largest |displ|/coords:  0.0525 (   3)  0.0413 (   4)  0.0327 (   2)
................................................................................
.............................. CYCLE   49 ......................................
................................................................................
   1    -45.6087890 -0.456088E+02  0.520E-02    9.11       0.0  T
   2    -45.6087894 -0.372452E-06  0.390E-02    9.11       1.0  T
   3    -45.6087896 -0.294244E-06  0.521E-03    9.11       4.0  T
   4    -45.6087897 -0.536099E-07  0.137E-03    9.11      15.2  T
   5    -45.6087897 -0.163227E-08  0.406E-04    9.11      51.3  T
   6    -45.6087897 -0.171248E-09  0.234E-04    9.11      89.0  T
speedup  0.91
cpu  time for SCC    0.00 s
wall time for SCC    0.00 s
speedup  0.96
cpu  time for grad    0.01 s
wall time for grad    0.01 s
 E :    -45.35901220  G :  0.001654    pred/act E change: -0.601D-05 -0.743D-05
Maxdispl :   0.0803   ||displ|| :   0.1478   Lambda : -0.130D-04
Largest |displ|/coords:  0.0803 (   3)  0.0699 (   4)  0.0585 (   2)
................................................................................
.............................. CYCLE   50 ......................................
................................................................................
   1    -45.6080709 -0.456081E+02  0.981E-02    9.09       0.0  T
   2    -45.6080728 -0.189454E-05  0.736E-02    9.10       1.0  T
   3    -45.6080742 -0.139631E-05  0.115E-02    9.10       1.8  T
   4    -45.6080745 -0.267383E-06  0.350E-03    9.10       6.0  T
   5    -45.6080745 -0.110761E-07  0.834E-04    9.10      25.0  T
   6    -45.6080745 -0.643197E-09  0.544E-04    9.10      38.3  T
speedup  1.11
cpu  time for SCC    0.00 s
wall time for SCC    0.00 s
speedup  1.03
cpu  time for grad    0.01 s
wall time for grad    0.01 s
 E :    -45.35901856  G :  0.003377    pred/act E change: -0.507D-05 -0.636D-05
Maxdispl :   0.0290   ||displ|| :   0.0470   Lambda : -0.158D-04
Largest |displ|/coords:  0.0290 (   3)  0.0205 (   1)  0.0140 (   4)
................................................................................
.............................. CYCLE   51 ......................................
................................................................................
   1    -45.6088465 -0.456088E+02  0.251E-02    9.10       0.0  T
   2    -45.6088468 -0.291075E-06  0.186E-02    9.10       1.1  T
   3    -45.6088470 -0.155604E-06  0.321E-03    9.10       6.5  T
   4    -45.6088470 -0.402705E-07  0.121E-03    9.10      17.2  T
   5    -45.6088470 -0.167020E-08  0.320E-04    9.10      65.3  T
   6    -45.6088470 -0.116742E-09  0.185E-04    9.10     112.5  T
speedup  1.11
cpu  time for SCC    0.00 s
wall time for SCC    0.00 s
speedup  1.04
cpu  time for grad    0.01 s
wall time for grad    0.01 s
 E :    -45.35902299  G :  0.001700    pred/act E change: -0.665D-05 -0.444D-05
Maxdispl :   0.0183   ||displ|| :   0.0338   Lambda : -0.833D-05
Largest |displ|/coords:  0.0183 (  31)  0.0116 (   3)  0.0112 (   1)
................................................................................
.............................. CYCLE   52 ......................................
................................................................................
   1    -45.6087577 -0.456088E+02  0.291E-02    9.10       0.0  T
   2    -45.6087578 -0.193298E-06  0.217E-02    9.10       1.0  T
   3    -45.6087580 -0.129211E-06  0.366E-03    9.10       5.7  T
   4    -45.6087580 -0.273452E-07  0.130E-03    9.10      16.0  T
   5    -45.6087580 -0.119223E-08  0.241E-04    9.10      86.5  T
   6    -45.6087580 -0.546834E-10  0.162E-04    9.10     129.0  T
speedup  0.89
cpu  time for SCC    0.00 s
wall time for SCC    0.00 s
speedup  0.96
cpu  time for grad    0.01 s
wall time for grad    0.01 s
 E :    -45.35902929  G :  0.001642    pred/act E change: -0.792D-05 -0.630D-05
Maxdispl :   0.0462   ||displ|| :   0.0937   Lambda : -0.137D-04
Largest |displ|/coords:  0.0462 (   3)  0.0452 (  31)  0.0334 (   4)

generating ANC from model Hessian ...
 Shifting diagonal of input Hessian by   4.753916133531891E-003
 Lowest  eigenvalues of input Hessian
   -0.000000   -0.000000   -0.000000   -0.000000    0.000000    0.000000
    0.005000    0.005436    0.005819    0.006409    0.007462    0.007948
    0.008432    0.009858    0.011029    0.011718    0.012118    0.015732
 Highest eigenvalues
    1.379410    1.403444    1.408723    2.626190    3.381450    3.688747
 
cpu  time for ANC gen    0.02 s
wall time for ANC gen    0.02 s
................................................................................
.............................. CYCLE   53 ......................................
................................................................................
   1    -45.6082540 -0.456083E+02  0.808E-02    9.10       0.0  T
   2    -45.6082554 -0.144927E-05  0.605E-02    9.10       1.0  T
   3    -45.6082564 -0.929215E-06  0.100E-02    9.10       2.1  T
   4    -45.6082566 -0.211187E-06  0.348E-03    9.10       6.0  T
   5    -45.6082566 -0.874276E-08  0.617E-04    9.10      33.8  T
   6    -45.6082566 -0.302101E-09  0.415E-04    9.10      50.2  T
speedup  0.89
cpu  time for SCC    0.00 s
wall time for SCC    0.00 s
speedup  0.96
cpu  time for grad    0.01 s
wall time for grad    0.01 s
 E :    -45.35903592  G :  0.004049    pred/act E change:  0.000D+00 -0.663D-05
Maxdispl :   0.0066   ||displ|| :   0.0142   Lambda : -0.159D-04
Largest |displ|/coords:  0.0066 (   2)  0.0052 (   8)  0.0051 (  11)
................................................................................
.............................. CYCLE   54 ......................................
................................................................................
   1    -45.6088255 -0.456088E+02  0.155E-02    9.10       0.0  T
   2    -45.6088256 -0.118013E-06  0.116E-02    9.10       1.8  T
   3    -45.6088256 -0.537354E-07  0.267E-03    9.10       7.8  T
   4    -45.6088257 -0.170467E-07  0.711E-04    9.10      29.3  T
speedup  0.97
cpu  time for SCC    0.00 s
wall time for SCC    0.00 s
speedup  1.03
cpu  time for grad    0.01 s
wall time for grad    0.01 s
 E :    -45.35904652  G :  0.001190    pred/act E change:  0.000D+00 -0.106D-04
Maxdispl :   0.0081   ||displ|| :   0.0182   Lambda : -0.500D-05
Largest |displ|/coords:  0.0081 (   2)  0.0072 (   4)  0.0069 (   8)
................................................................................
.............................. CYCLE   55 ......................................
................................................................................
   1    -45.6091151 -0.456091E+02  0.168E-02    9.10       0.0  T
   2    -45.6091152 -0.441285E-07  0.126E-02    9.10       1.7  T
   3    -45.6091152 -0.247172E-07  0.134E-03    9.10      15.6  T
   4    -45.6091152 -0.804816E-08  0.485E-04    9.10      43.0  T
   5    -45.6091152 -0.381775E-09  0.148E-04    9.10     140.8  T
speedup  0.79
cpu  time for SCC    0.00 s
wall time for SCC    0.00 s
speedup  0.93
cpu  time for grad    0.01 s
wall time for grad    0.01 s
 E :    -45.35904961  G :  0.000800    pred/act E change: -0.795D-05 -0.309D-05
Maxdispl :   0.0158   ||displ|| :   0.0269   Lambda : -0.394D-05
Largest |displ|/coords:  0.0158 (   2)  0.0128 (   1)  0.0081 (   4)
................................................................................
.............................. CYCLE   56 ......................................
................................................................................
   1    -45.6092573 -0.456093E+02  0.231E-02    9.10       0.0  T
   2    -45.6092574 -0.774000E-07  0.174E-02    9.10       1.2  T
   3    -45.6092574 -0.529981E-07  0.159E-03    9.10      13.1  T
   4    -45.6092574 -0.127757E-07  0.626E-04    9.10      33.3  T
   5    -45.6092574 -0.494822E-09  0.171E-04    9.10     122.1  T
speedup  1.05
cpu  time for SCC    0.00 s
wall time for SCC    0.00 s
speedup  1.00
cpu  time for grad    0.01 s
wall time for grad    0.01 s
 E :    -45.35905193  G :  0.001411    pred/act E change: -0.250D-05 -0.232D-05
Maxdispl :   0.0213   ||displ|| :   0.0374   Lambda : -0.487D-05
Largest |displ|/coords:  0.0213 (   2)  0.0154 (   1)  0.0123 (   4)
................................................................................
.............................. CYCLE   57 ......................................
................................................................................
   1    -45.6092504 -0.456093E+02  0.309E-02    9.10       0.0  T
   2    -45.6092505 -0.119734E-06  0.232E-02    9.10       1.0  T
   3    -45.6092506 -0.746714E-07  0.203E-03    9.11      10.3  T
   4    -45.6092506 -0.218143E-07  0.779E-04    9.11      26.8  T
   5    -45.6092506 -0.577259E-09  0.232E-04    9.11      89.9  T
speedup  1.08
cpu  time for SCC    0.00 s
wall time for SCC    0.00 s
speedup  1.02
cpu  time for grad    0.01 s
wall time for grad    0.01 s
 E :    -45.35905574  G :  0.001353    pred/act E change: -0.197D-05 -0.381D-05
Maxdispl :   0.0485   ||displ|| :   0.0793   Lambda : -0.917D-05
Largest |displ|/coords:  0.0485 (   2)  0.0343 (   1)  0.0234 (   9)
................................................................................
.............................. CYCLE   58 ......................................
................................................................................
   1    -45.6089961 -0.456090E+02  0.600E-02    9.11       0.0  T
   2    -45.6089967 -0.525242E-06  0.452E-02    9.11       1.0  T
   3    -45.6089970 -0.303406E-06  0.450E-03    9.11       4.6  T
   4    -45.6089971 -0.991298E-07  0.158E-03    9.11      13.2  T
   5    -45.6089971 -0.212146E-08  0.473E-04    9.11      44.1  T
   6    -45.6089971 -0.226756E-09  0.243E-04    9.11      85.7  T
speedup  0.89
cpu  time for SCC    0.00 s
wall time for SCC    0.00 s
speedup  0.95
cpu  time for grad    0.01 s
wall time for grad    0.01 s
 E :    -45.35906101  G :  0.000885    pred/act E change: -0.244D-05 -0.527D-05
Maxdispl :   0.0191   ||displ|| :   0.0317   Lambda : -0.412D-05
Largest |displ|/coords:  0.0191 (   2)  0.0149 (   1)  0.0086 (  31)
................................................................................
.............................. CYCLE   59 ......................................
................................................................................
   1    -45.6089084 -0.456089E+02  0.230E-02    9.11       0.0  T
   2    -45.6089085 -0.108244E-06  0.173E-02    9.11       1.2  T
   3    -45.6089085 -0.539008E-07  0.228E-03    9.11       9.2  T
   4    -45.6089086 -0.206686E-07  0.771E-04    9.11      27.0  T
   5    -45.6089086 -0.476952E-09  0.183E-04    9.11     114.0  T
speedup  1.08
cpu  time for SCC    0.00 s
wall time for SCC    0.00 s
speedup  1.02
cpu  time for grad    0.01 s
wall time for grad    0.01 s
 E :    -45.35906383  G :  0.001155    pred/act E change: -0.461D-05 -0.282D-05
Maxdispl :   0.0275   ||displ|| :   0.0469   Lambda : -0.665D-05
Largest |displ|/coords:  0.0275 (   2)  0.0228 (   1)  0.0154 (  31)
................................................................................
.............................. CYCLE   60 ......................................
................................................................................
   1    -45.6088691 -0.456089E+02  0.308E-02    9.11       0.0  T
   2    -45.6088693 -0.222348E-06  0.231E-02    9.11       1.0  T
   3    -45.6088694 -0.101340E-06  0.349E-03    9.11       6.0  T
   4    -45.6088694 -0.402110E-07  0.119E-03    9.11      17.6  T
   5    -45.6088694 -0.117446E-08  0.254E-04    9.11      82.1  T
   6    -45.6088694 -0.868425E-10  0.150E-04    9.11     139.0  T
speedup  0.89
cpu  time for SCC    0.00 s
wall time for SCC    0.00 s
speedup  0.95
cpu  time for grad    0.01 s
wall time for grad    0.01 s
 E :    -45.35906883  G :  0.001721    pred/act E change: -0.206D-05 -0.499D-05
Maxdispl :   0.0364   ||displ|| :   0.0699   Lambda : -0.104D-04
Largest |displ|/coords:  0.0364 (   2)  0.0329 (   1)  0.0263 (  31)
................................................................................
.............................. CYCLE   61 ......................................
................................................................................
   1    -45.6088241 -0.456088E+02  0.491E-02    9.10       0.0  T
   2    -45.6088247 -0.519995E-06  0.367E-02    9.10       1.0  T
   3    -45.6088249 -0.260336E-06  0.576E-03    9.11       3.6  T
   4    -45.6088250 -0.880954E-07  0.200E-03    9.11      10.4  T
   5    -45.6088250 -0.282716E-08  0.374E-04    9.11      55.8  T
   6    -45.6088250 -0.170047E-09  0.231E-04    9.11      90.1  T
speedup  0.67
cpu  time for SCC    0.00 s
wall time for SCC    0.00 s
speedup  0.96
cpu  time for grad    0.01 s
wall time for grad    0.01 s
 E :    -45.35907631  G :  0.002110    pred/act E change: -0.333D-05 -0.749D-05
Maxdispl :   0.0384   ||displ|| :   0.0799   Lambda : -0.120D-04
Largest |displ|/coords:  0.0384 (   1)  0.0348 (   2)  0.0329 (  31)
................................................................................
.............................. CYCLE   62 ......................................
................................................................................
   1    -45.6087462 -0.456087E+02  0.576E-02    9.10       0.0  T
   2    -45.6087468 -0.678902E-06  0.429E-02    9.10       1.0  T
   3    -45.6087472 -0.321405E-06  0.707E-03    9.10       2.9  T
   4    -45.6087473 -0.115176E-06  0.232E-03    9.10       9.0  T
   5    -45.6087473 -0.338600E-08  0.407E-04    9.10      51.2  T
   6    -45.6087473 -0.188869E-09  0.257E-04    9.10      81.1  T
speedup  1.11
cpu  time for SCC    0.00 s
wall time for SCC    0.00 s
speedup  1.03
cpu  time for grad    0.01 s
wall time for grad    0.01 s
 E :    -45.35908577  G :  0.002206    pred/act E change: -0.525D-05 -0.946D-05
Maxdispl :   0.0633   ||displ|| :   0.1420   Lambda : -0.241D-04
Largest |displ|/coords:  0.0633 (  31)  0.0615 (   4)  0.0610 (   1)
................................................................................
.............................. CYCLE   63 ......................................
................................................................................
   1    -45.6083852 -0.456084E+02  0.110E-01    9.09       0.0  T
   2    -45.6083876 -0.242422E-05  0.823E-02    9.09       1.0  T
   3    -45.6083889 -0.122167E-05  0.136E-02    9.09       1.5  T
   4    -45.6083893 -0.409006E-06  0.428E-03    9.09       4.9  T
   5    -45.6083893 -0.116531E-07  0.814E-04    9.09      25.6  T
   6    -45.6083893 -0.631111E-09  0.513E-04    9.09      40.6  T
speedup  0.91
cpu  time for SCC    0.00 s
wall time for SCC    0.00 s
speedup  0.96
cpu  time for grad    0.01 s
wall time for grad    0.01 s
 E :    -45.35910379  G :  0.003305    pred/act E change: -0.605D-05 -0.180D-04
Maxdispl :   0.1251   ||displ|| :   0.1812   Lambda : -0.473D-04
Largest |displ|/coords:  0.1251 (   4)  0.0777 (  31)  0.0421 (   7)
................................................................................
.............................. CYCLE   64 ......................................
................................................................................
   1    -45.6084373 -0.456084E+02  0.139E-01    9.08       0.0  T
   2    -45.6084413 -0.397362E-05  0.103E-01    9.08       1.0  T
   3    -45.6084436 -0.228865E-05  0.192E-02    9.08       1.1  T
   4    -45.6084441 -0.581428E-06  0.543E-03    9.08       3.8  T
   5    -45.6084442 -0.212927E-07  0.114E-03    9.08      18.2  T
   6    -45.6084442 -0.127240E-08  0.684E-04    9.08      30.5  T
   7    -45.6084442 -0.630166E-09  0.277E-04    9.08      75.2  T
speedup  0.93
cpu  time for SCC    0.00 s
wall time for SCC    0.01 s
speedup  0.97
cpu  time for grad    0.01 s
wall time for grad    0.01 s
 E :    -45.35912991  G :  0.003082    pred/act E change: -0.123D-04 -0.261D-04
Maxdispl :   0.1513   ||displ|| :   0.3105   Lambda : -0.659D-04
Largest |displ|/coords:  0.1513 (  31)  0.1350 (   4)  0.1228 (   1)
................................................................................
.............................. CYCLE   65 ......................................
................................................................................
   1    -45.6047097 -0.456047E+02  0.276E-01    9.07       0.0  T
   2    -45.6047260 -0.162541E-04  0.207E-01    9.07       1.0  T
   3    -45.6047348 -0.879092E-05  0.315E-02    9.07       1.0  T
   4    -45.6047377 -0.292451E-05  0.102E-02    9.07       2.0  T
   5    -45.6047378 -0.913274E-07  0.262E-03    9.07       7.9  T
   6    -45.6047378 -0.603233E-08  0.159E-03    9.07      13.1  T
   7    -45.6047378 -0.339145E-08  0.355E-04    9.07      58.8  T
   8    -45.6047378 -0.482338E-09  0.128E-04    9.07     163.4  T
speedup  1.00
cpu  time for SCC    0.01 s
wall time for SCC    0.01 s
speedup  0.99
cpu  time for grad    0.01 s
wall time for grad    0.01 s
 E :    -45.35893493  G :  0.021961    pred/act E change: -0.244D-04  0.195D-03
Maxdispl :   0.1088   ||displ|| :   0.2354   Lambda : -0.630D-03
Largest |displ|/coords:  0.1088 (  31)  0.0989 (   1)  0.0959 (   4)
................................................................................
.............................. CYCLE   66 ......................................
................................................................................
   1    -45.6087545 -0.456088E+02  0.196E-01    9.09       0.0  T
   2    -45.6087657 -0.111993E-04  0.147E-01    9.09       1.0  T
   3    -45.6087721 -0.638508E-05  0.259E-02    9.09       1.0  T
   4    -45.6087739 -0.183003E-05  0.919E-03    9.09       2.3  T
   5    -45.6087740 -0.876706E-07  0.240E-03    9.09       8.7  T
   6    -45.6087740 -0.510132E-08  0.151E-03    9.09      13.8  T
speedup  0.91
cpu  time for SCC    0.00 s
wall time for SCC    0.00 s
speedup  1.00
cpu  time for grad    0.01 s
wall time for grad    0.01 s
 E :    -45.35917445  G :  0.002409    pred/act E change: -0.361D-04 -0.240D-03
Maxdispl :   0.0192   ||displ|| :   0.0395   Lambda : -0.223D-04
[...]
   4    -45.6328411 -0.457707E-08  0.552E-04    9.18      37.8  T
   5    -45.6328411 -0.309903E-09  0.972E-05    9.18     214.5  T
speedup  1.08
cpu  time for SCC    0.00 s
wall time for SCC    0.00 s
speedup  1.01
cpu  time for grad    0.01 s
wall time for grad    0.01 s
 E :    -45.37054478  G :  0.000470    pred/act E change: -0.592D-06 -0.687D-06
Maxdispl :   0.0038   ||displ|| :   0.0104   Lambda : -0.713D-06
Largest |displ|/coords:  0.0038 (  31)  0.0037 (  32)  0.0037 (   2)
................................................................................
.............................. CYCLE  129 ......................................
................................................................................
   1    -45.6328759 -0.456329E+02  0.100E-02    9.18       0.0  T
   2    -45.6328759 -0.197345E-07  0.741E-03    9.18       2.8  T
   3    -45.6328759 -0.109999E-07  0.130E-03    9.18      16.1  T
   4    -45.6328759 -0.271439E-08  0.429E-04    9.18      48.6  T
   5    -45.6328759 -0.151310E-09  0.628E-05    9.18     332.1  T
speedup  1.05
cpu  time for SCC    0.00 s
wall time for SCC    0.00 s
speedup  1.01
cpu  time for grad    0.01 s
wall time for grad    0.01 s
 E :    -45.37054530  G :  0.000408    pred/act E change: -0.488D-06 -0.526D-06
Maxdispl :   0.0082   ||displ|| :   0.0139   Lambda : -0.782D-06
Largest |displ|/coords:  0.0082 (   2)  0.0044 (  31)  0.0044 (  32)
................................................................................
.............................. CYCLE  130 ......................................
................................................................................
   1    -45.6329094 -0.456329E+02  0.116E-02    9.18       0.0  T
   2    -45.6329094 -0.249145E-07  0.862E-03    9.18       2.4  T
   3    -45.6329094 -0.109223E-07  0.144E-03    9.18      14.5  T
   4    -45.6329094 -0.409345E-08  0.490E-04    9.18      42.6  T
   5    -45.6329094 -0.143423E-09  0.616E-05    9.18     338.3  T
speedup  1.08
cpu  time for SCC    0.00 s
wall time for SCC    0.00 s
speedup  1.02
cpu  time for grad    0.01 s
wall time for grad    0.01 s
 E :    -45.37054589  G :  0.000431    pred/act E change: -0.356D-06 -0.583D-06
Maxdispl :   0.0126   ||displ|| :   0.0199   Lambda : -0.977D-06
Largest |displ|/coords:  0.0126 (   2)  0.0057 (  31)  0.0056 (  32)
................................................................................
.............................. CYCLE  131 ......................................
................................................................................
   1    -45.6329301 -0.456329E+02  0.159E-02    9.18       0.0  T
   2    -45.6329302 -0.416882E-07  0.118E-02    9.18       1.8  T
   3    -45.6329302 -0.167443E-07  0.180E-03    9.18      11.6  T
   4    -45.6329302 -0.767797E-08  0.634E-04    9.18      32.9  T
   5    -45.6329302 -0.205574E-09  0.846E-05    9.18     246.4  T
speedup  1.05
cpu  time for SCC    0.00 s
wall time for SCC    0.00 s
speedup  1.01
cpu  time for grad    0.01 s
wall time for grad    0.01 s
 E :    -45.37054663  G :  0.000610    pred/act E change: -0.391D-06 -0.739D-06
Maxdispl :   0.0176   ||displ|| :   0.0277   Lambda : -0.133D-05
Largest |displ|/coords:  0.0176 (   2)  0.0084 (  11)  0.0080 (  31)
................................................................................
.............................. CYCLE  132 ......................................
................................................................................
   1    -45.6329290 -0.456329E+02  0.235E-02    9.18       0.0  T
   2    -45.6329291 -0.826223E-07  0.176E-02    9.18       1.2  T
   3    -45.6329291 -0.348347E-07  0.249E-03    9.18       8.4  T
   4    -45.6329292 -0.155465E-07  0.903E-04    9.18      23.1  T
   5    -45.6329292 -0.413209E-09  0.128E-04    9.18     163.2  T
speedup  1.03
cpu  time for SCC    0.00 s
wall time for SCC    0.00 s
speedup  1.00
cpu  time for grad    0.01 s
wall time for grad    0.01 s
 E :    -45.37054761  G :  0.000831    pred/act E change: -0.489D-06 -0.980D-06
Maxdispl :   0.0153   ||displ|| :   0.0276   Lambda : -0.141D-05
Largest |displ|/coords:  0.0153 (   2)  0.0115 (  11)  0.0084 (  31)
................................................................................
.............................. CYCLE  133 ......................................
................................................................................
   1    -45.6328852 -0.456329E+02  0.261E-02    9.18       0.0  T
   2    -45.6328853 -0.101747E-06  0.195E-02    9.18       1.1  T
   3    -45.6328854 -0.409846E-07  0.266E-03    9.18       7.8  T
   4    -45.6328854 -0.196779E-07  0.984E-04    9.18      21.2  T
   5    -45.6328854 -0.497359E-09  0.140E-04    9.18     148.4  T
speedup  1.05
cpu  time for SCC    0.00 s
wall time for SCC    0.00 s
speedup  1.02
cpu  time for grad    0.01 s
wall time for grad    0.01 s
 E :    -45.37054863  G :  0.000860    pred/act E change: -0.666D-06 -0.102D-05
Maxdispl :   0.0103   ||displ|| :   0.0197   Lambda : -0.118D-05
Largest |displ|/coords:  0.0103 (  11)  0.0085 (   2)  0.0063 (  31)
................................................................................
.............................. CYCLE  134 ......................................
................................................................................
   1    -45.6328462 -0.456328E+02  0.210E-02    9.18       0.0  T
   2    -45.6328462 -0.722717E-07  0.157E-02    9.18       1.3  T
   3    -45.6328463 -0.260661E-07  0.212E-03    9.18       9.8  T
   4    -45.6328463 -0.145477E-07  0.778E-04    9.18      26.8  T
   5    -45.6328463 -0.350262E-09  0.111E-04    9.18     187.4  T
speedup  0.81
cpu  time for SCC    0.00 s
wall time for SCC    0.00 s
speedup  1.02
cpu  time for grad    0.01 s
wall time for grad    0.01 s
 E :    -45.37054945  G :  0.000592    pred/act E change: -0.707D-06 -0.824D-06
Maxdispl :   0.0053   ||displ|| :   0.0131   Lambda : -0.666D-06
Largest |displ|/coords:  0.0053 (  31)  0.0053 (  11)  0.0050 (  32)
................................................................................
.............................. CYCLE  135 ......................................
................................................................................
   1    -45.6327988 -0.456328E+02  0.142E-02    9.18       0.0  T
   2    -45.6327988 -0.450260E-07  0.107E-02    9.18       2.0  T
   3    -45.6327989 -0.132649E-07  0.168E-03    9.18      12.4  T
   4    -45.6327989 -0.907469E-08  0.564E-04    9.18      37.0  T
   5    -45.6327989 -0.197815E-09  0.662E-05    9.18     315.2  T
speedup  1.05
cpu  time for SCC    0.00 s
wall time for SCC    0.00 s
speedup  1.01
cpu  time for grad    0.01 s
wall time for grad    0.01 s
 E :    -45.37054990  G :  0.000359    pred/act E change: -0.592D-06 -0.452D-06
Maxdispl :   0.0022   ||displ|| :   0.0066   Lambda : -0.337D-06
Largest |displ|/coords:  0.0022 (   9)  0.0022 (  31)  0.0020 (   7)
................................................................................
.............................. CYCLE  136 ......................................
................................................................................
   1    -45.6328212 -0.456328E+02  0.635E-03    9.18       0.0  T
   2    -45.6328212 -0.104269E-07  0.476E-03    9.18       4.4  T
   3    -45.6328212 -0.235714E-08  0.753E-04    9.18      27.7  T
   4    -45.6328212 -0.221134E-08  0.207E-04    9.18     100.7  T
speedup  1.00
cpu  time for SCC    0.00 s
wall time for SCC    0.00 s
speedup  0.99
cpu  time for grad    0.01 s
wall time for grad    0.01 s
 E :    -45.37055011  G :  0.000250    pred/act E change: -0.333D-06 -0.212D-06
Maxdispl :   0.0049   ||displ|| :   0.0111   Lambda : -0.211D-06
Largest |displ|/coords:  0.0049 (  31)  0.0045 (  32)  0.0038 (   2)
................................................................................
.............................. CYCLE  137 ......................................
................................................................................
   1    -45.6327913 -0.456328E+02  0.119E-02    9.18       0.0  T
   2    -45.6327914 -0.253888E-07  0.891E-03    9.18       2.3  T
   3    -45.6327914 -0.873129E-08  0.134E-03    9.18      15.6  T
   4    -45.6327914 -0.500044E-08  0.410E-04    9.18      50.8  T
   5    -45.6327914 -0.913900E-10  0.485E-05    9.18     430.3  T
speedup  1.05
cpu  time for SCC    0.00 s
wall time for SCC    0.00 s
speedup  1.01
cpu  time for grad    0.01 s
wall time for grad    0.01 s
 E :    -45.37055023  G :  0.000258    pred/act E change: -0.169D-06 -0.114D-06
Maxdispl :   0.0022   ||displ|| :   0.0046   Lambda : -0.114D-06
Largest |displ|/coords:  0.0022 (   2)  0.0022 (   9)  0.0020 (   1)
................................................................................
.............................. CYCLE  138 ......................................
................................................................................
   1    -45.6328225 -0.456328E+02  0.374E-03    9.18       0.0  T
   2    -45.6328225 -0.266292E-08  0.280E-03    9.18       7.4  T
   3    -45.6328225 -0.131926E-08  0.368E-04    9.18      56.6  T
   4    -45.6328225 -0.493337E-09  0.141E-04    9.18     147.9  T
speedup  1.00
cpu  time for SCC    0.00 s
wall time for SCC    0.00 s
speedup  0.99
cpu  time for grad    0.01 s
wall time for grad    0.01 s
 E :    -45.37055030  G :  0.000174    pred/act E change: -0.105D-06 -0.763D-07
Maxdispl :   0.0019   ||displ|| :   0.0041   Lambda : -0.551D-07
Largest |displ|/coords:  0.0019 (   2)  0.0017 (   9)  0.0012 (   4)

   *** GEOMETRY OPTIMIZATION CONVERGED AFTER 138 ITERATIONS ***

------------------------------------------------------------------------
 total energy gain (kcal):     -0.1154
------------------------------------------------------------------------
================
 final structure:
================
$coord
       -1.95752765684321       -1.57996130033252       -2.83319683893965      S 
       -1.39397584169005        1.08294993656835       -2.36183541788606      O 
       -0.12150547914429       -3.21487210786831       -1.63322320901397      O 
       -4.55353169238867       -2.27266522346026       -2.36694660789431      O 
       -1.53583385232440       -1.88149905894774       -5.81751538565382      O 
       -2.49214908838567       -3.35309621150631       -6.21439320803040      H 
        0.46494269844369       -0.06406522267736        4.50744789005351      O 
        0.25310680895026       -0.57985717774336        6.23062552183424      H 
        0.37594436697309        4.34987990746186        1.66372039093371      O 
       -0.83381746963776        3.69522678487404        0.45912974998217      H 
        0.45716295308892        3.08675528683690        2.99284698040737      H 
        3.84199066789390       -2.12544310351381        1.14572536300031      O 
        2.51735661674695       -2.93892846885763        0.12747132739087      H 
        3.91921079412992        0.28018976324802       -0.48018189295473      H 
        2.93673728428547       -1.54441495185416        2.64068714118224      H 
       -3.98931845480770       -0.80208985487623        2.32132585697462      O 
       -1.12139611139013       -0.51754628153222        3.63760882615186      H 
       -5.01070663716868        0.69683610345051        2.29112183947846      H 
       -4.19793190854973       -1.56962682921609        0.64647882602376      H 
        3.35783917050438        1.93721019827872       -1.53591452064575      N 
        2.91084087292406        3.36602576081699       -0.25222106924553      H 
        1.55296250453562        1.47814493655896       -2.29650815409935      H 
        4.61959947274776        2.47084713318971       -2.87225339015445      H 
$end
 
 Bond Distances (Angstroems)
 ---------------------------
S1-O2=1.4618         S1-O3=1.4477         S1-O4=1.4431         S1-O5=1.6029         O2-S1=1.4618         O3-S1=1.4477         
O4-S1=1.4431         O5-S1=1.6029         O5-H6=0.9522         H6-O5=0.9522         O7-H8=0.9584         O7-H17=0.9870        
H8-O7=0.9584         O9-H10=0.9676        O9-H11=0.9712        H10-O9=0.9676        H11-O9=0.9712        O12-H13=0.9834       
O12-H15=0.9746       H13-O12=0.9834       H14-N20=1.0813       H15-O12=0.9746       O16-H18=0.9600       O16-H19=0.9812       
H17-O7=0.9870        H18-O16=0.9600       H19-O16=0.9812       N20-H14=1.0813       N20-H21=1.0436       N20-H22=1.0645       
N20-H23=1.0127       H21-N20=1.0436       H22-N20=1.0645       H23-N20=1.0127       
 N  H  Rav=1.0505 sigma=0.0256  Rmin=1.0127  Rmax=1.0813     4
 O  H  Rav=0.9706 sigma=0.0114  Rmin=0.9522  Rmax=0.9870     9
 S  O  Rav=1.4888 sigma=0.0662  Rmin=1.4431  Rmax=1.6029     4
 
 selected bond angles (degree)
 --------------------
O3-S1-O2=111.37                O4-S1-O2=114.20                O4-S1-O3=114.34                O5-S1-O2=103.63                
O5-S1-O3=106.21                O5-S1-O4=106.00                H6-O5-S1=102.99                H17-O7-H8=105.96               
H11-O9-H10=105.07              
 
 selected dihedral angles (degree)
 ---------------------------------
H6-O5-S1-O2=201.43            H6-O5-S1-O3= 83.98            H6-O5-S1-O4=321.99            
 
 CMA Distance (Angstroems)
 ---------------------------
R(CMA):  3.0600

========================================================================
 FINAL SINGLEPOINT CALCULATION ON OPTIMIZED GEOMETRY
========================================================================

 Ncao       : 59
 Nao        : 58
 Nshell     : 34
 Nel        : 72
 T(el)      :   300.0
 intcut     :    25.0
 scfconv/Eh :  0.100E-05
   qconv/e  :  0.100E-03
 intneglect :  0.100E-07
 broydamp   :      0.250
 iter      E             dE          RMSdq      gap      omega  full diag
   1    -45.6328225 -0.456328E+02  0.516E-05    9.18       0.0  T
   2    -45.6328225 -0.191847E-11  0.324E-05    9.18     644.2  T
   3    -45.6328225 -0.781597E-12  0.705E-06    9.18    2959.3  T
speedup  0.87
cpu  time for SCC    0.00 s
wall time for SCC    0.00 s

   *** convergence criteria satisfied after 3 iterations ***

          eigenvalues
 #    :          24         25         26         27         28         29         30         31
 occ. :        2.000      2.000      2.000      2.000      2.000      2.000      2.000      2.000
 eps  :       -13.641    -13.630    -13.111    -12.424    -12.374    -12.188    -12.084    -12.072
 #    :          32         33         34         35         36         37         38         39
 occ. :        2.000      2.000      2.000      2.000      2.000      0.000      0.000      0.000
 eps  :       -12.010    -11.971    -11.802    -11.731    -11.499     -2.318     -0.826     -0.350
 #    :          40         41         42         43         44         45         46         47
 occ. :        0.000      0.000      0.000      0.000      0.000      0.000      0.000      0.000
 eps  :         0.887      1.161      1.649      3.037      3.272      4.366      4.513      4.929


   #   Z            q   n(s)   n(p)   n(d)      C6AA      α(0)
   1  16 S      1.647  1.590  1.797  0.966    89.979    15.965
   2   8 O     -0.733  1.759  4.974  0.000    29.606     7.295
   3   8 O     -0.739  1.766  4.973  0.000    29.791     7.318
   4   8 O     -0.727  1.774  4.953  0.000    29.454     7.276
   5   8 O     -0.600  1.752  4.848  0.000    25.147     6.770
   6   1 H      0.340  0.660  0.000  0.000     0.606     1.219
   7   8 O     -0.623  1.746  4.877  0.000    25.749     6.848
   8   1 H      0.288  0.712  0.000  0.000     0.758     1.367
   9   8 O     -0.611  1.751  4.860  0.000    25.447     6.808
  10   1 H      0.311  0.689  0.000  0.000     0.688     1.303
  11   1 H      0.319  0.681  0.000  0.000     0.666     1.282
  12   8 O     -0.609  1.756  4.853  0.000    25.403     6.803
  13   1 H      0.337  0.663  0.000  0.000     0.621     1.238
  14   1 H      0.300  0.700  0.000  0.000     0.713     1.323
  15   1 H      0.323  0.677  0.000  0.000     0.655     1.272
  16   8 O     -0.621  1.739  4.881  0.000    25.690     6.841
  17   1 H      0.339  0.661  0.000  0.000     0.614     1.231
  18   1 H      0.295  0.705  0.000  0.000     0.735     1.346
  19   1 H      0.321  0.679  0.000  0.000     0.660     1.276
  20   7 N     -0.352  1.277  4.075  0.000    29.049     8.005
  21   1 H      0.280  0.720  0.000  0.000     0.776     1.380
  22   1 H      0.289  0.711  0.000  0.000     0.748     1.355
  23   1 H      0.224  0.776  0.000  0.000     0.990     1.558

 Mol. C6AA /au·bohr⁶  :       4496.775237
 Mol. C8AA /au·bohr⁸  :      99100.448130
 Mol. α(0) /au        :         97.079560

 
 Wiberg/Mayer (AO) data. WBOs > 0.1 written file <wbo>
 largest (>0.05) Wiberg bond orders for each atom
           total WBO             WBO to atom ...
     1  S   4.883    O    4 1.346    O    3 1.340    O    2 1.289    O    5 0.871
     2  O   1.749    S    1 1.289    O    3 0.113    H   22 0.109    O    4 0.103    O    5 0.061
     3  O   1.714    S    1 1.340    O    2 0.113    O    4 0.111    O    5 0.075    H   13 0.053
     4  O   1.745    S    1 1.346    O    3 0.111    O    2 0.103    O    5 0.077    H   19 0.065
     5  O   1.956    S    1 0.871    H    6 0.869    O    4 0.077    O    3 0.075    O    2 0.061
     6  H   0.885    O    5 0.869
     7  O   1.868    H    8 0.910    H   17 0.815
     8  H   0.917    O    7 0.910
     9  O   1.885    H   10 0.886    H   11 0.862    H   21 0.067
    10  H   0.903    O    9 0.886
    11  H   0.898    O    9 0.862
    12  O   1.959    H   15 0.852    H   13 0.829    H   14 0.152    N   20 0.072
    13  H   0.887    O   12 0.829    O    3 0.053
    14  H   0.910    N   20 0.753    O   12 0.152
    15  H   0.896    O   12 0.852
    16  O   1.863    H   18 0.908    H   19 0.821    H   17 0.066
    17  H   0.885    O    7 0.815    O   16 0.066
    18  H   0.913    O   16 0.908
    19  H   0.897    O   16 0.821    O    4 0.065
    20  N   3.515    H   23 0.945    H   21 0.849    H   22 0.799    H   14 0.753    O   12 0.072
    21  H   0.922    N   20 0.849    O    9 0.067
    22  H   0.917    N   20 0.799    O    2 0.109
    23  H   0.950    N   20 0.945
 MOs/occ written to file <molden.input>
 
molecular dipole:
                 x           y           z       tot (Debye)
 q only:        1.730       1.130       0.333
   full:        0.891       0.727      -0.012       2.925
molecular quadrupole (traceless):
                xx          xy          yy          xz          yz          zz
 q only:       -0.076       3.423      -5.797      -7.802      -1.405       5.872
  q+dip:       -1.363       3.991      -8.062      -7.107      -0.411       9.424
   full:       -1.716       4.236      -8.408      -6.937      -0.052      10.124

SCC energy    :     -45.6328225
rep           :       0.2620406
ES            :       0.2375557
AES           :      -0.0674924
AXC           :      -0.0071437
disp          :      -0.0170233
XB            :       0.0000000
fix           :       0.0000000
total E       :     -45.3705503
atomizationE  :       4.4536128     2794.68
(atE without considering molecular charge,
 total energy contains solvation terms)
H-L gap (eV)  :          9.1807
optimized geometry written to: xtbopt.xyz


------------------------------------------------------------------------
 * finished run on 2019/09/16 at 12:00:53.264     
------------------------------------------------------------------------
 total:
 * wall-time:     0 d,  0 h,  0 min,  2.565 sec
 *  cpu-time:     0 d,  0 h,  0 min,  2.531 sec
 * ratio c/w:     0.986 speedup
 SCF:
 * wall-time:     0 d,  0 h,  0 min,  0.117 sec
 *  cpu-time:     0 d,  0 h,  0 min,  0.114 sec
 * ratio c/w:     0.973 speedup
 ANC optimizer:
 * wall-time:     0 d,  0 h,  0 min,  2.427 sec
 *  cpu-time:     0 d,  0 h,  0 min,  2.399 sec
 * ratio c/w:     0.988 speedup

