      -----------------------------------------------------------      
     |                   =====================                   |     
     |                           x T B                           |     
     |                   =====================                   |     
     |                         S. Grimme                         |     
     |          Mulliken Center for Theoretical Chemistry        |     
     |                    University of Bonn                     |     
     |                 Version 6.0.1 (SAW181210)                 |     
      -----------------------------------------------------------      

   This program is distributed in the hope that it will be useful,
   but WITHOUT ANY WARRANTY; without even the implied warranty of
   MERCHANTABILITY or FITNESS FOR A PARTICULAR PURPOSE.
   
   FOR NON-COMMERCIAL, ACADEMIA USE ONLY.
   
   Cite this work as:
   S. Grimme, C. Bannwarth, P. Shushkov, J. Comput. Theory Chem., 2017,
   13, 1989-2009.
   C. Bannwarth, S. Ehlert and S. Grimme., ChemRxiv, 2018, preprint.
   http://doi.org/10.26434/chemrxiv.7246238.v1
   
   for sTDA-xTB:
   S. Grimme and C. Bannwarth, J. Chem. Phys., 2016, 145, 054103.
   
   in the mass-spec context:
   V. Asgeirsson, C. Bauer and S. Grimme, Chem. Sci., 2017, 8, 4879.
   
   if GBSA is used:
   P. Shushkov, F. März and S. Grimme, unpublished.
   
   for ANC optimizer:
   S. Grimme, unpublished.
   Rational Function algorithm used in ANCopt:
   F. Eckert, P. Pulay, H.-J. Werner, J. Comput. Chem., 1997, 18, 1473.
   
   with help from (in alphabetical order)
   C. Bannwarth, F. Bohle, G. Brandenburg, E. Caldeweyher, M. Checinski,
   S. Dohm, S. Ehlert, S. Ehrlich, F. März, H. Neugebauer, J. Pisarek,
   P. Pracht, P. Shushkov, and S. Spicher.
   
 * started run on 2019/09/16 at 11:58:49.975     
========================================================================
 # omp threads = 1
========================================================================
number of atoms            : 26
number of electrons        : 80
charge                     : 0
spin                       : .0
first test random number   : .8947

########################################################################
# WARNING! Please study the warnings concerning your input carefully
#  - XTBPATH is not set, using XTBHOME instead
#  - the use of '-opt' is discouraged, please use '--opt' next time
#  - the use of '-chrg' is discouraged, please use '--chrg' next time
#  - the use of '-uhf' is discouraged, please use '--uhf' next time
########################################################################

           ------------------------------------------------- 
          |                 G F N 2 - x T B                 |
          | Geometry, Frequencies, Noncovalent interactions |
          |            JCTC 2018 parametrisation            |
           ------------------------------------------------- 
      method parameters     
 k(s)        :  1.8500
 k(p)        :  2.2300
 k(d)        :  2.2300
 k(f)        :  2.0000
 kEN (H0ij)  : -2.0000
 D4 a1       :  0.5200
 D4 a2       :  5.0000
 D4 s6       :  1.0000
 D4 s8       :  2.7000
 D4 s9       :  5.0000
 alphaj      :  2.0000


            Z     q(EN)     CN     RAES       Cart. coordinates
     1  S   6.0    0.64    4.28    4.19    -0.66467     3.42638    -1.36828
     2  O   6.0   -0.33    1.21    1.80    -0.35193     1.81291    -3.65455
     3  O   6.0   -0.32    1.22    1.80    -3.12980     2.84402    -0.13860
     4  O   6.0   -0.33    1.23    1.80     1.43127     2.90914     0.43937
     5  O   6.0   -0.25    2.08    1.84    -0.60900     6.10232    -2.10907
     6  H   1.0    0.15    1.21    1.47    -1.95915     6.43645    -3.27378
     7  O   6.0   -0.39    1.69    1.81    -0.45710    -3.88109     0.91029
     8  H   1.0    0.17    0.95    1.42    -0.62652    -5.72978     1.10365
     9  O   6.0   -0.27    1.97    1.82    -1.58487    -3.36665    -3.69113
    10  H   1.0    0.17    1.10    1.44    -1.32001    -3.73626    -1.92822
    11  H   1.0    0.17    1.01    1.43    -1.63612    -1.55001    -3.79976
    12  O   6.0   -0.28    2.04    1.83     3.11994    -1.63856    -5.19175
    13  H   1.0    0.15    0.98    1.43     2.03864    -3.01011    -5.70583
    14  H   1.0    0.17    1.02    1.43     2.05815    -0.15966    -5.19905
    15  O   6.0   -0.23    2.92    2.59     3.30392    -1.63790    -0.26720
    16  H   1.0    0.14    1.04    1.44     3.63252    -1.83052    -2.09607
    17  H   1.0    0.15    1.05    1.44     3.02230     0.14628     0.20969
    18  H   1.0    0.16    1.21    1.47     1.91472    -2.74418     0.31397
    19  O   6.0   -0.22    2.92    2.59    -3.09106    -0.88644     3.05089
    20  H   1.0    0.13    1.05    1.44    -2.10431    -0.15763     4.45979
    21  H   1.0    0.15    1.06    1.44    -3.62848     0.41646     1.82465
    22  H   1.0    0.16    1.21    1.47    -2.18878    -2.29688     2.22141
    23  N   5.0   -0.22    3.02    1.93     0.27680     1.77637     5.90017
    24  H   1.0    0.11    0.99    1.43    -0.19230     3.31819     6.95554
    25  H   1.0    0.12    1.01    1.43     0.96600     2.46890     4.23990
    26  H   1.0    0.10    0.99    1.43     1.77983     0.96825     6.79399

  Z AO/shell   Hii/eV     exponent
  1     Wed Apr 25 08:07:45 CEST 2018   EN: 2.200 GM2: 0.406  GM3: 0.0800  RAES: 1.40
     1s    -10.707211    1.230000
  7     Wed Apr 25 08:07:45 CEST 2018   EN: 3.040 GM2: 0.461  GM3:-0.0640  RAES: 1.90
     2s    -16.686243    2.339881
     2p    -12.523956    2.014332
  8     Wed Apr 25 08:07:45 CEST 2018   EN: 3.440 GM2: 0.452  GM3:-0.0517  RAES: 1.80
     2s    -20.229985    2.439742
     2p    -15.503117    2.137023
 16     Tue Apr 24 11:44:34 CEST 2018   EN: 2.580 GM2: 0.340  GM3:-0.0502  RAES: 3.10
     3s    -20.029654    1.981333
     3p    -11.377694    2.025643
     3d     -0.420282    1.702555
 no old-style atom pair restraining (fixing) potential

molecular fragmentation (1/2 indicates fragments):
11111122222222222222222222
# atoms in fragment 1/2:     6    20
 fragment masses (1/2) :       97.07      108.11
CMA distance (Bohr)    :   5.333
constraining FC (au)   :  0.0500
           ------------------------------------------------- 
          |        Self-Consistent Charge Iterations        |
           ------------------------------------------------- 

 Ncao       : 65
 Nao        : 64
 Nshell     : 38
 Nel        : 80
 T(el)      :   300.0
 intcut     :    25.0
 scfconv/Eh :  0.100E-05
   qconv/e  :  0.100E-03
 intneglect :  0.100E-07
 broydamp   :      0.250
 iter      E             dE          RMSdq      gap      omega  full diag
   1    -50.5867157 -0.505867E+02  0.704E+00   10.14       0.0  T
   2    -50.6364275 -0.497119E-01  0.508E+00    9.61       1.0  T
   3    -50.6741262 -0.376987E-01  0.136E+00    7.26       1.0  T
   4    -50.6794869 -0.536067E-02  0.571E-01    7.64       1.0  T
   5    -50.6801286 -0.641657E-03  0.319E-01    7.63       1.0  T
   6    -50.6805999 -0.471387E-03  0.137E-01    7.72       1.0  T
   7    -50.6807061 -0.106152E-03  0.491E-02    7.72       1.0  T
   8    -50.6807178 -0.117447E-04  0.312E-02    7.71       1.0  T
   9    -50.6807235 -0.564657E-05  0.120E-02    7.72       1.6  T
  10    -50.6807244 -0.891144E-06  0.226E-03    7.73       8.7  T
  11    -50.6807244 -0.143908E-07  0.125E-03    7.72      15.7  T
  12    -50.6807244 -0.643956E-08  0.519E-04    7.72      37.8  T
  13    -50.6807244 -0.164196E-08  0.142E-04    7.72     138.4  T
speedup  0.99
cpu  time for SCC    0.02 s
wall time for SCC    0.02 s

   *** convergence criteria satisfied after 13 iterations ***

          eigenvalues
 #    :          28         29         30         31         32         33         34         35
 occ. :        2.000      2.000      2.000      2.000      2.000      2.000      2.000      2.000
 eps  :       -12.838    -12.410    -12.327    -12.076    -11.877    -11.734    -11.618    -11.520
 #    :          36         37         38         39         40         41         42         43
 occ. :        2.000      2.000      2.000      2.000      2.000      0.000      0.000      0.000
 eps  :       -11.399    -11.170    -10.608    -10.207     -9.901     -2.176     -0.440     -0.204
 #    :          44         45         46         47         48         49         50         51
 occ. :        0.000      0.000      0.000      0.000      0.000      0.000      0.000      0.000
 eps  :         0.576      0.814      1.085      2.195      3.486      3.784      4.213      4.773


   #   Z            q   n(s)   n(p)   n(d)      C6AA      α(0)
   1  16 S      1.625  1.583  1.825  0.967    90.494    16.011
   2   8 O     -0.762  1.779  4.984  0.000    30.467     7.401
   3   8 O     -0.761  1.776  4.986  0.000    30.430     7.396
   4   8 O     -0.747  1.765  4.981  0.000    30.012     7.345
   5   8 O     -0.551  1.721  4.830  0.000    24.008     6.615
   6   1 H      0.363  0.637  0.000  0.000     0.549     1.160
   7   8 O     -0.852  1.828  5.024  0.000    33.122     7.719
   8   1 H      0.217  0.783  0.000  0.000     1.035     1.598
   9   8 O     -0.676  1.761  4.916  0.000    27.082     7.024
  10   1 H      0.311  0.689  0.000  0.000     0.688     1.302
  11   1 H      0.286  0.714  0.000  0.000     0.765     1.374
  12   8 O     -0.607  1.738  4.869  0.000    25.354     6.796
  13   1 H      0.318  0.682  0.000  0.000     0.670     1.286
  14   1 H      0.327  0.673  0.000  0.000     0.644     1.261
  15   8 O     -0.460  1.657  4.803  0.000    21.987     6.333
  16   1 H      0.396  0.604  0.000  0.000     0.493     1.103
  17   1 H      0.387  0.613  0.000  0.000     0.509     1.121
  18   1 H      0.408  0.592  0.000  0.000     0.464     1.066
  19   8 O     -0.450  1.653  4.797  0.000    21.793     6.305
  20   1 H      0.378  0.622  0.000  0.000     0.527     1.141
  21   1 H      0.399  0.601  0.000  0.000     0.488     1.097
  22   1 H      0.407  0.593  0.000  0.000     0.465     1.068
  23   7 N     -0.455  1.384  4.071  0.000    31.963     8.396
  24   1 H      0.152  0.848  0.000  0.000     1.386     1.844
  25   1 H      0.192  0.808  0.000  0.000     1.146     1.677
  26   1 H      0.155  0.845  0.000  0.000     1.368     1.832

 Mol. C6AA /au·bohr⁶  :       5519.486122
 Mol. C8AA /au·bohr⁸  :     119460.671590
 Mol. α(0) /au        :        107.270612

 
 Wiberg/Mayer (AO) data. WBOs > 0.1 written file <wbo>
 largest (>0.05) Wiberg bond orders for each atom
           total WBO             WBO to atom ...
     1  S   4.888    O    2 1.291    O    4 1.289    O    3 1.279    O    5 0.990
     2  O   1.670    S    1 1.291    O    4 0.113    O    3 0.112    O    5 0.075
     3  O   1.683    S    1 1.279    O    2 0.112    O    4 0.111    H   21 0.077    O    5 0.071
     4  O   1.706    S    1 1.289    O    2 0.113    O    3 0.111    H   17 0.072    O    5 0.053
     5  O   2.040    S    1 0.990    H    6 0.844    O    2 0.075    O    3 0.071    O    4 0.053
     6  H   0.867    O    5 0.844
     7  O   1.618    H    8 0.943    H   22 0.202    H   18 0.193    H   10 0.097    O   19 0.062    O   15 0.059
     8  H   0.953    O    7 0.943
     9  O   1.784    H   11 0.891    H   10 0.805
    10  H   0.903    O    9 0.805    O    7 0.097
    11  H   0.918    O    9 0.891
    12  O   1.908    H   13 0.884    H   14 0.857    H   16 0.098
    13  H   0.899    O   12 0.884
    14  H   0.893    O   12 0.857
    15  O   2.282    H   17 0.770    H   16 0.741    H   18 0.634    O    7 0.059
    16  H   0.843    O   15 0.741    O   12 0.098
    17  H   0.850    O   15 0.770    O    4 0.072
    18  H   0.833    O   15 0.634    O    7 0.193
    19  O   2.290    H   20 0.771    H   21 0.756    H   22 0.627    O    7 0.062
    20  H   0.857    O   19 0.771    N   23 0.081
    21  H   0.841    O   19 0.756    O    3 0.077
    22  H   0.834    O   19 0.627    O    7 0.202
    23  N   3.017    H   24 0.973    H   26 0.973    H   25 0.941    H   20 0.081
    24  H   0.977    N   23 0.973
    25  H   0.963    N   23 0.941
    26  H   0.976    N   23 0.973
 MOs/occ written to file <molden.input>
 
molecular dipole:
                 x           y           z       tot (Debye)
 q only:        0.435       0.406       1.912
   full:        0.384       1.356       1.755       5.721
molecular quadrupole (traceless):
                xx          xy          yy          xz          yz          zz
 q only:       -1.082      -6.742      -3.218      -2.318      -6.196       4.301
  q+dip:       -7.175      -7.079       3.217       2.725      -7.788       3.958
   full:       -7.815      -7.379       4.032       2.887      -8.079       3.783

SCC energy    :     -50.6807244
rep           :       0.2894687
ES            :       0.2919933
AES           :      -0.0712330
AXC           :      -0.0073895
disp          :      -0.0193312
XB            :       0.0000000
fix           :       0.0000000
total E       :     -50.3909281
atomizationE  :       4.9212323     3088.12
(atE without considering molecular charge,
 total energy contains solvation terms)
H-L gap (eV)  :          7.7249
           ------------------------------------------------- 
          |                 ===============                 |
          |                   A N C O P T                   |
          |                 ===============                 |
          |          Approximate Normal Coordinate          |
          |           Rational Function Optimizer           |
           ------------------------------------------------- 
dumping coords to <xtbopt.coord> and <xtbopt.log>
 optlevel               2
 Maxcycle             520
 Maxmicro              25
 Econv         1.000000000000000E-007
 Gconv         2.000000000000000E-004
 Maxdispl       1.00000000000000     
 Hlow          5.000000000000000E-003
 S6             20.0000000000000     
 Nvar               72

generating ANC from model Hessian ...
 Shifting diagonal of input Hessian by   4.841022497707868E-003
 Lowest  eigenvalues of input Hessian
   -0.000000   -0.000000    0.000000    0.000000    0.000000    0.000000
    0.005000    0.005118    0.005656    0.006030    0.006226    0.006540
    0.006917    0.007975    0.008223    0.009092    0.009737    0.009966
 Highest eigenvalues
    1.559020    1.585121    1.585747    3.142271    3.214232    3.315973
 
cpu  time for ANC gen    0.02 s
wall time for ANC gen    0.02 s
................................................................................
.............................. CYCLE    1 ......................................
................................................................................
   1    -50.6807244 -0.506807E+02  0.777E-05    7.72       0.0  T
   2    -50.6807244 -0.133724E-10  0.590E-05    7.72     332.2  T
   3    -50.6807244 -0.127756E-10  0.290E-05    7.72     675.4  T
speedup  0.94
cpu  time for SCC    0.00 s
wall time for SCC    0.00 s
speedup  0.99
cpu  time for grad    0.01 s
wall time for grad    0.01 s
 E :    -50.39092807  G :  0.206002    pred/act E change:  0.000D+00  0.489D-07
Maxdispl :   0.1242   ||displ|| :   0.3394   Lambda : -0.332D-01
Largest |displ|/coords:  0.1242 (  18)  0.1210 (  26)  0.1192 (  54)
................................................................................
.............................. CYCLE    2 ......................................
................................................................................
   1    -50.6912263 -0.506912E+02  0.305E-01    7.91       0.0  T
   2    -50.6914199 -0.193567E-03  0.231E-01    7.96       1.0  T
   3    -50.6915079 -0.880015E-04  0.785E-02    8.06       1.0  T
   4    -50.6915225 -0.146072E-04  0.204E-02    8.05       1.0  T
   5    -50.6915236 -0.111643E-05  0.561E-03    8.04       3.5  T
   6    -50.6915236 -0.482514E-07  0.299E-03    8.04       6.6  T
speedup  1.02
cpu  time for SCC    0.01 s
wall time for SCC    0.01 s
speedup  1.06
cpu  time for grad    0.01 s
wall time for grad    0.01 s
 E :    -50.41704342  G :  0.126567    pred/act E change:  0.000D+00 -0.261D-01
Maxdispl :   0.1417   ||displ|| :   0.3648   Lambda : -0.172D-01
Largest |displ|/coords:  0.1417 (  23)  0.1384 (  18)  0.1098 (  29)
................................................................................
.............................. CYCLE    3 ......................................
................................................................................
   1    -50.6966495 -0.506966E+02  0.275E-01    8.17       0.0  T
   2    -50.6969239 -0.274398E-03  0.204E-01    8.24       1.0  T
   3    -50.6970398 -0.115914E-03  0.845E-02    8.33       1.0  T
   4    -50.6970506 -0.107933E-04  0.183E-02    8.33       1.1  T
   5    -50.6970514 -0.843068E-06  0.518E-03    8.32       3.8  T
   6    -50.6970515 -0.387362E-07  0.272E-03    8.32       7.2  T
speedup  1.03
cpu  time for SCC    0.01 s
wall time for SCC    0.01 s
speedup  0.99
cpu  time for grad    0.01 s
wall time for grad    0.01 s
 E :    -50.43065752  G :  0.078964    pred/act E change: -0.185D-01 -0.136D-01
Maxdispl :   0.1675   ||displ|| :   0.3745   Lambda : -0.849D-02
Largest |displ|/coords:  0.1675 (  19)  0.1248 (  23)  0.1217 (   2)
................................................................................
.............................. CYCLE    4 ......................................
................................................................................
   1    -50.6983459 -0.506983E+02  0.284E-01    8.34       0.0  T
   2    -50.6986283 -0.282418E-03  0.206E-01    8.39       1.0  T
   3    -50.6987447 -0.116392E-03  0.810E-02    8.47       1.0  T
   4    -50.6987566 -0.119538E-04  0.174E-02    8.47       1.1  T
   5    -50.6987574 -0.769718E-06  0.516E-03    8.46       3.8  T
   6    -50.6987575 -0.358845E-07  0.278E-03    8.46       7.0  T
speedup  1.00
cpu  time for SCC    0.01 s
wall time for SCC    0.01 s
speedup  0.97
cpu  time for grad    0.01 s
wall time for grad    0.01 s
 E :    -50.43735696  G :  0.051090    pred/act E change: -0.974D-02 -0.670D-02
Maxdispl :   0.1558   ||displ|| :   0.3237   Lambda : -0.414D-02
Largest |displ|/coords:  0.1558 (  19)  0.1358 (   3)  0.1228 (   2)
................................................................................
.............................. CYCLE    5 ......................................
................................................................................
   1    -50.6991157 -0.506991E+02  0.240E-01    8.46       0.0  T
   2    -50.6992834 -0.167712E-03  0.174E-01    8.52       1.0  T
   3    -50.6993530 -0.696082E-04  0.627E-02    8.62       1.0  T
   4    -50.6993626 -0.962145E-05  0.148E-02    8.62       1.3  T
   5    -50.6993632 -0.586387E-06  0.434E-03    8.61       4.5  T
   6    -50.6993632 -0.251489E-07  0.238E-03    8.61       8.3  T
speedup  1.02
cpu  time for SCC    0.01 s
wall time for SCC    0.01 s
speedup  1.05
cpu  time for grad    0.01 s
wall time for grad    0.01 s
 E :    -50.44065947  G :  0.036973    pred/act E change: -0.484D-02 -0.330D-02
Maxdispl :   0.1950   ||displ|| :   0.3839   Lambda : -0.504D-02
Largest |displ|/coords:  0.1950 (   3)  0.1762 (  19)  0.1108 (  12)
................................................................................
.............................. CYCLE    6 ......................................
................................................................................
   1    -50.7077821 -0.507078E+02  0.284E-01    8.59       0.0  T
   2    -50.7081772 -0.395042E-03  0.202E-01    8.67       1.0  T
   3    -50.7083414 -0.164247E-03  0.847E-02    8.79       1.0  T
   4    -50.7083520 -0.106225E-04  0.206E-02    8.81       1.0  T
   5    -50.7083529 -0.905458E-06  0.598E-03    8.81       3.3  T
   6    -50.7083530 -0.495197E-07  0.301E-03    8.81       6.5  T
speedup  1.02
cpu  time for SCC    0.01 s
wall time for SCC    0.01 s
speedup  1.04
cpu  time for grad    0.01 s
wall time for grad    0.01 s
 E :    -50.44329613  G :  0.020591    pred/act E change: -0.229D-02 -0.264D-02
Maxdispl :   0.2477   ||displ|| :   0.4299   Lambda : -0.278D-02
Largest |displ|/coords:  0.2477 (  19)  0.1316 (  18)  0.1313 (   3)
................................................................................
.............................. CYCLE    7 ......................................
................................................................................
   1    -50.7001948 -0.507002E+02  0.403E-01    8.71       0.0  T
   2    -50.7005109 -0.316094E-03  0.293E-01    8.77       1.0  T
   3    -50.7006519 -0.140999E-03  0.909E-02    8.88       1.0  T
   4    -50.7006803 -0.284124E-04  0.198E-02    8.89       1.0  T
   5    -50.7006812 -0.859449E-06  0.782E-03    8.88       2.5  T
   6    -50.7006814 -0.171585E-06  0.436E-03    8.88       4.5  T
   7    -50.7006814 -0.256235E-07  0.104E-03    8.88      18.9  T
speedup  1.03
cpu  time for SCC    0.01 s
wall time for SCC    0.01 s
speedup  0.99
cpu  time for grad    0.01 s
wall time for grad    0.02 s
 E :    -50.44310016  G :  0.052912    pred/act E change: -0.289D-02  0.196D-03
Maxdispl :   0.1592   ||displ|| :   0.3494   Lambda : -0.601D-02
Largest |displ|/coords:  0.1592 (  19)  0.1244 (  14)  0.1213 (  18)
................................................................................
.............................. CYCLE    8 ......................................
................................................................................
   1    -50.7099658 -0.507100E+02  0.416E-01    8.95       0.0  T
   2    -50.7102557 -0.289819E-03  0.305E-01    8.93       1.0  T
   3    -50.7104064 -0.150780E-03  0.888E-02    8.89       1.0  T
   4    -50.7104354 -0.289239E-04  0.219E-02    8.88       1.0  T
   5    -50.7104363 -0.946382E-06  0.894E-03    8.88       2.2  T
   6    -50.7104364 -0.573442E-07  0.414E-03    8.88       4.7  T
   7    -50.7104364 -0.497906E-07  0.113E-03    8.88      17.4  T
speedup  1.03
cpu  time for SCC    0.01 s
wall time for SCC    0.01 s
speedup  0.99
cpu  time for grad    0.01 s
wall time for grad    0.02 s
 E :    -50.44302219  G :  0.045936    pred/act E change: -0.164D-02  0.780D-04
Maxdispl :   0.1451   ||displ|| :   0.2606   Lambda : -0.307D-02
Largest |displ|/coords:  0.1451 (   2)  0.1174 (  10)  0.0830 (  15)
................................................................................
.............................. CYCLE    9 ......................................
................................................................................
   1    -50.7123329 -0.507123E+02  0.240E-01    8.88       0.0  T
   2    -50.7123839 -0.510191E-04  0.179E-01    8.86       1.0  T
   3    -50.7124125 -0.285824E-04  0.400E-02    8.80       1.0  T
   4    -50.7124195 -0.707366E-05  0.781E-03    8.82       2.5  T
   5    -50.7124197 -0.117982E-06  0.388E-03    8.82       5.1  T
   6    -50.7124197 -0.176423E-07  0.193E-03    8.82      10.1  T
speedup  1.02
cpu  time for SCC    0.01 s
wall time for SCC    0.01 s
speedup  1.04
cpu  time for grad    0.01 s
wall time for grad    0.01 s
 E :    -50.44438842  G :  0.016402    pred/act E change: -0.337D-02 -0.137D-02
Maxdispl :   0.1471   ||displ|| :   0.3075   Lambda : -0.166D-02
Largest |displ|/coords:  0.1471 (   2)  0.1239 (   3)  0.0906 (   4)
................................................................................
.............................. CYCLE   10 ......................................
................................................................................
   1    -50.7037641 -0.507038E+02  0.267E-01    8.79       0.0  T
   2    -50.7038757 -0.111571E-03  0.198E-01    8.84       1.0  T
   3    -50.7039291 -0.533477E-04  0.553E-02    8.92       1.0  T
   4    -50.7039417 -0.126825E-04  0.109E-02    8.92       1.8  T
   5    -50.7039420 -0.268317E-06  0.495E-03    8.91       4.0  T
   6    -50.7039421 -0.359975E-07  0.257E-03    8.91       7.6  T
   7    -50.7039421 -0.918026E-08  0.538E-04    8.91      36.4  T
speedup  1.01
cpu  time for SCC    0.01 s
wall time for SCC    0.01 s
speedup  1.04
cpu  time for grad    0.02 s
wall time for grad    0.02 s
 E :    -50.44449370  G :  0.034975    pred/act E change: -0.164D-02 -0.105D-03
Maxdispl :   0.0930   ||displ|| :   0.1338   Lambda : -0.119D-02
Largest |displ|/coords:  0.0930 (   2)  0.0360 (   7)  0.0333 (   4)
................................................................................
.............................. CYCLE   11 ......................................
................................................................................
   1    -50.7097003 -0.507097E+02  0.116E-01    8.95       0.0  T
   2    -50.7097162 -0.158647E-04  0.860E-02    8.93       1.0  T
   3    -50.7097253 -0.906792E-05  0.213E-02    8.89       1.0  T
   4    -50.7097272 -0.191784E-05  0.582E-03    8.89       3.4  T
   5    -50.7097272 -0.563473E-07  0.222E-03    8.90       8.8  T
speedup  0.96
cpu  time for SCC    0.00 s
wall time for SCC    0.01 s
speedup  1.03
cpu  time for grad    0.01 s
wall time for grad    0.01 s
 E :    -50.44513056  G :  0.013198    pred/act E change: -0.911D-03 -0.637D-03
Maxdispl :   0.0715   ||displ|| :   0.1369   Lambda : -0.356D-03
Largest |displ|/coords:  0.0715 (   3)  0.0629 (   6)  0.0482 (  10)
................................................................................
.............................. CYCLE   12 ......................................
................................................................................
   1    -50.7103589 -0.507104E+02  0.736E-02    8.89       0.0  T
   2    -50.7103631 -0.418413E-05  0.551E-02    8.89       1.0  T
   3    -50.7103655 -0.234367E-05  0.998E-03    8.90       2.0  T
   4    -50.7103661 -0.636762E-06  0.361E-03    8.90       5.4  T
   5    -50.7103661 -0.146979E-07  0.981E-04    8.90      20.0  T
   6    -50.7103661 -0.101326E-08  0.540E-04    8.90      36.3  T
speedup  1.03
cpu  time for SCC    0.01 s
wall time for SCC    0.01 s
speedup  0.99
cpu  time for grad    0.01 s
wall time for grad    0.01 s
 E :    -50.44534521  G :  0.008769    pred/act E change: -0.605D-03 -0.215D-03
Maxdispl :   0.1406   ||displ|| :   0.3063   Lambda : -0.762D-03
Largest |displ|/coords:  0.1406 (   3)  0.1197 (   2)  0.0934 (  19)
................................................................................
.............................. CYCLE   13 ......................................
................................................................................
   1    -50.7127243 -0.507127E+02  0.173E-01    8.92       0.0  T
   2    -50.7127748 -0.505272E-04  0.127E-01    8.92       1.0  T
   3    -50.7127974 -0.225930E-04  0.346E-02    8.93       1.0  T
   4    -50.7128034 -0.592481E-05  0.937E-03    8.93       2.1  T
   5    -50.7128035 -0.141847E-06  0.322E-03    8.93       6.1  T
   6    -50.7128035 -0.139688E-07  0.169E-03    8.93      11.6  T
   7    -50.7128035 -0.429313E-08  0.530E-04    8.93      37.0  T
speedup  1.01
cpu  time for SCC    0.01 s
wall time for SCC    0.01 s
speedup  0.98
cpu  time for grad    0.01 s
wall time for grad    0.02 s
 E :    -50.44590265  G :  0.009400    pred/act E change: -0.181D-03 -0.557D-03
Maxdispl :   0.1614   ||displ|| :   0.3647   Lambda : -0.666D-03
Largest |displ|/coords:  0.1614 (   3)  0.1245 (  19)  0.1065 (   2)
................................................................................
.............................. CYCLE   14 ......................................
................................................................................
   1    -50.7121593 -0.507122E+02  0.213E-01    8.94       0.0  T
   2    -50.7122363 -0.769729E-04  0.157E-01    8.94       1.0  T
   3    -50.7122712 -0.349799E-04  0.441E-02    8.96       1.0  T
   4    -50.7122801 -0.885174E-05  0.114E-02    8.95       1.7  T
   5    -50.7122803 -0.208494E-06  0.405E-03    8.95       4.8  T
   6    -50.7122803 -0.254298E-07  0.218E-03    8.95       9.0  T
   7    -50.7122803 -0.657591E-08  0.646E-04    8.95      30.4  T
speedup  1.01
cpu  time for SCC    0.01 s
wall time for SCC    0.01 s
speedup  1.05
cpu  time for grad    0.02 s
wall time for grad    0.02 s
 E :    -50.44627165  G :  0.012251    pred/act E change: -0.417D-03 -0.369D-03
Maxdispl :   0.0554   ||displ|| :   0.1543   Lambda : -0.283D-03
Largest |displ|/coords:  0.0554 (  21)  0.0517 (  11)  0.0462 (  13)
................................................................................
.............................. CYCLE   15 ......................................
................................................................................
   1    -50.7131122 -0.507131E+02  0.872E-02    8.97       0.0  T
   2    -50.7131163 -0.417630E-05  0.654E-02    8.97       1.0  T
   3    -50.7131190 -0.268393E-05  0.106E-02    8.97       1.9  T
   4    -50.7131197 -0.660835E-06  0.353E-03    8.97       5.5  T
   5    -50.7131197 -0.123238E-07  0.110E-03    8.97      17.8  T
   6    -50.7131197 -0.145608E-08  0.606E-04    8.97      32.4  T
speedup  1.02
cpu  time for SCC    0.01 s
wall time for SCC    0.01 s
speedup  0.98
cpu  time for grad    0.01 s
wall time for grad    0.01 s
 E :    -50.44645805  G :  0.011767    pred/act E change: -0.377D-03 -0.186D-03
Maxdispl :   0.0693   ||displ|| :   0.1941   Lambda : -0.333D-03
Largest |displ|/coords:  0.0693 (   6)  0.0602 (   2)  0.0580 (  13)
................................................................................
.............................. CYCLE   16 ......................................
................................................................................
   1    -50.7158506 -0.507159E+02  0.984E-02    8.99       0.0  T
   2    -50.7158578 -0.720893E-05  0.731E-02    8.99       1.0  T
   3    -50.7158625 -0.470907E-05  0.149E-02    8.97       1.3  T
   4    -50.7158635 -0.989234E-06  0.371E-03    8.98       5.3  T
   5    -50.7158635 -0.195240E-07  0.167E-03    8.98      11.8  T
   6    -50.7158635 -0.398256E-08  0.741E-04    8.98      26.5  T
speedup  1.03
cpu  time for SCC    0.01 s
wall time for SCC    0.01 s
speedup  0.97
cpu  time for grad    0.01 s
wall time for grad    0.01 s
 E :    -50.44670664  G :  0.012173    pred/act E change: -0.145D-03 -0.249D-03
Maxdispl :   0.1597   ||displ|| :   0.4929   Lambda : -0.775D-03
Largest |displ|/coords:  0.1597 (   2)  0.1585 (  11)  0.1549 (  19)
................................................................................
.............................. CYCLE   17 ......................................
................................................................................
   1    -50.7172867 -0.507173E+02  0.293E-01    8.93       0.0  T
   2    -50.7173379 -0.512706E-04  0.220E-01    8.93       1.0  T
   3    -50.7173709 -0.329571E-04  0.398E-02    8.92       1.0  T
   4    -50.7173786 -0.767849E-05  0.106E-02    8.91       1.8  T
   5    -50.7173787 -0.170731E-06  0.474E-03    8.92       4.1  T
   6    -50.7173788 -0.246490E-07  0.237E-03    8.92       8.3  T
   7    -50.7173788 -0.110683E-07  0.560E-04    8.92      35.0  T
speedup  1.03
cpu  time for SCC    0.01 s
wall time for SCC    0.01 s
speedup  0.99
cpu  time for grad    0.01 s
wall time for grad    0.02 s
 E :    -50.44717748  G :  0.019059    pred/act E change: -0.173D-03 -0.471D-03
Maxdispl :   0.1925   ||displ|| :   0.4796   Lambda : -0.116D-02
Largest |displ|/coords:  0.1925 (   6)  0.1329 (   2)  0.1263 (  19)
................................................................................
.............................. CYCLE   18 ......................................
................................................................................
   1    -50.7179643 -0.507180E+02  0.296E-01    8.82       0.0  T
   2    -50.7180385 -0.742464E-04  0.221E-01    8.80       1.0  T
   3    -50.7180844 -0.458657E-04  0.480E-02    8.75       1.0  T
   4    -50.7180948 -0.104084E-04  0.118E-02    8.75       1.7  T
   5    -50.7180950 -0.193498E-06  0.534E-03    8.75       3.7  T
   6    -50.7180950 -0.314688E-07  0.257E-03    8.76       7.6  T
   7    -50.7180950 -0.120095E-07  0.569E-04    8.76      34.4  T
speedup  1.03
cpu  time for SCC    0.01 s
wall time for SCC    0.01 s
speedup  1.05
cpu  time for grad    0.02 s
wall time for grad    0.02 s
 E :    -50.44814300  G :  0.020960    pred/act E change: -0.482D-03 -0.966D-03
Maxdispl :   0.2214   ||displ|| :   0.5561   Lambda : -0.253D-02
Largest |displ|/coords:  0.2214 (   6)  0.1829 (  23)  0.1427 (   1)
................................................................................
.............................. CYCLE   19 ......................................
................................................................................
   1    -50.7290297 -0.507290E+02  0.384E-01    8.74       0.0  T
   2    -50.7292786 -0.248855E-03  0.284E-01    8.71       1.0  T
   3    -50.7294196 -0.140961E-03  0.851E-02    8.66       1.0  T
   4    -50.7294435 -0.239885E-04  0.225E-02    8.67       1.0  T
   5    -50.7294443 -0.785448E-06  0.789E-03    8.67       2.5  T
   6    -50.7294444 -0.387906E-07  0.408E-03    8.67       4.8  T
   7    -50.7294444 -0.219088E-07  0.832E-04    8.67      23.6  T
speedup  1.03
cpu  time for SCC    0.01 s
wall time for SCC    0.01 s
speedup  0.99
cpu  time for grad    0.01 s
wall time for grad    0.02 s
 E :    -50.44921298  G :  0.035985    pred/act E change: -0.714D-03 -0.107D-02
Maxdispl :   0.1367   ||displ|| :   0.4119   Lambda : -0.202D-02
Largest |displ|/coords:  0.1367 (   2)  0.1366 (  19)  0.1252 (   6)
................................................................................
.............................. CYCLE   20 ......................................
................................................................................
   1    -50.7236208 -0.507236E+02  0.272E-01    8.53       0.0  T
   2    -50.7236888 -0.679527E-04  0.203E-01    8.53       1.0  T
   3    -50.7237354 -0.466354E-04  0.461E-02    8.54       1.0  T
   4    -50.7237442 -0.882255E-05  0.125E-02    8.53       1.6  T
   5    -50.7237445 -0.286464E-06  0.534E-03    8.53       3.7  T
   6    -50.7237445 -0.335478E-07  0.262E-03    8.53       7.5  T
speedup  1.02
cpu  time for SCC    0.01 s
wall time for SCC    0.01 s
speedup  0.98
cpu  time for grad    0.01 s
wall time for grad    0.01 s
 E :    -50.44993562  G :  0.029817    pred/act E change: -0.166D-02 -0.723D-03
Maxdispl :   0.1769   ||displ|| :   0.4911   Lambda : -0.330D-02
Largest |displ|/coords:  0.1769 (   6)  0.1520 (   9)  0.1505 (  17)
................................................................................
.............................. CYCLE   21 ......................................
................................................................................
   1    -50.7296568 -0.507297E+02  0.350E-01    8.97       0.0  T
   2    -50.7297022 -0.454751E-04  0.258E-01    8.98       1.0  T
   3    -50.7297251 -0.228322E-04  0.504E-02    9.00       1.0  T
   4    -50.7297308 -0.571165E-05  0.119E-02    9.00       1.6  T
   5    -50.7297311 -0.261303E-06  0.414E-03    9.00       4.7  T
   6    -50.7297311 -0.103927E-07  0.229E-03    9.00       8.6  T
speedup  1.03
cpu  time for SCC    0.01 s
wall time for SCC    0.01 s
speedup  1.06
cpu  time for grad    0.01 s
wall time for grad    0.01 s
 E :    -50.45015540  G :  0.036396    pred/act E change: -0.118D-02 -0.220D-03
Maxdispl :   0.1048   ||displ|| :   0.2591   Lambda : -0.286D-02
Largest |displ|/coords:  0.1048 (   6)  0.0856 (   9)  0.0853 (  12)
................................................................................
.............................. CYCLE   22 ......................................
................................................................................
   1    -50.7297073 -0.507297E+02  0.209E-01    8.79       0.0  T
   2    -50.7297881 -0.807310E-04  0.152E-01    8.79       1.0  T
   3    -50.7298333 -0.452026E-04  0.481E-02    8.77       1.0  T
   4    -50.7298396 -0.630141E-05  0.118E-02    8.76       1.7  T
   5    -50.7298399 -0.335822E-06  0.478E-03    8.76       4.1  T
   6    -50.7298399 -0.154427E-07  0.221E-03    8.76       8.9  T
speedup  1.02
cpu  time for SCC    0.01 s
wall time for SCC    0.01 s
speedup  0.98
cpu  time for grad    0.01 s
wall time for grad    0.01 s
 E :    -50.45118157  G :  0.033502    pred/act E change: -0.205D-02 -0.103D-02
Maxdispl :   0.1013   ||displ|| :   0.3159   Lambda : -0.218D-02
Largest |displ|/coords:  0.1013 (   3)  0.0982 (   9)  0.0840 (  23)
................................................................................
.............................. CYCLE   23 ......................................
................................................................................
   1    -50.7385319 -0.507385E+02  0.237E-01    8.76       0.0  T
   2    -50.7385833 -0.514014E-04  0.178E-01    8.73       1.0  T
   3    -50.7386234 -0.401266E-04  0.414E-02    8.66       1.0  T
   4    -50.7386293 -0.585644E-05  0.132E-02    8.68       1.5  T
   5    -50.7386295 -0.280487E-06  0.452E-03    8.68       4.3  T
   6    -50.7386296 -0.180315E-07  0.240E-03    8.68       8.2  T
speedup  1.02
cpu  time for SCC    0.01 s
wall time for SCC    0.01 s
speedup  0.99
cpu  time for grad    0.01 s
wall time for grad    0.01 s
 E :    -50.45126281  G :  0.032061    pred/act E change: -0.153D-02 -0.812D-04
Maxdispl :   0.0633   ||displ|| :   0.1800   Lambda : -0.158D-02
Largest |displ|/coords:  0.0633 (  23)  0.0594 (  10)  0.0473 (  13)
................................................................................
.............................. CYCLE   24 ......................................
................................................................................
   1    -50.7325573 -0.507326E+02  0.130E-01    8.76       0.0  T
   2    -50.7325783 -0.209492E-04  0.964E-02    8.77       1.0  T
   3    -50.7325920 -0.136606E-04  0.268E-02    8.81       1.0  T
   4    -50.7325941 -0.211363E-05  0.836E-03    8.80       2.3  T
   5    -50.7325942 -0.139128E-06  0.264E-03    8.80       7.4  T
   6    -50.7325942 -0.698441E-08  0.150E-03    8.80      13.1  T
speedup  0.85
cpu  time for SCC    0.00 s
wall time for SCC    0.01 s
speedup  0.98
cpu  time for grad    0.01 s
wall time for grad    0.01 s
 E :    -50.45198020  G :  0.009243    pred/act E change: -0.120D-02 -0.717D-03
Maxdispl :   0.0757   ||displ|| :   0.1830   Lambda : -0.403D-03
Largest |displ|/coords:  0.0757 (   9)  0.0633 (   1)  0.0606 (   6)
................................................................................
.............................. CYCLE   25 ......................................
................................................................................
   1    -50.7322218 -0.507322E+02  0.132E-01    8.70       0.0  T
   2    -50.7322305 -0.875324E-05  0.984E-02    8.71       1.0  T
   3    -50.7322369 -0.631979E-05  0.183E-02    8.72       1.1  T
   4    -50.7322379 -0.108852E-05  0.544E-03    8.71       3.6  T
   5    -50.7322380 -0.427664E-07  0.192E-03    8.71      10.2  T
   6    -50.7322380 -0.423864E-08  0.101E-03    8.71      19.4  T
speedup  1.02
cpu  time for SCC    0.01 s
wall time for SCC    0.01 s
speedup  1.05
cpu  time for grad    0.01 s
wall time for grad    0.01 s
 E :    -50.45200361  G :  0.014768    pred/act E change: -0.817D-03 -0.234D-04
Maxdispl :   0.0525   ||displ|| :   0.0997   Lambda : -0.359D-03
Largest |displ|/coords:  0.0525 (   3)  0.0409 (   9)  0.0297 (   2)

generating ANC from model Hessian ...
 Shifting diagonal of input Hessian by   4.843398347368638E-003
 Lowest  eigenvalues of input Hessian
   -0.000000   -0.000000   -0.000000   -0.000000    0.000000    0.000000
    0.005000    0.005169    0.005374    0.005672    0.006266    0.006596
    0.007441    0.007593    0.008514    0.009070    0.009599    0.009604
 Highest eigenvalues
    1.378741    1.409727    1.427844    2.592501    3.470151    3.659906
 
cpu  time for ANC gen    0.02 s
wall time for ANC gen    0.02 s
................................................................................
.............................. CYCLE   26 ......................................
................................................................................
   1    -50.7334510 -0.507335E+02  0.575E-02    8.76       0.0  T
   2    -50.7334527 -0.170406E-05  0.432E-02    8.75       1.0  T
   3    -50.7334539 -0.123862E-05  0.879E-03    8.74       2.2  T
   4    -50.7334541 -0.202877E-06  0.271E-03    8.74       7.2  T
   5    -50.7334541 -0.127655E-07  0.789E-04    8.74      24.9  T
   6    -50.7334541 -0.630145E-09  0.409E-04    8.74      47.9  T
speedup  1.00
cpu  time for SCC    0.01 s
wall time for SCC    0.01 s
speedup  1.00
cpu  time for grad    0.01 s
wall time for grad    0.01 s
 E :    -50.45222521  G :  0.009630    pred/act E change:  0.000D+00 -0.222D-03
Maxdispl :   0.1310   ||displ|| :   0.2781   Lambda : -0.735D-03
Largest |displ|/coords:  0.1310 (   9)  0.1203 (   1)  0.0948 (   3)
................................................................................
.............................. CYCLE   27 ......................................
................................................................................
   1    -50.7320830 -0.507321E+02  0.232E-01    8.75       0.0  T
   2    -50.7320937 -0.107494E-04  0.176E-01    8.75       1.0  T
   3    -50.7321036 -0.983798E-05  0.183E-02    8.75       1.1  T
   4    -50.7321049 -0.134202E-05  0.551E-03    8.75       3.6  T
   5    -50.7321050 -0.460970E-07  0.260E-03    8.75       7.5  T
   6    -50.7321050 -0.529647E-08  0.117E-03    8.75      16.7  T
speedup  1.02
cpu  time for SCC    0.01 s
wall time for SCC    0.01 s
speedup  0.98
cpu  time for grad    0.01 s
wall time for grad    0.01 s
 E :    -50.45262036  G :  0.009379    pred/act E change:  0.000D+00 -0.395D-03
Maxdispl :   0.0996   ||displ|| :   0.2188   Lambda : -0.399D-03
Largest |displ|/coords:  0.0996 (  12)  0.0966 (   4)  0.0927 (   3)
................................................................................
.............................. CYCLE   28 ......................................
................................................................................
   1    -50.7310917 -0.507311E+02  0.179E-01    8.73       0.0  T
   2    -50.7310958 -0.409112E-05  0.135E-01    8.74       1.0  T
   3    -50.7311012 -0.534123E-05  0.104E-02    8.74       1.9  T
   4    -50.7311014 -0.201651E-06  0.404E-03    8.74       4.9  T
   5    -50.7311014 -0.162936E-07  0.159E-03    8.74      12.3  T
   6    -50.7311014 -0.292675E-08  0.672E-04    8.74      29.2  T
speedup  1.00
cpu  time for SCC    0.01 s
wall time for SCC    0.01 s
speedup  1.05
cpu  time for grad    0.01 s
wall time for grad    0.01 s
 E :    -50.45281566  G :  0.016099    pred/act E change: -0.396D-03 -0.195D-03
Maxdispl :   0.0890   ||displ|| :   0.1526   Lambda : -0.386D-03
Largest |displ|/coords:  0.0890 (   3)  0.0540 (   1)  0.0411 (  11)
................................................................................
.............................. CYCLE   29 ......................................
................................................................................
   1    -50.7338839 -0.507339E+02  0.103E-01    8.77       0.0  T
   2    -50.7338871 -0.322676E-05  0.771E-02    8.76       1.0  T
   3    -50.7338896 -0.249843E-05  0.106E-02    8.74       1.9  T
   4    -50.7338900 -0.406053E-06  0.219E-03    8.75       8.9  T
   5    -50.7338900 -0.500314E-08  0.121E-03    8.75      16.2  T
speedup  0.98
cpu  time for SCC    0.00 s
wall time for SCC    0.01 s
speedup  1.04
cpu  time for grad    0.01 s
wall time for grad    0.01 s
 E :    -50.45300779  G :  0.009039    pred/act E change: -0.209D-03 -0.192D-03
Maxdispl :   0.0988   ||displ|| :   0.1452   Lambda : -0.218D-03
Largest |displ|/coords:  0.0988 (   3)  0.0470 (   8)  0.0420 (  12)
................................................................................
.............................. CYCLE   30 ......................................
................................................................................
   1    -50.7347817 -0.507348E+02  0.101E-01    8.76       0.0  T
   2    -50.7347837 -0.200045E-05  0.764E-02    8.76       1.0  T
   3    -50.7347858 -0.200748E-05  0.771E-03    8.76       2.5  T
   4    -50.7347860 -0.205534E-06  0.225E-03    8.76       8.7  T
   5    -50.7347860 -0.563760E-08  0.101E-03    8.76      19.5  T
speedup  0.98
cpu  time for SCC    0.00 s
wall time for SCC    0.01 s
speedup  1.04
cpu  time for grad    0.01 s
wall time for grad    0.01 s
 E :    -50.45316483  G :  0.005176    pred/act E change: -0.197D-03 -0.157D-03
Maxdispl :   0.2137   ||displ|| :   0.3180   Lambda : -0.315D-03
Largest |displ|/coords:  0.2137 (   3)  0.0896 (   1)  0.0871 (  12)
................................................................................
.............................. CYCLE   31 ......................................
................................................................................
   1    -50.7333861 -0.507334E+02  0.222E-01    8.75       0.0  T
   2    -50.7333930 -0.689761E-05  0.167E-01    8.75       1.0  T
   3    -50.7334013 -0.835561E-05  0.156E-02    8.75       1.3  T
   4    -50.7334018 -0.497473E-06  0.527E-03    8.75       3.7  T
   5    -50.7334019 -0.363963E-07  0.228E-03    8.75       8.6  T
   6    -50.7334019 -0.821063E-08  0.104E-03    8.75      18.8  T
speedup  1.00
cpu  time for SCC    0.01 s
wall time for SCC    0.01 s
speedup  1.04
cpu  time for grad    0.01 s
wall time for grad    0.01 s
 E :    -50.45332990  G :  0.010052    pred/act E change: -0.111D-03 -0.165D-03
Maxdispl :   0.0786   ||displ|| :   0.1356   Lambda : -0.232D-03
Largest |displ|/coords:  0.0786 (   3)  0.0481 (  12)  0.0390 (  16)
................................................................................
.............................. CYCLE   32 ......................................
................................................................................
   1    -50.7356594 -0.507357E+02  0.779E-02    8.75       0.0  T
   2    -50.7356649 -0.544681E-05  0.578E-02    8.75       1.0  T
   3    -50.7356681 -0.320837E-05  0.136E-02    8.76       1.4  T
   4    -50.7356688 -0.656495E-06  0.352E-03    8.76       5.6  T
   5    -50.7356688 -0.274021E-07  0.138E-03    8.76      14.2  T
   6    -50.7356688 -0.204292E-08  0.685E-04    8.76      28.6  T
speedup  1.02
cpu  time for SCC    0.01 s
wall time for SCC    0.01 s
speedup  1.05
cpu  time for grad    0.01 s
wall time for grad    0.01 s
 E :    -50.45341096  G :  0.008163    pred/act E change: -0.173D-03 -0.811D-04
Maxdispl :   0.0914   ||displ|| :   0.1988   Lambda : -0.227D-03
Largest |displ|/coords:  0.0914 (   3)  0.0757 (   8)  0.0740 (   1)
................................................................................
.............................. CYCLE   33 ......................................
................................................................................
   1    -50.7352005 -0.507352E+02  0.149E-01    8.76       0.0  T
   2    -50.7352040 -0.348498E-05  0.112E-01    8.76       1.0  T
   3    -50.7352074 -0.345729E-05  0.108E-02    8.76       1.8  T
   4    -50.7352078 -0.367083E-06  0.342E-03    8.76       5.7  T
   5    -50.7352078 -0.142912E-07  0.134E-03    8.76      14.7  T
   6    -50.7352078 -0.269622E-08  0.572E-04    8.76      34.3  T
speedup  1.02
cpu  time for SCC    0.01 s
wall time for SCC    0.01 s
speedup  0.98
cpu  time for grad    0.01 s
wall time for grad    0.01 s
 E :    -50.45353122  G :  0.007043    pred/act E change: -0.118D-03 -0.120D-03
Maxdispl :   0.0690   ||displ|| :   0.1265   Lambda : -0.949D-04
Largest |displ|/coords:  0.0690 (   3)  0.0652 (  12)  0.0362 (  11)
................................................................................
.............................. CYCLE   34 ......................................
................................................................................
   1    -50.7345978 -0.507346E+02  0.880E-02    8.75       0.0  T
   2    -50.7345998 -0.204286E-05  0.663E-02    8.75       1.0  T
   3    -50.7346014 -0.156789E-05  0.790E-03    8.75       2.5  T
   4    -50.7346017 -0.312063E-06  0.263E-03    8.74       7.5  T
   5    -50.7346017 -0.959126E-08  0.941E-04    8.74      20.8  T
speedup  1.00
cpu  time for SCC    0.00 s
wall time for SCC    0.00 s
speedup  0.97
cpu  time for grad    0.01 s
wall time for grad    0.01 s
 E :    -50.45357559  G :  0.005749    pred/act E change: -0.118D-03 -0.444D-04
Maxdispl :   0.0457   ||displ|| :   0.0804   Lambda : -0.914D-04
Largest |displ|/coords:  0.0457 (   3)  0.0260 (   6)  0.0202 (   9)
................................................................................
.............................. CYCLE   35 ......................................
................................................................................
   1    -50.7359702 -0.507360E+02  0.455E-02    8.76       0.0  T
   2    -50.7359719 -0.168366E-05  0.340E-02    8.75       1.0  T
   3    -50.7359726 -0.760898E-06  0.722E-03    8.75       2.7  T
   4    -50.7359729 -0.257839E-06  0.193E-03    8.75      10.1  T
   5    -50.7359729 -0.627102E-08  0.530E-04    8.75      37.0  T
speedup  1.00
cpu  time for SCC    0.00 s
wall time for SCC    0.01 s
speedup  0.97
cpu  time for grad    0.01 s
wall time for grad    0.01 s
 E :    -50.45363397  G :  0.003568    pred/act E change: -0.482D-04 -0.584D-04
Maxdispl :   0.1452   ||displ|| :   0.2115   Lambda : -0.906D-04
Largest |displ|/coords:  0.1452 (   3)  0.0687 (   8)  0.0576 (  16)
................................................................................
.............................. CYCLE   36 ......................................
................................................................................
   1    -50.7351865 -0.507352E+02  0.128E-01    8.75       0.0  T
   2    -50.7351943 -0.784325E-05  0.961E-02    8.75       1.0  T
   3    -50.7351980 -0.361812E-05  0.162E-02    8.75       1.2  T
   4    -50.7351995 -0.149438E-05  0.452E-03    8.75       4.3  T
   5    -50.7351995 -0.240897E-07  0.151E-03    8.75      12.9  T
   6    -50.7351995 -0.315705E-08  0.749E-04    8.75      26.2  T
   7    -50.7351995 -0.861554E-09  0.257E-04    8.75      76.3  T
speedup  1.03
cpu  time for SCC    0.01 s
wall time for SCC    0.01 s
speedup  1.01
cpu  time for grad    0.02 s
wall time for grad    0.02 s
 E :    -50.45369922  G :  0.005675    pred/act E change: -0.460D-04 -0.652D-04
Maxdispl :   0.1850   ||displ|| :   0.2954   Lambda : -0.148D-03
Largest |displ|/coords:  0.1850 (   3)  0.0931 (  16)  0.0922 (   8)
................................................................................
.............................. CYCLE   37 ......................................
................................................................................
   1    -50.7351287 -0.507351E+02  0.178E-01    8.75       0.0  T
   2    -50.7351578 -0.291096E-04  0.132E-01    8.75       1.0  T
   3    -50.7351683 -0.104165E-04  0.304E-02    8.75       1.0  T
   4    -50.7351731 -0.479933E-05  0.769E-03    8.75       2.6  T
   5    -50.7351731 -0.768456E-07  0.234E-03    8.75       8.4  T
   6    -50.7351731 -0.726013E-08  0.116E-03    8.75      16.9  T
speedup  1.00
cpu  time for SCC    0.01 s
wall time for SCC    0.01 s
speedup  1.03
cpu  time for grad    0.01 s
wall time for grad    0.01 s
 E :    -50.45381745  G :  0.007323    pred/act E change: -0.473D-04 -0.118D-03
Maxdispl :   0.4126   ||displ|| :   0.6539   Lambda : -0.325D-03
Largest |displ|/coords:  0.4126 (   3)  0.2112 (  16)  0.1836 (   8)
................................................................................
.............................. CYCLE   38 ......................................
................................................................................
   1    -50.7311874 -0.507312E+02  0.397E-01    8.74       0.0  T
   2    -50.7313867 -0.199365E-03  0.295E-01    8.73       1.0  T
   3    -50.7314501 -0.633287E-04  0.777E-02    8.72       1.0  T
   4    -50.7314792 -0.291247E-04  0.182E-02    8.72       1.1  T
   5    -50.7314796 -0.424715E-06  0.578E-03    8.72       3.4  T
   6    -50.7314797 -0.540791E-07  0.266E-03    8.72       7.4  T
   7    -50.7314797 -0.113792E-07  0.101E-03    8.72      19.5  T
speedup  1.03
cpu  time for SCC    0.01 s
wall time for SCC    0.01 s
speedup  0.98
cpu  time for grad    0.01 s
wall time for grad    0.02 s
 E :    -50.45404899  G :  0.026118    pred/act E change: -0.803D-04 -0.232D-03
Maxdispl :   0.2088   ||displ|| :   0.4338   Lambda : -0.831D-03
Largest |displ|/coords:  0.2088 (   3)  0.1562 (  16)  0.1068 (   8)
................................................................................
.............................. CYCLE   39 ......................................
................................................................................
   1    -50.7335756 -0.507336E+02  0.286E-01    8.74       0.0  T
   2    -50.7337894 -0.213790E-03  0.208E-01    8.73       1.0  T
   3    -50.7338608 -0.713875E-04  0.750E-02    8.72       1.0  T
   4    -50.7338771 -0.163643E-04  0.159E-02    8.72       1.2  T
   5    -50.7338776 -0.431613E-06  0.493E-03    8.72       4.0  T
   6    -50.7338776 -0.356050E-07  0.214E-03    8.72       9.2  T
speedup  1.02
cpu  time for SCC    0.01 s
wall time for SCC    0.01 s
speedup  0.97
cpu  time for grad    0.01 s
wall time for grad    0.01 s
 E :    -50.45473973  G :  0.034553    pred/act E change: -0.232D-03 -0.691D-03
Maxdispl :   0.1748   ||displ|| :   0.4781   Lambda : -0.403D-02
Largest |displ|/coords:  0.1748 (  33)  0.1628 (  12)  0.1445 (   4)
................................................................................
.............................. CYCLE   40 ......................................
................................................................................
   1    -50.7595362 -0.507595E+02  0.396E-01    8.81       0.0  T
   2    -50.7600957 -0.559507E-03  0.283E-01    8.81       1.0  T
   3    -50.7603301 -0.234358E-03  0.113E-01    8.83       1.0  T
   4    -50.7603592 -0.291649E-04  0.273E-02    8.83       1.0  T
   5    -50.7603607 -0.144229E-05  0.875E-03    8.83       2.2  T
   6    -50.7603608 -0.961996E-07  0.421E-03    8.83       4.7  T
   7    -50.7603608 -0.315112E-07  0.119E-03    8.83      16.4  T
speedup  0.88
cpu  time for SCC    0.01 s
wall time for SCC    0.01 s
speedup  0.99
cpu  time for grad    0.01 s
wall time for grad    0.02 s
 E :    -50.45091652  G :  0.108536    pred/act E change: -0.493D-03  0.382D-02
Maxdispl :   0.1436   ||displ|| :   0.4414   Lambda : -0.238D-01
Largest |displ|/coords:  0.1436 (  27)  0.1376 (  33)  0.1253 (  26)
................................................................................
.............................. CYCLE   41 ......................................
................................................................................
   1    -50.7223734 -0.507224E+02  0.477E-01    8.75       0.0  T
   2    -50.7231520 -0.778616E-03  0.341E-01    8.74       1.0  T
   3    -50.7235075 -0.355550E-03  0.136E-01    8.73       1.0  T
   4    -50.7235564 -0.488241E-04  0.344E-02    8.73       1.0  T
   5    -50.7235592 -0.289083E-05  0.114E-02    8.73       1.7  T
   6    -50.7235594 -0.151174E-06  0.711E-03    8.73       2.8  T
   7    -50.7235595 -0.104692E-06  0.150E-03    8.73      13.1  T
   8    -50.7235595 -0.444398E-08  0.518E-04    8.73      37.9  T
speedup  1.03
cpu  time for SCC    0.01 s
wall time for SCC    0.01 s
speedup  1.05
cpu  time for grad    0.02 s
wall time for grad    0.02 s
 E :    -50.45018870  G :  0.085270    pred/act E change: -0.247D-02  0.728D-03
Maxdispl :   0.1043   ||displ|| :   0.3235   Lambda : -0.160D-01
Largest |displ|/coords:  0.1043 (  33)  0.1043 (  27)  0.0718 (  23)
................................................................................
.............................. CYCLE   42 ......................................
................................................................................
   1    -50.7467487 -0.507467E+02  0.361E-01    8.66       0.0  T
   2    -50.7470727 -0.324073E-03  0.265E-01    8.66       1.0  T
   3    -50.7472531 -0.180331E-03  0.919E-02    8.67       1.0  T
   4    -50.7472798 -0.266966E-04  0.256E-02    8.67       1.0  T
   5    -50.7472813 -0.155035E-05  0.934E-03    8.67       2.1  T
   6    -50.7472814 -0.530064E-07  0.422E-03    8.67       4.6  T
   7    -50.7472814 -0.369479E-07  0.102E-03    8.67      19.3  T
speedup  1.01
cpu  time for SCC    0.01 s
wall time for SCC    0.01 s
speedup  0.98
cpu  time for grad    0.01 s
wall time for grad    0.02 s
 E :    -50.45565131  G :  0.049341    pred/act E change: -0.142D-01 -0.546D-02
Maxdispl :   0.0558   ||displ|| :   0.1575   Lambda : -0.262D-02
Largest |displ|/coords:  0.0558 (  16)  0.0546 (  32)  0.0502 (  11)
................................................................................
.............................. CYCLE   43 ......................................
................................................................................
   1    -50.7439720 -0.507440E+02  0.141E-01    8.69       0.0  T
   2    -50.7439975 -0.254800E-04  0.105E-01    8.68       1.0  T
   3    -50.7440126 -0.150686E-04  0.281E-02    8.67       1.0  T
   4    -50.7440156 -0.303154E-05  0.714E-03    8.68       2.7  T
   5    -50.7440157 -0.107007E-06  0.279E-03    8.68       7.0  T
   6    -50.7440157 -0.755747E-08  0.135E-03    8.68      14.5  T
speedup  1.03
cpu  time for SCC    0.01 s
wall time for SCC    0.01 s
speedup  0.99
cpu  time for grad    0.01 s
wall time for grad    0.01 s
 E :    -50.45702733  G :  0.017760    pred/act E change: -0.883D-02 -0.138D-02
Maxdispl :   0.1267   ||displ|| :   0.2135   Lambda : -0.702D-03
Largest |displ|/coords:  0.1267 (   3)  0.0725 (  16)  0.0619 (   8)
................................................................................
.............................. CYCLE   44 ......................................
................................................................................
   1    -50.7416006 -0.507416E+02  0.116E-01    8.63       0.0  T
   2    -50.7416151 -0.145243E-04  0.861E-02    8.62       1.0  T
   3    -50.7416204 -0.527543E-05  0.215E-02    8.60       1.0  T
   4    -50.7416224 -0.197653E-05  0.537E-03    8.60       3.7  T
   5    -50.7416224 -0.594806E-07  0.179E-03    8.60      11.0  T
   6    -50.7416224 -0.582217E-08  0.886E-04    8.60      22.1  T
speedup  1.02
cpu  time for SCC    0.01 s
wall time for SCC    0.01 s
speedup  0.97
cpu  time for grad    0.01 s
wall time for grad    0.01 s
 E :    -50.45757054  G :  0.020702    pred/act E change: -0.134D-02 -0.543D-03
Maxdispl :   0.2202   ||displ|| :   0.4714   Lambda : -0.173D-02
Largest |displ|/coords:  0.2202 (  16)  0.1421 (   3)  0.1350 (   8)
................................................................................
.............................. CYCLE   45 ......................................
................................................................................
   1    -50.7462113 -0.507462E+02  0.253E-01    8.57       0.0  T
   2    -50.7463071 -0.958357E-04  0.187E-01    8.56       1.0  T
   3    -50.7463419 -0.347652E-04  0.542E-02    8.53       1.0  T
   4    -50.7463530 -0.111111E-04  0.112E-02    8.53       1.7  T
   5    -50.7463533 -0.318091E-06  0.375E-03    8.53       5.2  T
   6    -50.7463533 -0.188868E-07  0.186E-03    8.53      10.6  T
speedup  1.02
cpu  time for SCC    0.01 s
wall time for SCC    0.01 s
speedup  1.04
cpu  time for grad    0.01 s
wall time for grad    0.01 s
 E :    -50.45855453  G :  0.021190    pred/act E change: -0.367D-03 -0.984D-03
Maxdispl :   0.1225   ||displ|| :   0.3033   Lambda : -0.146D-02
Largest |displ|/coords:  0.1225 (  16)  0.1107 (   3)  0.0887 (   8)
................................................................................
.............................. CYCLE   46 ......................................
................................................................................
   1    -50.7438974 -0.507439E+02  0.156E-01    8.51       0.0  T
   2    -50.7439139 -0.165580E-04  0.113E-01    8.50       1.0  T
   3    -50.7439202 -0.626276E-05  0.263E-02    8.50       1.0  T
   4    -50.7439222 -0.200818E-05  0.552E-03    8.50       3.6  T
   5    -50.7439223 -0.614853E-07  0.211E-03    8.50       9.3  T
speedup  1.00
cpu  time for SCC    0.00 s
wall time for SCC    0.00 s
speedup  1.04
cpu  time for grad    0.01 s
wall time for grad    0.01 s
 E :    -50.45888655  G :  0.018273    pred/act E change: -0.106D-02 -0.332D-03
Maxdispl :   0.0915   ||displ|| :   0.1601   Lambda : -0.866D-03
Largest |displ|/coords:  0.0915 (   2)  0.0640 (   4)  0.0496 (   7)
................................................................................
.............................. CYCLE   47 ......................................
................................................................................
   1    -50.7485867 -0.507486E+02  0.915E-02    8.53       0.0  T
   2    -50.7485906 -0.388539E-05  0.679E-02    8.53       1.0  T
   3    -50.7485930 -0.237371E-05  0.121E-02    8.53       1.6  T
   4    -50.7485935 -0.471725E-06  0.451E-03    8.53       4.3  T
   5    -50.7485935 -0.322456E-07  0.121E-03    8.53      16.2  T
   6    -50.7485935 -0.170313E-08  0.625E-04    8.53      31.4  T
speedup  1.00
cpu  time for SCC    0.01 s
wall time for SCC    0.01 s
speedup  1.04
cpu  time for grad    0.01 s
wall time for grad    0.01 s
 E :    -50.45928857  G :  0.010925    pred/act E change: -0.795D-03 -0.402D-03
Maxdispl :   0.0705   ||displ|| :   0.1537   Lambda : -0.404D-03
Largest |displ|/coords:  0.0705 (   4)  0.0497 (   6)  0.0400 (  17)
................................................................................
.............................. CYCLE   48 ......................................
................................................................................
   1    -50.7508598 -0.507509E+02  0.105E-01    8.58       0.0  T
   2    -50.7508694 -0.955690E-05  0.786E-02    8.57       1.0  T
   3    -50.7508746 -0.524323E-05  0.172E-02    8.56       1.1  T
   4    -50.7508760 -0.135391E-05  0.451E-03    8.56       4.3  T
   5    -50.7508760 -0.450155E-07  0.174E-03    8.56      11.3  T
   6    -50.7508760 -0.251719E-08  0.845E-04    8.56      23.2  T
speedup  0.98
cpu  time for SCC    0.01 s
wall time for SCC    0.01 s
speedup  1.03
cpu  time for grad    0.01 s
wall time for grad    0.01 s
 E :    -50.45935880  G :  0.014837    pred/act E change: -0.444D-03 -0.702D-04
Maxdispl :   0.0287   ||displ|| :   0.0951   Lambda : -0.446D-03
Largest |displ|/coords:  0.0287 (  26)  0.0260 (   1)  0.0259 (   8)
................................................................................
.............................. CYCLE   49 ......................................
................................................................................
   1    -50.7500710 -0.507501E+02  0.682E-02    8.56       0.0  T
   2    -50.7500768 -0.577296E-05  0.488E-02    8.56       1.0  T
   3    -50.7500794 -0.253981E-05  0.142E-02    8.56       1.4  T
   4    -50.7500798 -0.425279E-06  0.307E-03    8.56       6.4  T
   5    -50.7500798 -0.262426E-07  0.988E-04    8.56      19.8  T
   6    -50.7500798 -0.145560E-08  0.489E-04    8.56      40.1  T
speedup  1.02
cpu  time for SCC    0.01 s
wall time for SCC    0.01 s
speedup  0.97
cpu  time for grad    0.01 s
wall time for grad    0.01 s
 E :    -50.45963867  G :  0.009194    pred/act E change: -0.207D-03 -0.280D-03
Maxdispl :   0.1036   ||displ|| :   0.2587   Lambda : -0.589D-03
Largest |displ|/coords:  0.1036 (   8)  0.0882 (   3)  0.0880 (  26)
................................................................................
.............................. CYCLE   50 ......................................
................................................................................
   1    -50.7468491 -0.507468E+02  0.153E-01    8.52       0.0  T
   2    -50.7468562 -0.710796E-05  0.113E-01    8.52       1.0  T
   3    -50.7468613 -0.511363E-05  0.205E-02    8.52       1.0  T
   4    -50.7468621 -0.814360E-06  0.473E-03    8.52       4.1  T
   5    -50.7468622 -0.485254E-07  0.162E-03    8.52      12.1  T
   6    -50.7468622 -0.210527E-08  0.845E-04    8.52      23.2  T
speedup  1.03
cpu  time for SCC    0.01 s
wall time for SCC    0.01 s
speedup  0.98
cpu  time for grad    0.01 s
wall time for grad    0.01 s
 E :    -50.45986928  G :  0.014627    pred/act E change: -0.225D-03 -0.231D-03
Maxdispl :   0.1084   ||displ|| :   0.2615   Lambda : -0.587D-03
Largest |displ|/coords:  0.1084 (   4)  0.0927 (   1)  0.0846 (   6)
................................................................................
.............................. CYCLE   51 ......................................
................................................................................
   1    -50.7460021 -0.507460E+02  0.138E-01    8.53       0.0  T
   2    -50.7460123 -0.102397E-04  0.102E-01    8.53       1.0  T
   3    -50.7460174 -0.507418E-05  0.212E-02    8.53       1.0  T
   4    -50.7460189 -0.154790E-05  0.536E-03    8.53       3.7  T
   5    -50.7460190 -0.521379E-07  0.200E-03    8.53       9.8  T
   6    -50.7460190 -0.511849E-08  0.997E-04    8.53      19.7  T
speedup  1.00
cpu  time for SCC    0.01 s
wall time for SCC    0.01 s
speedup  0.97
cpu  time for grad    0.01 s
wall time for grad    0.01 s
 E :    -50.46020218  G :  0.012017    pred/act E change: -0.314D-03 -0.333D-03
Maxdispl :   0.1089   ||displ|| :   0.2493   Lambda : -0.514D-03
Largest |displ|/coords:  0.1089 (   1)  0.1055 (   4)  0.0886 (  14)
................................................................................
.............................. CYCLE   52 ......................................
................................................................................
   1    -50.7536192 -0.507536E+02  0.101E-01    8.62       0.0  T
   2    -50.7536245 -0.522123E-05  0.751E-02    8.62       1.0  T
   3    -50.7536278 -0.337847E-05  0.148E-02    8.63       1.3  T
   4    -50.7536284 -0.599963E-06  0.567E-03    8.63       3.5  T
   5    -50.7536285 -0.447436E-07  0.133E-03    8.63      14.7  T
   6    -50.7536285 -0.186424E-08  0.800E-04    8.63      24.5  T
speedup  1.02
cpu  time for SCC    0.01 s
wall time for SCC    0.01 s
speedup  1.05
cpu  time for grad    0.01 s
wall time for grad    0.01 s
 E :    -50.46036840  G :  0.014115    pred/act E change: -0.314D-03 -0.166D-03
Maxdispl :   0.0891   ||displ|| :   0.2589   Lambda : -0.509D-03
Largest |displ|/coords:  0.0891 (   1)  0.0850 (  12)  0.0841 (   4)

generating ANC from model Hessian ...
 Shifting diagonal of input Hessian by   4.451454974458622E-003
 Lowest  eigenvalues of input Hessian
   -0.000000   -0.000000   -0.000000    0.000000    0.000000    0.000000
    0.005000    0.005190    0.006138    0.006526    0.007281    0.007391
    0.007680    0.008111    0.008616    0.009339    0.009894    0.011073
 Highest eigenvalues
    1.393558    1.405240    1.469584    2.575246    3.432036    3.681289
 
cpu  time for ANC gen    0.02 s
wall time for ANC gen    0.02 s
................................................................................
.............................. CYCLE   53 ......................................
................................................................................
   1    -50.7500285 -0.507500E+02  0.133E-01    8.57       0.0  T
   2    -50.7500333 -0.473817E-05  0.100E-01    8.57       1.0  T
   3    -50.7500377 -0.441755E-05  0.136E-02    8.56       1.4  T
   4    -50.7500382 -0.533995E-06  0.492E-03    8.56       4.0  T
   5    -50.7500382 -0.349820E-07  0.157E-03    8.56      12.5  T
   6    -50.7500383 -0.305355E-08  0.785E-04    8.56      25.0  T
   7    -50.7500383 -0.200234E-08  0.232E-04    8.56      84.7  T
speedup  1.03
cpu  time for SCC    0.01 s
wall time for SCC    0.01 s
speedup  1.01
cpu  time for grad    0.02 s
wall time for grad    0.02 s
 E :    -50.46055063  G :  0.010699    pred/act E change:  0.000D+00 -0.182D-03
Maxdispl :   0.1514   ||displ|| :   0.2219   Lambda : -0.607D-03
Largest |displ|/coords:  0.1514 (   8)  0.0961 (   7)  0.0691 (   1)
................................................................................
.............................. CYCLE   54 ......................................
................................................................................
   1    -50.7502238 -0.507502E+02  0.174E-01    8.56       0.0  T
   2    -50.7502288 -0.495969E-05  0.132E-01    8.56       1.0  T
   3    -50.7502343 -0.553340E-05  0.114E-02    8.56       1.7  T
   4    -50.7502347 -0.356943E-06  0.417E-03    8.56       4.7  T
   5    -50.7502347 -0.156114E-07  0.122E-03    8.56      16.1  T
   6    -50.7502347 -0.924366E-09  0.662E-04    8.56      29.6  T
speedup  0.85
cpu  time for SCC    0.00 s
wall time for SCC    0.01 s
speedup  0.98
cpu  time for grad    0.01 s
wall time for grad    0.01 s
 E :    -50.46076926  G :  0.007084    pred/act E change:  0.000D+00 -0.219D-03
Maxdispl :   0.0868   ||displ|| :   0.1724   Lambda : -0.384D-03
Largest |displ|/coords:  0.0868 (   8)  0.0698 (   7)  0.0610 (   1)
................................................................................
.............................. CYCLE   55 ......................................
................................................................................
   1    -50.7514717 -0.507515E+02  0.115E-01    8.58       0.0  T
   2    -50.7514746 -0.295989E-05  0.861E-02    8.58       1.0  T
   3    -50.7514769 -0.227737E-05  0.104E-02    8.58       1.9  T
   4    -50.7514773 -0.387002E-06  0.315E-03    8.58       6.2  T
   5    -50.7514773 -0.200966E-07  0.116E-03    8.58      16.8  T
   6    -50.7514773 -0.165127E-08  0.679E-04    8.58      28.9  T
speedup  1.00
cpu  time for SCC    0.01 s
wall time for SCC    0.01 s
speedup  1.04
cpu  time for grad    0.01 s
wall time for grad    0.01 s
 E :    -50.46094708  G :  0.004882    pred/act E change: -0.319D-03 -0.178D-03
Maxdispl :   0.0989   ||displ|| :   0.1652   Lambda : -0.222D-03
Largest |displ|/coords:  0.0989 (   8)  0.0728 (   7)  0.0527 (   1)
................................................................................
.............................. CYCLE   56 ......................................
................................................................................
   1    -50.7521106 -0.507521E+02  0.102E-01    8.57       0.0  T
   2    -50.7521122 -0.162115E-05  0.773E-02    8.57       1.0  T
   3    -50.7521142 -0.199131E-05  0.810E-03    8.57       2.4  T
   4    -50.7521143 -0.805943E-07  0.212E-03    8.57       9.2  T
   5    -50.7521143 -0.703465E-08  0.899E-04    8.57      21.8  T
speedup  1.00
cpu  time for SCC    0.00 s
wall time for SCC    0.01 s
speedup  0.97
cpu  time for grad    0.01 s
wall time for grad    0.01 s
 E :    -50.46106017  G :  0.005984    pred/act E change: -0.198D-03 -0.113D-03
Maxdispl :   0.1085   ||displ|| :   0.1658   Lambda : -0.141D-03
Largest |displ|/coords:  0.1085 (   8)  0.0605 (   1)  0.0495 (   9)
................................................................................
.............................. CYCLE   57 ......................................
................................................................................
   1    -50.7515958 -0.507516E+02  0.868E-02    8.57       0.0  T
   2    -50.7515971 -0.131868E-05  0.649E-02    8.57       1.0  T
   3    -50.7515986 -0.143379E-05  0.848E-03    8.58       2.3  T
   4    -50.7515987 -0.976944E-07  0.230E-03    8.57       8.5  T
   5    -50.7515987 -0.873038E-08  0.790E-04    8.57      24.8  T
speedup  1.02
cpu  time for SCC    0.00 s
wall time for SCC    0.00 s
speedup  0.97
cpu  time for grad    0.01 s
wall time for grad    0.01 s
 E :    -50.46116549  G :  0.004338    pred/act E change: -0.114D-03 -0.105D-03
Maxdispl :   0.1826   ||displ|| :   0.2708   Lambda : -0.159D-03
Largest |displ|/coords:  0.1826 (   8)  0.0922 (   1)  0.0871 (   9)
................................................................................
.............................. CYCLE   58 ......................................
................................................................................
   1    -50.7503281 -0.507503E+02  0.142E-01    8.54       0.0  T
   2    -50.7503316 -0.350471E-05  0.106E-01    8.54       1.0  T
   3    -50.7503355 -0.387085E-05  0.154E-02    8.55       1.3  T
   4    -50.7503357 -0.256217E-06  0.412E-03    8.55       4.8  T
   5    -50.7503358 -0.313531E-07  0.135E-03    8.55      14.5  T
   6    -50.7503358 -0.297107E-08  0.880E-04    8.55      22.3  T
speedup  0.98
cpu  time for SCC    0.01 s
wall time for SCC    0.01 s
speedup  0.97
cpu  time for grad    0.01 s
wall time for grad    0.01 s
 E :    -50.46125283  G :  0.004297    pred/act E change: -0.726D-04 -0.873D-04
Maxdispl :   0.0411   ||displ|| :   0.0810   Lambda : -0.433D-04
Largest |displ|/coords:  0.0411 (   8)  0.0385 (   9)  0.0243 (   2)
................................................................................
.............................. CYCLE   59 ......................................
................................................................................
   1    -50.7508827 -0.507509E+02  0.500E-02    8.55       0.0  T
   2    -50.7508832 -0.420018E-06  0.371E-02    8.55       1.0  T
   3    -50.7508836 -0.445490E-06  0.588E-03    8.55       3.3  T
   4    -50.7508836 -0.323561E-07  0.123E-03    8.55      16.0  T
   5    -50.7508836 -0.337963E-08  0.446E-04    8.55      44.0  T
speedup  1.00
cpu  time for SCC    0.00 s
wall time for SCC    0.01 s
speedup  0.96
cpu  time for grad    0.01 s
wall time for grad    0.01 s
 E :    -50.46128369  G :  0.003764    pred/act E change: -0.852D-04 -0.309D-04
Maxdispl :   0.0710   ||displ|| :   0.1351   Lambda : -0.635D-04
Largest |displ|/coords:  0.0710 (   8)  0.0587 (   9)  0.0483 (   3)
................................................................................
.............................. CYCLE   60 ......................................
................................................................................
   1    -50.7516974 -0.507517E+02  0.876E-02    8.55       0.0  T
   2    -50.7516988 -0.137542E-05  0.649E-02    8.55       1.0  T
   3    -50.7517001 -0.129700E-05  0.103E-02    8.55       1.9  T
   4    -50.7517002 -0.124338E-06  0.260E-03    8.55       7.6  T
   5    -50.7517002 -0.127926E-07  0.802E-04    8.55      24.5  T
   6    -50.7517002 -0.102005E-08  0.513E-04    8.55      38.2  T
speedup  0.69
cpu  time for SCC    0.00 s
wall time for SCC    0.01 s
speedup  0.88
cpu  time for grad    0.01 s
wall time for grad    0.01 s
 E :    -50.46132414  G :  0.002737    pred/act E change: -0.218D-04 -0.404D-04
Maxdispl :   0.0546   ||displ|| :   0.1036   Lambda : -0.410D-04
Largest |displ|/coords:  0.0546 (   9)  0.0521 (   3)  0.0385 (   8)
................................................................................
.............................. CYCLE   61 ......................................
................................................................................
   1    -50.7526695 -0.507527E+02  0.640E-02    8.57       0.0  T
   2    -50.7526704 -0.928436E-06  0.472E-02    8.57       1.0  T
   3    -50.7526712 -0.761255E-06  0.828E-03    8.57       2.4  T
   4    -50.7526713 -0.997126E-07  0.235E-03    8.57       8.4  T
   5    -50.7526713 -0.937547E-08  0.622E-04    8.57      31.5  T
   6    -50.7526713 -0.511122E-09  0.400E-04    8.57      49.0  T
speedup  1.02
cpu  time for SCC    0.01 s
wall time for SCC    0.01 s
speedup  1.01
cpu  time for grad    0.01 s
wall time for grad    0.01 s
 E :    -50.46135006  G :  0.002842    pred/act E change: -0.323D-04 -0.259D-04
Maxdispl :   0.0683   ||displ|| :   0.1280   Lambda : -0.341D-04
Largest |displ|/coords:  0.0683 (   3)  0.0670 (   8)  0.0610 (   9)
................................................................................
.............................. CYCLE   62 ......................................
................................................................................
   1    -50.7523195 -0.507523E+02  0.759E-02    8.58       0.0  T
   2    -50.7523208 -0.134147E-05  0.562E-02    8.58       1.0  T
   3    -50.7523218 -0.100158E-05  0.946E-03    8.58       2.1  T
   4    -50.7523220 -0.175877E-06  0.317E-03    8.58       6.2  T
   5    -50.7523220 -0.122416E-07  0.755E-04    8.58      26.0  T
   6    -50.7523220 -0.725457E-09  0.509E-04    8.58      38.5  T
speedup  1.03
cpu  time for SCC    0.01 s
wall time for SCC    0.01 s
speedup  1.01
cpu  time for grad    0.01 s
wall time for grad    0.01 s
 E :    -50.46137352  G :  0.002468    pred/act E change: -0.207D-04 -0.235D-04
Maxdispl :   0.0857   ||displ|| :   0.1515   Lambda : -0.453D-04
Largest |displ|/coords:  0.0857 (   3)  0.0812 (   9)  0.0514 (   1)
................................................................................
.............................. CYCLE   63 ......................................
................................................................................
   1    -50.7527695 -0.507528E+02  0.845E-02    8.61       0.0  T
   2    -50.7527715 -0.203606E-05  0.624E-02    8.62       1.0  T
   3    -50.7527727 -0.122474E-05  0.115E-02    8.62       1.7  T
   4    -50.7527730 -0.290334E-06  0.375E-03    8.62       5.2  T
   5    -50.7527730 -0.160128E-07  0.834E-04    8.62      23.5  T
   6    -50.7527730 -0.757346E-09  0.568E-04    8.62      34.5  T
speedup  1.00
cpu  time for SCC    0.01 s
wall time for SCC    0.01 s
speedup  1.05
cpu  time for grad    0.02 s
wall time for grad    0.02 s
 E :    -50.46140404  G :  0.002800    pred/act E change: -0.173D-04 -0.305D-04
Maxdispl :   0.0963   ||displ|| :   0.1710   Lambda : -0.440D-04
Largest |displ|/coords:  0.0963 (   9)  0.0788 (   3)  0.0660 (   8)
................................................................................
.............................. CYCLE   64 ......................................
................................................................................
   1    -50.7521886 -0.507522E+02  0.964E-02    8.62       0.0  T
   2    -50.7521911 -0.253167E-05  0.714E-02    8.62       1.0  T
   3    -50.7521929 -0.179155E-05  0.124E-02    8.63       1.6  T
   4    -50.7521933 -0.343046E-06  0.444E-03    8.63       4.4  T
   5    -50.7521933 -0.242241E-07  0.105E-03    8.63      18.6  T
   6    -50.7521933 -0.148925E-08  0.723E-04    8.63      27.1  T
   7    -50.7521933 -0.104711E-08  0.178E-04    8.63     110.4  T
speedup  1.03
cpu  time for SCC    0.01 s
wall time for SCC    0.01 s
speedup  1.00
cpu  time for grad    0.02 s
wall time for grad    0.02 s
 E :    -50.46143490  G :  0.003745    pred/act E change: -0.232D-04 -0.309D-04
Maxdispl :   0.1020   ||displ|| :   0.1735   Lambda : -0.518D-04
Largest |displ|/coords:  0.1020 (   1)  0.0817 (   9)  0.0512 (  10)
................................................................................
.............................. CYCLE   65 ......................................
................................................................................
   1    -50.7528781 -0.507529E+02  0.836E-02    8.64       0.0  T
   2    -50.7528800 -0.194584E-05  0.622E-02    8.65       1.0  T
   3    -50.7528814 -0.136147E-05  0.100E-02    8.65       2.0  T
   4    -50.7528816 -0.260908E-06  0.375E-03    8.65       5.2  T
[...]
   2    -50.7538606 -0.107059E-06  0.179E-02    8.67       1.1  T
   3    -50.7538606 -0.376813E-07  0.234E-03    8.67       8.4  T
   4    -50.7538606 -0.229537E-07  0.784E-04    8.67      25.0  T
   5    -50.7538606 -0.444913E-09  0.141E-04    8.67     138.9  T
speedup  1.00
cpu  time for SCC    0.00 s
wall time for SCC    0.01 s
speedup  1.00
cpu  time for grad    0.01 s
wall time for grad    0.01 s
 E :    -50.46182288  G :  0.000674    pred/act E change: -0.721D-06 -0.136D-05
Maxdispl :   0.0159   ||displ|| :   0.0358   Lambda : -0.237D-05
Largest |displ|/coords:  0.0159 (   1)  0.0142 (   2)  0.0113 (  38)
................................................................................
.............................. CYCLE  128 ......................................
................................................................................
   1    -50.7537816 -0.507538E+02  0.275E-02    8.67       0.0  T
   2    -50.7537817 -0.141207E-06  0.205E-02    8.67       1.0  T
   3    -50.7537818 -0.363463E-07  0.291E-03    8.67       6.7  T
   4    -50.7537818 -0.312275E-07  0.693E-04    8.67      28.3  T
   5    -50.7537818 -0.385846E-09  0.155E-04    8.67     126.3  T
speedup  1.00
cpu  time for SCC    0.00 s
wall time for SCC    0.01 s
speedup  0.99
cpu  time for grad    0.01 s
wall time for grad    0.01 s
 E :    -50.46182462  G :  0.000843    pred/act E change: -0.929D-06 -0.174D-05
Maxdispl :   0.0424   ||displ|| :   0.0627   Lambda : -0.314D-05
Largest |displ|/coords:  0.0424 (   1)  0.0269 (  11)  0.0149 (   2)
................................................................................
.............................. CYCLE  129 ......................................
................................................................................
   1    -50.7538084 -0.507538E+02  0.362E-02    8.67       0.0  T
   2    -50.7538086 -0.231129E-06  0.269E-02    8.67       1.0  T
   3    -50.7538087 -0.119793E-06  0.402E-03    8.66       4.9  T
   4    -50.7538088 -0.392127E-07  0.909E-04    8.66      21.6  T
   5    -50.7538088 -0.120594E-08  0.294E-04    8.66      66.8  T
speedup  1.00
cpu  time for SCC    0.00 s
wall time for SCC    0.00 s
speedup  1.00
cpu  time for grad    0.01 s
wall time for grad    0.01 s
 E :    -50.46182654  G :  0.000642    pred/act E change: -0.119D-05 -0.192D-05
Maxdispl :   0.0155   ||displ|| :   0.0307   Lambda : -0.260D-05
Largest |displ|/coords:  0.0155 (  38)  0.0115 (  37)  0.0094 (  33)
................................................................................
.............................. CYCLE  130 ......................................
................................................................................
   1    -50.7535067 -0.507535E+02  0.353E-02    8.66       0.0  T
   2    -50.7535070 -0.260603E-06  0.264E-02    8.66       1.0  T
   3    -50.7535071 -0.103299E-06  0.411E-03    8.66       4.8  T
   4    -50.7535071 -0.487988E-07  0.128E-03    8.66      15.3  T
   5    -50.7535071 -0.994639E-09  0.187E-04    8.66     104.9  T
   6    -50.7535071 -0.300133E-10  0.117E-04    8.66     167.1  T
speedup  1.03
cpu  time for SCC    0.01 s
wall time for SCC    0.01 s
speedup  1.01
cpu  time for grad    0.01 s
wall time for grad    0.01 s
 E :    -50.46182772  G :  0.001280    pred/act E change: -0.158D-05 -0.117D-05
Maxdispl :   0.0102   ||displ|| :   0.0221   Lambda : -0.249D-05
Largest |displ|/coords:  0.0102 (   1)  0.0100 (   4)  0.0090 (   2)
................................................................................
.............................. CYCLE  131 ......................................
................................................................................
   1    -50.7535721 -0.507536E+02  0.121E-02    8.66       0.0  T
   2    -50.7535721 -0.273481E-07  0.898E-03    8.66       2.2  T
   3    -50.7535721 -0.193608E-07  0.119E-03    8.66      16.5  T
   4    -50.7535721 -0.366764E-08  0.480E-04    8.66      40.9  T
   5    -50.7535721 -0.171397E-09  0.860E-05    8.66     228.2  T
speedup  0.80
cpu  time for SCC    0.00 s
wall time for SCC    0.00 s
speedup  0.99
cpu  time for grad    0.01 s
wall time for grad    0.01 s
 E :    -50.46182938  G :  0.000608    pred/act E change: -0.130D-05 -0.166D-05
Maxdispl :   0.0100   ||displ|| :   0.0239   Lambda : -0.212D-05
Largest |displ|/coords:  0.0100 (   2)  0.0082 (  38)  0.0081 (   4)
................................................................................
.............................. CYCLE  132 ......................................
................................................................................
   1    -50.7536632 -0.507537E+02  0.209E-02    8.66       0.0  T
   2    -50.7536632 -0.706542E-07  0.157E-02    8.66       1.3  T
   3    -50.7536633 -0.317140E-07  0.193E-03    8.66      10.1  T
   4    -50.7536633 -0.135119E-07  0.699E-04    8.66      28.0  T
   5    -50.7536633 -0.344556E-09  0.105E-04    8.66     186.5  T
speedup  1.00
cpu  time for SCC    0.00 s
wall time for SCC    0.00 s
speedup  0.99
cpu  time for grad    0.01 s
wall time for grad    0.01 s
 E :    -50.46183090  G :  0.000426    pred/act E change: -0.124D-05 -0.152D-05
Maxdispl :   0.0123   ||displ|| :   0.0299   Lambda : -0.159D-05
Largest |displ|/coords:  0.0123 (  38)  0.0099 (   2)  0.0096 (  37)
................................................................................
.............................. CYCLE  133 ......................................
................................................................................
   1    -50.7536768 -0.507537E+02  0.298E-02    8.66       0.0  T
   2    -50.7536770 -0.159518E-06  0.223E-02    8.66       1.0  T
   3    -50.7536771 -0.710830E-07  0.292E-03    8.66       6.7  T
   4    -50.7536771 -0.299934E-07  0.126E-03    8.66      15.6  T
   5    -50.7536771 -0.878771E-09  0.148E-04    8.66     132.3  T
   6    -50.7536771 -0.159304E-10  0.102E-04    8.66     192.7  T
speedup  1.02
cpu  time for SCC    0.01 s
wall time for SCC    0.01 s
speedup  1.01
cpu  time for grad    0.01 s
wall time for grad    0.01 s
 E :    -50.46183193  G :  0.000498    pred/act E change: -0.106D-05 -0.103D-05
Maxdispl :   0.0061   ||displ|| :   0.0142   Lambda : -0.633D-06
Largest |displ|/coords:  0.0061 (   2)  0.0052 (  38)  0.0041 (  37)
................................................................................
.............................. CYCLE  134 ......................................
................................................................................
   1    -50.7537267 -0.507537E+02  0.133E-02    8.66       0.0  T
   2    -50.7537268 -0.305935E-07  0.997E-03    8.66       2.0  T
   3    -50.7537268 -0.134925E-07  0.132E-03    8.66      14.9  T
   4    -50.7537268 -0.556348E-08  0.609E-04    8.66      32.2  T
   5    -50.7537268 -0.173145E-09  0.603E-05    8.66     325.1  T
speedup  1.00
cpu  time for SCC    0.01 s
wall time for SCC    0.01 s
speedup  1.00
cpu  time for grad    0.01 s
wall time for grad    0.01 s
 E :    -50.46183235  G :  0.000344    pred/act E change: -0.794D-06 -0.426D-06
Maxdispl :   0.0051   ||displ|| :   0.0126   Lambda : -0.365D-06
Largest |displ|/coords:  0.0051 (  38)  0.0041 (  37)  0.0038 (  33)
................................................................................
.............................. CYCLE  135 ......................................
................................................................................
   1    -50.7537348 -0.507537E+02  0.128E-02    8.66       0.0  T
   2    -50.7537348 -0.275667E-07  0.959E-03    8.66       2.0  T
   3    -50.7537348 -0.102596E-07  0.120E-03    8.66      16.4  T
   4    -50.7537348 -0.565548E-08  0.500E-04    8.66      39.3  T
   5    -50.7537348 -0.130733E-09  0.565E-05    8.66     347.3  T
speedup  1.00
cpu  time for SCC    0.00 s
wall time for SCC    0.01 s
speedup  1.00
cpu  time for grad    0.01 s
wall time for grad    0.01 s
 E :    -50.46183258  G :  0.000277    pred/act E change: -0.316D-06 -0.221D-06
Maxdispl :   0.0021   ||displ|| :   0.0036   Lambda : -0.172D-06
Largest |displ|/coords:  0.0021 (   3)  0.0012 (   5)  0.0010 (  15)
................................................................................
.............................. CYCLE  136 ......................................
................................................................................
   1    -50.7537609 -0.507538E+02  0.193E-03    8.66       0.0  T
   2    -50.7537609 -0.153585E-08  0.137E-03    8.66      14.3  T
   3    -50.7537609 -0.852602E-09  0.337E-04    8.66      58.3  T
   4    -50.7537609 -0.148198E-09  0.816E-05    8.66     240.2  T
speedup  1.22
cpu  time for SCC    0.00 s
wall time for SCC    0.00 s
speedup  1.06
cpu  time for grad    0.01 s
wall time for grad    0.01 s
 E :    -50.46183267  G :  0.000143    pred/act E change: -0.182D-06 -0.915D-07
Maxdispl :   0.0018   ||displ|| :   0.0049   Lambda : -0.816D-07
Largest |displ|/coords:  0.0018 (  38)  0.0016 (  33)  0.0013 (  37)

   *** GEOMETRY OPTIMIZATION CONVERGED AFTER 136 ITERATIONS ***

------------------------------------------------------------------------
 total energy gain (kcal):     -0.0481
------------------------------------------------------------------------
================
 final structure:
================
$coord
       -0.34376186118923        3.46644277462060       -1.51476328399010      S 
        1.33708748671702        2.92345493897441       -3.57766615830494      O 
       -2.20411041876828        1.52406439346993       -0.99042505938055      O 
        1.00151356802293        4.17869170337526        0.80564871384945      O 
       -1.91248953668196        5.89595009974764       -2.32064021166674      O 
       -0.78634725942177        6.78459601679968       -3.40787733601241      H 
       -0.30878881115342       -4.45490259417398        1.43239233657765      O 
        0.60763178304434       -6.00825548478345        1.27556356762349      H 
       -1.98348775551093       -2.97776421209822       -3.46370698193978      O 
       -1.83738031253305       -3.94395994643317       -1.91972237566053      H 
       -2.26278182503716       -1.24979641233281       -2.90423987559568      H 
        2.94270614558579       -1.95396634866874       -4.47348930216107      O 
        1.21999414491209       -2.63173246638610       -4.49612131618779      H 
        2.71893999176544       -0.16831714420118       -4.80868606531898      H 
        2.92203176204021       -0.72775900190258        0.32670243285632      O 
        3.29278630758736       -1.37411716732117       -1.40270130150549      H 
        2.39412331121807        0.99190396712138        0.02539364520173      H 
        0.89774232835315       -3.09216371359100        1.02387855382931      H 
       -3.60655948806927       -0.90042190961540        3.15915841468551      O 
       -1.29091608351255        0.30576457251087        4.31078293058334      H 
       -3.55009826838605        0.06198044269512        1.57446390750572      H 
       -2.99149991818150       -2.56751561010814        2.70187361259797      H 
        0.51018009642369        1.24400442266492        4.67029475502691      N 
        0.62914716147480        2.00860009834369        6.42347343403657      H 
        0.65669365205946        2.66108599376127        3.21993689424431      H 
        1.94764385593383        0.00413258753428        4.33047605020642      H 
$end
 
 Bond Distances (Angstroems)
 ---------------------------
S1-O2=1.4371         S1-O3=1.4500         S1-O4=1.4685         S1-O5=1.5887         O2-S1=1.4371         O3-S1=1.4500         
O4-S1=1.4685         O5-S1=1.5887         O5-H6=0.9525         H6-O5=0.9525         O7-H8=0.9580         O7-H18=0.9871        
H8-O7=0.9580         O9-H10=0.9669        O9-H11=0.9724        H10-O9=0.9669        H11-O9=0.9724        O12-H13=0.9797       
O12-H14=0.9687       H13-O12=0.9797       H14-O12=0.9687       O15-H16=0.9965       O15-H17=0.9652       H16-O15=0.9965       
H17-O15=0.9652       H18-O7=0.9871        O19-H21=0.9816       O19-H22=0.9710       H20-N23=1.0914       H21-O19=0.9816       
H22-O19=0.9710       N23-H20=1.0914       N23-H24=1.0141       N23-H25=1.0758       N23-H26=1.0205       H24-N23=1.0141       
H25-N23=1.0758       H26-N23=1.0205       
 N  H  Rav=1.0504 sigma=0.0337  Rmin=1.0141  Rmax=1.0914     4
 O  H  Rav=0.9727 sigma=0.0122  Rmin=0.9525  Rmax=0.9965    11
 S  O  Rav=1.4861 sigma=0.0603  Rmin=1.4371  Rmax=1.5887     4
 
 selected bond angles (degree)
 --------------------
O3-S1-O2=115.08                O4-S1-O2=112.73                O4-S1-O3=110.55                O5-S1-O2=106.34                
O5-S1-O3=105.68                O5-S1-O4=105.67                H6-O5-S1=103.58                H18-O7-H8=106.29               
H11-O9-H10=104.60              
 
 selected dihedral angles (degree)
 ---------------------------------
H6-O5-S1-O2=330.69            H6-O5-S1-O3=207.93            H6-O5-S1-O4= 90.71            
 
 CMA Distance (Angstroems)
 ---------------------------
R(CMA):  2.9300

========================================================================
 FINAL SINGLEPOINT CALCULATION ON OPTIMIZED GEOMETRY
========================================================================

 Ncao       : 65
 Nao        : 64
 Nshell     : 38
 Nel        : 80
 T(el)      :   300.0
 intcut     :    25.0
 scfconv/Eh :  0.100E-05
   qconv/e  :  0.100E-03
 intneglect :  0.100E-07
 broydamp   :      0.250
 iter      E             dE          RMSdq      gap      omega  full diag
   1    -50.7537609 -0.507538E+02  0.289E-05    8.66       0.0  T
   2    -50.7537609 -0.994760E-12  0.204E-05    8.66     959.0  T
   3    -50.7537609 -0.124345E-11  0.809E-06    8.66    2425.2  T
speedup  0.97
cpu  time for SCC    0.00 s
wall time for SCC    0.00 s

   *** convergence criteria satisfied after 3 iterations ***

          eigenvalues
 #    :          28         29         30         31         32         33         34         35
 occ. :        2.000      2.000      2.000      2.000      2.000      2.000      2.000      2.000
 eps  :       -13.393    -13.298    -12.689    -12.484    -12.416    -12.347    -12.278    -12.143
 #    :          36         37         38         39         40         41         42         43
 occ. :        2.000      2.000      2.000      2.000      2.000      0.000      0.000      0.000
 eps  :       -12.087    -12.043    -11.849    -11.458    -11.312     -2.650     -1.249     -0.733
 #    :          44         45         46         47         48         49         50         51
 occ. :        0.000      0.000      0.000      0.000      0.000      0.000      0.000      0.000
 eps  :         0.493      1.067      1.258      2.333      3.455      4.070      4.211      4.869


   #   Z            q   n(s)   n(p)   n(d)      C6AA      α(0)
   1  16 S      1.693  1.585  1.767  0.955    88.933    15.872
   2   8 O     -0.739  1.769  4.970  0.000    29.789     7.318
   3   8 O     -0.743  1.760  4.983  0.000    29.902     7.332
   4   8 O     -0.757  1.772  4.985  0.000    30.314     7.382
   5   8 O     -0.595  1.752  4.843  0.000    25.038     6.755
   6   1 H      0.346  0.654  0.000  0.000     0.590     1.203
   7   8 O     -0.635  1.750  4.886  0.000    26.053     6.889
   8   1 H      0.285  0.715  0.000  0.000     0.767     1.375
   9   8 O     -0.622  1.755  4.867  0.000    25.713     6.844
  10   1 H      0.303  0.697  0.000  0.000     0.712     1.325
  11   1 H      0.310  0.690  0.000  0.000     0.691     1.306
  12   8 O     -0.620  1.756  4.864  0.000    25.682     6.840
  13   1 H      0.321  0.679  0.000  0.000     0.661     1.278
  14   1 H      0.310  0.690  0.000  0.000     0.693     1.308
  15   8 O     -0.661  1.749  4.912  0.000    26.690     6.973
  16   1 H      0.340  0.660  0.000  0.000     0.613     1.230
  17   1 H      0.289  0.711  0.000  0.000     0.751     1.359
  18   1 H      0.335  0.665  0.000  0.000     0.625     1.242
  19   8 O     -0.595  1.751  4.844  0.000    25.056     6.756
  20   1 H      0.307  0.693  0.000  0.000     0.691     1.302
  21   1 H      0.340  0.660  0.000  0.000     0.614     1.231
  22   1 H      0.333  0.667  0.000  0.000     0.629     1.246
  23   7 N     -0.339  1.274  4.065  0.000    28.717     7.959
  24   1 H      0.231  0.769  0.000  0.000     0.960     1.535
  25   1 H      0.304  0.696  0.000  0.000     0.700     1.310
  26   1 H      0.259  0.741  0.000  0.000     0.848     1.442

 Mol. C6AA /au·bohr⁶  :       5453.673750
 Mol. C8AA /au·bohr⁸  :     118010.446405
 Mol. α(0) /au        :        106.610939

 
 Wiberg/Mayer (AO) data. WBOs > 0.1 written file <wbo>
 largest (>0.05) Wiberg bond orders for each atom
           total WBO             WBO to atom ...
     1  S   4.845    O    2 1.367    O    3 1.314    O    4 1.234    O    5 0.884
     2  O   1.715    S    1 1.367    O    3 0.110    O    4 0.105    O    5 0.080
     3  O   1.722    S    1 1.314    O    2 0.110    O    4 0.107    O    5 0.063
     4  O   1.738    S    1 1.234    H   25 0.129    O    3 0.107    O    2 0.105    O    5 0.068
     5  O   1.966    S    1 0.884    H    6 0.864    O    2 0.080    O    4 0.068    O    3 0.063
     6  H   0.880    O    5 0.864
     7  O   1.837    H    8 0.910    H   18 0.814
     8  H   0.919    O    7 0.910
     9  O   1.860    H   10 0.880    H   11 0.863    H   13 0.052
    10  H   0.908    O    9 0.880
    11  H   0.904    O    9 0.863
    12  O   1.893    H   14 0.878    H   13 0.843    H   16 0.088
    13  H   0.897    O   12 0.843    O    9 0.052
    14  H   0.904    O   12 0.878
    15  O   1.846    H   17 0.874    H   16 0.791    H   18 0.070
    16  H   0.884    O   15 0.791    O   12 0.088
    17  H   0.916    O   15 0.874
    18  H   0.888    O    7 0.814    O   15 0.070
    19  O   1.983    H   22 0.859    H   21 0.832    H   20 0.169    N   23 0.076
    20  H   0.905    N   23 0.732    O   19 0.169
    21  H   0.885    O   19 0.832
    22  H   0.889    O   19 0.859
    23  N   3.515    H   24 0.943    H   26 0.920    H   25 0.769    H   20 0.732    O   19 0.076
    24  H   0.947    N   23 0.943
    25  H   0.907    N   23 0.769    O    4 0.129
    26  H   0.933    N   23 0.920
 MOs/occ written to file <molden.input>
 
molecular dipole:
                 x           y           z       tot (Debye)
 q only:        0.331      -0.138       2.917
   full:        0.460       0.450       2.499       6.559
molecular quadrupole (traceless):
                xx          xy          yy          xz          yz          zz
 q only:      -10.960      -0.253       1.576       5.586      -2.616       9.384
  q+dip:      -13.858      -0.109       6.482       7.874      -6.446       7.376
   full:      -14.455      -0.453       7.386       7.801      -6.904       7.068

SCC energy    :     -50.7537609
rep           :       0.2915925
ES            :       0.2703435
AES           :      -0.0773380
AXC           :      -0.0077564
disp          :      -0.0203592
XB            :       0.0000000
fix           :       0.0000000
total E       :     -50.4618327
atomizationE  :       4.9921368     3132.61
(atE without considering molecular charge,
 total energy contains solvation terms)
H-L gap (eV)  :          8.6616
optimized geometry written to: xtbopt.xyz


------------------------------------------------------------------------
 * finished run on 2019/09/16 at 11:58:54.307     
------------------------------------------------------------------------
 total:
 * wall-time:     0 d,  0 h,  0 min,  4.327 sec
 *  cpu-time:     0 d,  0 h,  0 min,  4.301 sec
 * ratio c/w:     0.994 speedup
 SCF:
 * wall-time:     0 d,  0 h,  0 min,  0.506 sec
 *  cpu-time:     0 d,  0 h,  0 min,  0.502 sec
 * ratio c/w:     0.992 speedup
 ANC optimizer:
 * wall-time:     0 d,  0 h,  0 min,  3.766 sec
 *  cpu-time:     0 d,  0 h,  0 min,  3.746 sec
 * ratio c/w:     0.995 speedup

