      -----------------------------------------------------------      
     |                   =====================                   |     
     |                           x T B                           |     
     |                   =====================                   |     
     |                         S. Grimme                         |     
     |          Mulliken Center for Theoretical Chemistry        |     
     |                    University of Bonn                     |     
     |                 Version 6.0.1 (SAW181210)                 |     
      -----------------------------------------------------------      

   This program is distributed in the hope that it will be useful,
   but WITHOUT ANY WARRANTY; without even the implied warranty of
   MERCHANTABILITY or FITNESS FOR A PARTICULAR PURPOSE.
   
   FOR NON-COMMERCIAL, ACADEMIA USE ONLY.
   
   Cite this work as:
   S. Grimme, C. Bannwarth, P. Shushkov, J. Comput. Theory Chem., 2017,
   13, 1989-2009.
   C. Bannwarth, S. Ehlert and S. Grimme., ChemRxiv, 2018, preprint.
   http://doi.org/10.26434/chemrxiv.7246238.v1
   
   for sTDA-xTB:
   S. Grimme and C. Bannwarth, J. Chem. Phys., 2016, 145, 054103.
   
   in the mass-spec context:
   V. Asgeirsson, C. Bauer and S. Grimme, Chem. Sci., 2017, 8, 4879.
   
   if GBSA is used:
   P. Shushkov, F. März and S. Grimme, unpublished.
   
   for ANC optimizer:
   S. Grimme, unpublished.
   Rational Function algorithm used in ANCopt:
   F. Eckert, P. Pulay, H.-J. Werner, J. Comput. Chem., 1997, 18, 1473.
   
   with help from (in alphabetical order)
   C. Bannwarth, F. Bohle, G. Brandenburg, E. Caldeweyher, M. Checinski,
   S. Dohm, S. Ehlert, S. Ehrlich, F. März, H. Neugebauer, J. Pisarek,
   P. Pracht, P. Shushkov, and S. Spicher.
   
 * started run on 2019/09/16 at 12:52:19.079     
========================================================================
 # omp threads = 1
========================================================================
number of atoms            : 26
number of electrons        : 80
charge                     : 0
spin                       : .0
first test random number   : .8169

########################################################################
# WARNING! Please study the warnings concerning your input carefully
#  - XTBPATH is not set, using XTBHOME instead
#  - the use of '-opt' is discouraged, please use '--opt' next time
#  - the use of '-chrg' is discouraged, please use '--chrg' next time
#  - the use of '-uhf' is discouraged, please use '--uhf' next time
########################################################################

           ------------------------------------------------- 
          |                 G F N 2 - x T B                 |
          | Geometry, Frequencies, Noncovalent interactions |
          |            JCTC 2018 parametrisation            |
           ------------------------------------------------- 
      method parameters     
 k(s)        :  1.8500
 k(p)        :  2.2300
 k(d)        :  2.2300
 k(f)        :  2.0000
 kEN (H0ij)  : -2.0000
 D4 a1       :  0.5200
 D4 a2       :  5.0000
 D4 s6       :  1.0000
 D4 s8       :  2.7000
 D4 s9       :  5.0000
 alphaj      :  2.0000


            Z     q(EN)     CN     RAES       Cart. coordinates
     1  S   6.0    0.64    4.27    4.18     2.65243     1.05372    -3.44719
     2  O   6.0   -0.34    1.24    1.80     1.34597    -1.41902    -3.12031
     3  O   6.0   -0.31    1.21    1.80     0.81146     2.97281    -4.37242
     4  O   6.0   -0.31    1.23    1.80     3.71541     1.88741    -0.97674
     5  O   6.0   -0.25    2.08    1.84     4.70833     0.77750    -5.29367
     6  H   1.0    0.15    1.21    1.47     4.02430     0.24036    -6.88573
     7  O   6.0   -0.39    1.68    1.81    -2.77203     1.76209     1.96658
     8  H   1.0    0.17    0.95    1.42    -4.18111     1.84626     3.18772
     9  O   6.0   -0.29    2.00    1.83    -0.76921    -2.53970     1.53388
    10  H   1.0    0.17    1.10    1.44    -1.74835    -1.01596     1.71866
    11  H   1.0    0.17    1.03    1.43     0.06083    -2.38595    -0.07920
    12  O   6.0   -0.29    2.03    1.83    -3.59060    -2.41730    -3.92905
    13  H   1.0    0.15    0.97    1.43    -4.11193    -4.10369    -3.48303
    14  H   1.0    0.17    1.03    1.43    -1.77493    -2.42341    -3.79515
    15  O   6.0   -0.22    2.92    2.59    -3.67361     2.27750    -2.44478
    16  H   1.0    0.14    1.04    1.43    -4.11327     0.59721    -3.13264
    17  H   1.0    0.16    1.21    1.47    -3.46598     2.24195    -0.58854
    18  H   1.0    0.15    1.05    1.44    -2.18550     3.01577    -3.30036
    19  O   6.0   -0.22    2.92    2.59     1.51214     2.34194     3.35788
    20  H   1.0    0.16    1.07    1.44     2.60340     2.41461     1.84338
    21  H   1.0    0.16    1.20    1.47    -0.30214     2.31561     2.91326
    22  H   1.0    0.12    1.06    1.44     1.97563     0.92665     4.48644
    23  N   5.0   -0.22    3.04    1.93     2.40238    -2.03528     5.92030
    24  H   1.0    0.11    0.99    1.43     4.03613    -3.04879     5.79901
    25  H   1.0    0.12    1.02    1.43     1.25430    -2.72599     4.53614
    26  H   1.0    0.10    0.99    1.43     1.58595    -2.55632     7.58554

  Z AO/shell   Hii/eV     exponent
  1     Wed Apr 25 08:07:45 CEST 2018   EN: 2.200 GM2: 0.406  GM3: 0.0800  RAES: 1.40
     1s    -10.707211    1.230000
  7     Wed Apr 25 08:07:45 CEST 2018   EN: 3.040 GM2: 0.461  GM3:-0.0640  RAES: 1.90
     2s    -16.686243    2.339881
     2p    -12.523956    2.014332
  8     Wed Apr 25 08:07:45 CEST 2018   EN: 3.440 GM2: 0.452  GM3:-0.0517  RAES: 1.80
     2s    -20.229985    2.439742
     2p    -15.503117    2.137023
 16     Tue Apr 24 11:44:34 CEST 2018   EN: 2.580 GM2: 0.340  GM3:-0.0502  RAES: 3.10
     3s    -20.029654    1.981333
     3p    -11.377694    2.025643
     3d     -0.420282    1.702555
 no old-style atom pair restraining (fixing) potential

molecular fragmentation (1/2 indicates fragments):
11111122222222222222222222
# atoms in fragment 1/2:     6    20
 fragment masses (1/2) :       97.07      108.11
CMA distance (Bohr)    :   6.001
constraining FC (au)   :  0.0500
           ------------------------------------------------- 
          |        Self-Consistent Charge Iterations        |
           ------------------------------------------------- 

 Ncao       : 65
 Nao        : 64
 Nshell     : 38
 Nel        : 80
 T(el)      :   300.0
 intcut     :    25.0
 scfconv/Eh :  0.100E-05
   qconv/e  :  0.100E-03
 intneglect :  0.100E-07
 broydamp   :      0.250
 iter      E             dE          RMSdq      gap      omega  full diag
   1    -50.5878173 -0.505878E+02  0.702E+00   10.13       0.0  T
   2    -50.6372988 -0.494816E-01  0.505E+00    9.54       1.0  T
   3    -50.6745662 -0.372673E-01  0.133E+00    7.50       1.0  T
   4    -50.6799614 -0.539523E-02  0.557E-01    7.89       1.0  T
   5    -50.6806208 -0.659364E-03  0.304E-01    7.90       1.0  T
   6    -50.6810485 -0.427700E-03  0.136E-01    7.98       1.0  T
   7    -50.6811525 -0.104061E-03  0.511E-02    7.97       1.0  T
   8    -50.6811649 -0.124111E-04  0.318E-02    7.96       1.0  T
   9    -50.6811711 -0.615067E-05  0.112E-02    7.98       1.8  T
  10    -50.6811718 -0.769541E-06  0.217E-03    7.98       9.0  T
  11    -50.6811719 -0.139992E-07  0.121E-03    7.98      16.1  T
  12    -50.6811719 -0.598195E-08  0.533E-04    7.98      36.8  T
  13    -50.6811719 -0.180560E-08  0.143E-04    7.98     137.6  T
speedup  0.99
cpu  time for SCC    0.02 s
wall time for SCC    0.02 s

   *** convergence criteria satisfied after 13 iterations ***

          eigenvalues
 #    :          28         29         30         31         32         33         34         35
 occ. :        2.000      2.000      2.000      2.000      2.000      2.000      2.000      2.000
 eps  :       -12.883    -12.476    -12.152    -11.945    -11.837    -11.631    -11.229    -11.211
 #    :          36         37         38         39         40         41         42         43
 occ. :        2.000      2.000      2.000      2.000      2.000      0.000      0.000      0.000
 eps  :       -11.120    -10.993    -10.634    -10.489     -9.994     -2.013     -0.213      0.032
 #    :          44         45         46         47         48         49         50         51
 occ. :        0.000      0.000      0.000      0.000      0.000      0.000      0.000      0.000
 eps  :         0.522      1.037      1.254      2.484      3.593      3.802      4.234      5.246


   #   Z            q   n(s)   n(p)   n(d)      C6AA      α(0)
   1  16 S      1.622  1.582  1.825  0.971    90.569    16.017
   2   8 O     -0.769  1.777  4.992  0.000    30.664     7.424
   3   8 O     -0.761  1.775  4.986  0.000    30.425     7.395
   4   8 O     -0.730  1.763  4.966  0.000    29.532     7.286
   5   8 O     -0.546  1.722  4.825  0.000    23.912     6.601
   6   1 H      0.359  0.641  0.000  0.000     0.559     1.170
   7   8 O     -0.849  1.831  5.018  0.000    33.042     7.710
   8   1 H      0.212  0.788  0.000  0.000     1.060     1.617
   9   8 O     -0.683  1.761  4.922  0.000    27.252     7.046
  10   1 H      0.319  0.681  0.000  0.000     0.666     1.281
  11   1 H      0.295  0.705  0.000  0.000     0.737     1.348
  12   8 O     -0.610  1.731  4.879  0.000    25.435     6.807
  13   1 H      0.294  0.706  0.000  0.000     0.739     1.350
  14   1 H      0.333  0.667  0.000  0.000     0.629     1.246
  15   8 O     -0.455  1.655  4.799  0.000    21.887     6.318
  16   1 H      0.398  0.602  0.000  0.000     0.488     1.098
  17   1 H      0.405  0.595  0.000  0.000     0.470     1.073
  18   1 H      0.394  0.606  0.000  0.000     0.495     1.105
  19   8 O     -0.456  1.654  4.802  0.000    21.909     6.322
  20   1 H      0.400  0.600  0.000  0.000     0.484     1.093
  21   1 H      0.406  0.594  0.000  0.000     0.467     1.070
  22   1 H      0.383  0.617  0.000  0.000     0.518     1.130
  23   7 N     -0.461  1.386  4.076  0.000    32.158     8.422
  24   1 H      0.147  0.853  0.000  0.000     1.423     1.868
  25   1 H      0.209  0.791  0.000  0.000     1.064     1.616
  26   1 H      0.145  0.855  0.000  0.000     1.434     1.876

 Mol. C6AA /au·bohr⁶  :       5521.090619
 Mol. C8AA /au·bohr⁸  :     119498.382337
 Mol. α(0) /au        :        107.290621

 
 Wiberg/Mayer (AO) data. WBOs > 0.1 written file <wbo>
 largest (>0.05) Wiberg bond orders for each atom
           total WBO             WBO to atom ...
     1  S   4.896    O    4 1.317    O    3 1.278    O    2 1.268    O    5 0.992
     2  O   1.674    S    1 1.268    O    3 0.114    O    4 0.110    O    5 0.072
     3  O   1.683    S    1 1.278    O    2 0.114    O    4 0.112    H   18 0.077    O    5 0.071
     4  O   1.716    S    1 1.317    O    3 0.112    O    2 0.110    H   20 0.081    O    5 0.053
     5  O   2.044    S    1 0.992    H    6 0.847    O    2 0.072    O    3 0.071    O    4 0.053
     6  H   0.870    O    5 0.847
     7  O   1.617    H    8 0.947    H   17 0.201    H   21 0.191    H   10 0.097    O   15 0.062    O   19 0.060
     8  H   0.955    O    7 0.947
     9  O   1.800    H   11 0.875    H   10 0.799
    10  H   0.898    O    9 0.799    O    7 0.097
    11  H   0.913    O    9 0.875
    12  O   1.868    H   13 0.904    H   14 0.841    H   16 0.071
    13  H   0.913    O   12 0.904
    14  H   0.889    O   12 0.841
    15  O   2.286    H   16 0.764    H   18 0.760    H   17 0.630    O    7 0.062
    16  H   0.842    O   15 0.764    O   12 0.071
    17  H   0.836    O   15 0.630    O    7 0.201
    18  H   0.844    O   15 0.760    O    3 0.077
    19  O   2.286    H   22 0.758    H   20 0.750    H   21 0.638    O    7 0.060
    20  H   0.840    O   19 0.750    O    4 0.081
    21  H   0.835    O   19 0.638    O    7 0.191
    22  H   0.853    O   19 0.758    N   23 0.088
    23  N   3.017    H   26 0.975    H   24 0.974    H   25 0.919    H   22 0.088
    24  H   0.978    N   23 0.974
    25  H   0.957    N   23 0.919
    26  H   0.979    N   23 0.975
 MOs/occ written to file <molden.input>
 
molecular dipole:
                 x           y           z       tot (Debye)
 q only:       -0.615      -0.072       0.462
   full:       -0.178      -0.797      -0.009       2.076
molecular quadrupole (traceless):
                xx          xy          yy          xz          yz          zz
 q only:       -3.567      -3.376      -7.563       6.124       4.434      11.130
  q+dip:       -4.814      -3.807      -9.328      -0.871       2.169      14.143
   full:       -4.477      -3.932      -9.971      -1.432       2.226      14.448

SCC energy    :     -50.6811719
rep           :       0.2894989
ES            :       0.2897942
AES           :      -0.0718849
AXC           :      -0.0074223
disp          :      -0.0186187
XB            :       0.0000000
fix           :       0.0000000
total E       :     -50.3913869
atomizationE  :       4.9216911     3088.41
(atE without considering molecular charge,
 total energy contains solvation terms)
H-L gap (eV)  :          7.9809
           ------------------------------------------------- 
          |                 ===============                 |
          |                   A N C O P T                   |
          |                 ===============                 |
          |          Approximate Normal Coordinate          |
          |           Rational Function Optimizer           |
           ------------------------------------------------- 
dumping coords to <xtbopt.coord> and <xtbopt.log>
 optlevel               2
 Maxcycle             520
 Maxmicro              25
 Econv         1.000000000000000E-007
 Gconv         2.000000000000000E-004
 Maxdispl       1.00000000000000     
 Hlow          5.000000000000000E-003
 S6             20.0000000000000     
 Nvar               72

generating ANC from model Hessian ...
 Shifting diagonal of input Hessian by   4.937763356471023E-003
 Lowest  eigenvalues of input Hessian
   -0.000000   -0.000000   -0.000000   -0.000000   -0.000000    0.000000
    0.005000    0.005403    0.005573    0.006210    0.006909    0.007142
    0.007246    0.008314    0.009102    0.009938    0.011073    0.011322
 Highest eigenvalues
    1.556956    1.586067    1.586946    3.144771    3.216636    3.321004
 
cpu  time for ANC gen    0.02 s
wall time for ANC gen    0.02 s
................................................................................
.............................. CYCLE    1 ......................................
................................................................................
   1    -50.6811719 -0.506812E+02  0.764E-05    7.98       0.0  T
   2    -50.6811719 -0.128466E-10  0.588E-05    7.98     333.5  T
   3    -50.6811719 -0.128111E-10  0.283E-05    7.98     692.6  T
speedup  0.97
cpu  time for SCC    0.00 s
wall time for SCC    0.00 s
speedup  0.93
cpu  time for grad    0.01 s
wall time for grad    0.01 s
 E :    -50.39138685  G :  0.204469    pred/act E change:  0.000D+00  0.481D-07
Maxdispl :   0.1167   ||displ|| :   0.3244   Lambda : -0.318D-01
Largest |displ|/coords:  0.1167 (  22)  0.1124 (  54)  0.0953 (  29)
................................................................................
.............................. CYCLE    2 ......................................
................................................................................
   1    -50.6895391 -0.506895E+02  0.357E-01    8.13       0.0  T
   2    -50.6896994 -0.160264E-03  0.271E-01    8.18       1.0  T
   3    -50.6897711 -0.717484E-04  0.724E-02    8.28       1.0  T
   4    -50.6897909 -0.198159E-04  0.185E-02    8.26       1.1  T
   5    -50.6897918 -0.874342E-06  0.538E-03    8.25       3.6  T
   6    -50.6897918 -0.372420E-07  0.289E-03    8.25       6.8  T
speedup  1.00
cpu  time for SCC    0.01 s
wall time for SCC    0.01 s
speedup  0.99
cpu  time for grad    0.01 s
wall time for grad    0.01 s
 E :    -50.41618633  G :  0.124097    pred/act E change:  0.000D+00 -0.248D-01
Maxdispl :   0.1403   ||displ|| :   0.3473   Lambda : -0.155D-01
Largest |displ|/coords:  0.1403 (  22)  0.1074 (  29)  0.0882 (  21)
................................................................................
.............................. CYCLE    3 ......................................
................................................................................
   1    -50.6935111 -0.506935E+02  0.285E-01    8.35       0.0  T
   2    -50.6937117 -0.200567E-03  0.213E-01    8.41       1.0  T
   3    -50.6937940 -0.823401E-04  0.746E-02    8.52       1.0  T
   4    -50.6938087 -0.146605E-04  0.152E-02    8.50       1.3  T
   5    -50.6938092 -0.480306E-06  0.484E-03    8.49       4.1  T
   6    -50.6938092 -0.317604E-07  0.261E-03    8.49       7.5  T
speedup  1.02
cpu  time for SCC    0.01 s
wall time for SCC    0.01 s
speedup  1.06
cpu  time for grad    0.01 s
wall time for grad    0.01 s
 E :    -50.42852073  G :  0.077836    pred/act E change: -0.175D-01 -0.123D-01
Maxdispl :   0.1418   ||displ|| :   0.3699   Lambda : -0.783D-02
Largest |displ|/coords:  0.1418 (   7)  0.1357 (  22)  0.1216 (   9)
................................................................................
.............................. CYCLE    4 ......................................
................................................................................
   1    -50.6960730 -0.506961E+02  0.251E-01    8.58       0.0  T
   2    -50.6962725 -0.199489E-03  0.182E-01    8.65       1.0  T
   3    -50.6963553 -0.827635E-04  0.679E-02    8.72       1.0  T
   4    -50.6963653 -0.100462E-04  0.127E-02    8.71       1.5  T
   5    -50.6963656 -0.293620E-06  0.422E-03    8.71       4.6  T
   6    -50.6963656 -0.221608E-07  0.236E-03    8.71       8.3  T
speedup  1.00
cpu  time for SCC    0.01 s
wall time for SCC    0.01 s
speedup  0.99
cpu  time for grad    0.01 s
wall time for grad    0.01 s
 E :    -50.43478843  G :  0.050263    pred/act E change: -0.870D-02 -0.627D-02
Maxdispl :   0.1783   ||displ|| :   0.3468   Lambda : -0.417D-02
Largest |displ|/coords:  0.1783 (   6)  0.1322 (   9)  0.1139 (   7)
................................................................................
.............................. CYCLE    5 ......................................
................................................................................
   1    -50.6972634 -0.506973E+02  0.231E-01    8.70       0.0  T
   2    -50.6974010 -0.137631E-03  0.169E-01    8.74       1.0  T
   3    -50.6974579 -0.568639E-04  0.574E-02    8.79       1.0  T
   4    -50.6974674 -0.949085E-05  0.118E-02    8.79       1.7  T
   5    -50.6974677 -0.330779E-06  0.378E-03    8.79       5.2  T
   6    -50.6974677 -0.162312E-07  0.209E-03    8.79       9.4  T
speedup  0.98
cpu  time for SCC    0.01 s
wall time for SCC    0.01 s
speedup  0.98
cpu  time for grad    0.01 s
wall time for grad    0.01 s
 E :    -50.43820023  G :  0.035737    pred/act E change: -0.445D-02 -0.341D-02
Maxdispl :   0.2332   ||displ|| :   0.4904   Lambda : -0.521D-02
Largest |displ|/coords:  0.2332 (   6)  0.1934 (   7)  0.1793 (   9)
................................................................................
.............................. CYCLE    6 ......................................
................................................................................
   1    -50.7054671 -0.507055E+02  0.300E-01    8.73       0.0  T
   2    -50.7058517 -0.384594E-03  0.213E-01    8.78       1.0  T
   3    -50.7060170 -0.165368E-03  0.861E-02    8.87       1.0  T
   4    -50.7060303 -0.132767E-04  0.195E-02    8.88       1.0  T
   5    -50.7060312 -0.925811E-06  0.639E-03    8.88       3.1  T
   6    -50.7060313 -0.568421E-07  0.354E-03    8.88       5.5  T
   7    -50.7060313 -0.203005E-07  0.973E-04    8.88      20.1  T
speedup  1.03
cpu  time for SCC    0.01 s
wall time for SCC    0.01 s
speedup  1.04
cpu  time for grad    0.02 s
wall time for grad    0.02 s
 E :    -50.44127799  G :  0.025591    pred/act E change: -0.234D-02 -0.308D-02
Maxdispl :   0.2325   ||displ|| :   0.4979   Lambda : -0.336D-02
Largest |displ|/coords:  0.2325 (   6)  0.1692 (   3)  0.1415 (   7)
................................................................................
.............................. CYCLE    7 ......................................
................................................................................
   1    -50.6984328 -0.506984E+02  0.487E-01    8.83       0.0  T
   2    -50.6986852 -0.252386E-03  0.363E-01    8.86       1.0  T
   3    -50.6988003 -0.115135E-03  0.837E-02    8.93       1.0  T
   4    -50.6988361 -0.358134E-04  0.199E-02    8.93       1.0  T
   5    -50.6988369 -0.757156E-06  0.737E-03    8.93       2.7  T
   6    -50.6988370 -0.740475E-07  0.401E-03    8.93       4.9  T
   7    -50.6988370 -0.248870E-07  0.949E-04    8.93      20.7  T
speedup  1.01
cpu  time for SCC    0.01 s
wall time for SCC    0.01 s
speedup  0.99
cpu  time for grad    0.01 s
wall time for grad    0.02 s
 E :    -50.44109951  G :  0.057690    pred/act E change: -0.323D-02  0.178D-03
Maxdispl :   0.1824   ||displ|| :   0.3747   Lambda : -0.792D-02
Largest |displ|/coords:  0.1824 (   2)  0.1537 (  20)  0.1100 (  12)
................................................................................
.............................. CYCLE    8 ......................................
................................................................................
   1    -50.7106676 -0.507107E+02  0.525E-01    8.91       0.0  T
   2    -50.7108642 -0.196574E-03  0.394E-01    8.91       1.0  T
   3    -50.7109899 -0.125714E-03  0.773E-02    8.91       1.0  T
   4    -50.7110177 -0.277690E-04  0.197E-02    8.91       1.0  T
   5    -50.7110182 -0.526462E-06  0.865E-03    8.91       2.3  T
   6    -50.7110182 -0.598017E-07  0.382E-03    8.90       5.1  T
   7    -50.7110183 -0.284933E-07  0.935E-04    8.91      21.0  T
speedup  1.01
cpu  time for SCC    0.01 s
wall time for SCC    0.01 s
speedup  0.99
cpu  time for grad    0.01 s
wall time for grad    0.02 s
 E :    -50.44147582  G :  0.052077    pred/act E change: -0.210D-02 -0.376D-03
Maxdispl :   0.1266   ||displ|| :   0.2894   Lambda : -0.435D-02
Largest |displ|/coords:  0.1266 (  13)  0.0888 (   3)  0.0888 (   7)
................................................................................
.............................. CYCLE    9 ......................................
................................................................................
   1    -50.7091937 -0.507092E+02  0.358E-01    8.94       0.0  T
   2    -50.7092464 -0.527595E-04  0.270E-01    8.95       1.0  T
   3    -50.7092860 -0.395671E-04  0.391E-02    8.96       1.0  T
   4    -50.7092934 -0.741956E-05  0.986E-03    8.96       2.0  T
   5    -50.7092935 -0.851705E-07  0.461E-03    8.97       4.3  T
   6    -50.7092935 -0.345683E-07  0.176E-03    8.97      11.2  T
speedup  1.00
cpu  time for SCC    0.01 s
wall time for SCC    0.01 s
speedup  0.99
cpu  time for grad    0.01 s
wall time for grad    0.01 s
 E :    -50.44299799  G :  0.030196    pred/act E change: -0.452D-02 -0.152D-02
Maxdispl :   0.1334   ||displ|| :   0.3020   Lambda : -0.220D-02
Largest |displ|/coords:  0.1334 (  13)  0.0924 (  19)  0.0916 (  14)
................................................................................
.............................. CYCLE   10 ......................................
................................................................................
   1    -50.7023513 -0.507024E+02  0.301E-01    8.93       0.0  T
   2    -50.7024488 -0.975102E-04  0.223E-01    8.95       1.0  T
   3    -50.7024979 -0.490556E-04  0.534E-02    8.99       1.0  T
   4    -50.7025111 -0.132045E-04  0.112E-02    8.99       1.7  T
   5    -50.7025113 -0.229123E-06  0.495E-03    8.98       4.0  T
   6    -50.7025113 -0.415204E-07  0.260E-03    8.98       7.5  T
speedup  1.00
cpu  time for SCC    0.01 s
wall time for SCC    0.01 s
speedup  0.97
cpu  time for grad    0.01 s
wall time for grad    0.01 s
 E :    -50.44335273  G :  0.046026    pred/act E change: -0.236D-02 -0.355D-03
Maxdispl :   0.0670   ||displ|| :   0.1588   Lambda : -0.215D-02
Largest |displ|/coords:  0.0670 (  21)  0.0638 (   9)  0.0491 (   8)
................................................................................
.............................. CYCLE   11 ......................................
................................................................................
   1    -50.7096761 -0.507097E+02  0.188E-01    9.00       0.0  T
   2    -50.7097166 -0.404822E-04  0.140E-01    9.01       1.0  T
   3    -50.7097391 -0.225544E-04  0.344E-02    9.01       1.0  T
   4    -50.7097440 -0.490067E-05  0.841E-03    9.01       2.3  T
   5    -50.7097441 -0.107282E-06  0.320E-03    9.01       6.1  T
   6    -50.7097441 -0.861002E-08  0.156E-03    9.01      12.5  T
speedup  1.02
cpu  time for SCC    0.01 s
wall time for SCC    0.01 s
speedup  0.99
cpu  time for grad    0.01 s
wall time for grad    0.01 s
 E :    -50.44425695  G :  0.024466    pred/act E change: -0.120D-02 -0.904D-03
Maxdispl :   0.0932   ||displ|| :   0.2300   Lambda : -0.175D-02
Largest |displ|/coords:  0.0932 (   1)  0.0856 (  13)  0.0799 (  12)
................................................................................
.............................. CYCLE   12 ......................................
................................................................................
   1    -50.7133052 -0.507133E+02  0.254E-01    9.02       0.0  T
   2    -50.7133294 -0.241505E-04  0.192E-01    9.02       1.0  T
   3    -50.7133454 -0.159919E-04  0.271E-02    9.03       1.0  T
   4    -50.7133490 -0.362317E-05  0.104E-02    9.03       1.9  T
   5    -50.7133491 -0.157999E-06  0.317E-03    9.03       6.2  T
   6    -50.7133491 -0.813940E-08  0.167E-03    9.03      11.8  T
speedup  1.02
cpu  time for SCC    0.01 s
wall time for SCC    0.01 s
speedup  1.05
cpu  time for grad    0.01 s
wall time for grad    0.01 s
 E :    -50.44490745  G :  0.026875    pred/act E change: -0.110D-02 -0.650D-03
Maxdispl :   0.0818   ||displ|| :   0.2541   Lambda : -0.178D-02
Largest |displ|/coords:  0.0818 (   7)  0.0758 (   1)  0.0696 (   3)
................................................................................
.............................. CYCLE   13 ......................................
................................................................................
   1    -50.7162499 -0.507162E+02  0.181E-01    9.08       0.0  T
   2    -50.7162925 -0.425735E-04  0.135E-01    9.10       1.0  T
   3    -50.7163150 -0.225364E-04  0.343E-02    9.13       1.0  T
   4    -50.7163206 -0.553543E-05  0.955E-03    9.13       2.1  T
   5    -50.7163207 -0.116826E-06  0.360E-03    9.13       5.5  T
   6    -50.7163207 -0.118571E-07  0.178E-03    9.13      11.0  T
speedup  1.00
cpu  time for SCC    0.01 s
wall time for SCC    0.01 s
speedup  0.98
cpu  time for grad    0.01 s
wall time for grad    0.01 s
 E :    -50.44639300  G :  0.023983    pred/act E change: -0.920D-03 -0.149D-02
Maxdispl :   0.1718   ||displ|| :   0.6270   Lambda : -0.465D-02
Largest |displ|/coords:  0.1718 (   1)  0.1656 (  16)  0.1548 (  30)
................................................................................
.............................. CYCLE   14 ......................................
................................................................................
   1    -50.7150614 -0.507151E+02  0.515E-01    9.19       0.0  T
   2    -50.7153309 -0.269430E-03  0.383E-01    9.23       1.0  T
   3    -50.7155025 -0.171586E-03  0.916E-02    9.23       1.0  T
   4    -50.7155357 -0.332569E-04  0.267E-02    9.24       1.0  T
   5    -50.7155366 -0.907463E-06  0.105E-02    9.24       1.9  T
   6    -50.7155367 -0.101598E-06  0.513E-03    9.24       3.8  T
   7    -50.7155368 -0.350689E-07  0.115E-03    9.24      17.0  T
speedup  1.01
cpu  time for SCC    0.01 s
wall time for SCC    0.01 s
speedup  0.99
cpu  time for grad    0.01 s
wall time for grad    0.02 s
 E :    -50.44859052  G :  0.041688    pred/act E change: -0.946D-03 -0.220D-02
Maxdispl :   0.0983   ||displ|| :   0.2663   Lambda : -0.317D-02
Largest |displ|/coords:  0.0983 (   9)  0.0973 (  11)  0.0844 (  33)
................................................................................
.............................. CYCLE   15 ......................................
................................................................................
   1    -50.7281963 -0.507282E+02  0.216E-01    9.31       0.0  T
   2    -50.7282330 -0.367044E-04  0.160E-01    9.30       1.0  T
   3    -50.7282551 -0.220591E-04  0.328E-02    9.28       1.0  T
   4    -50.7282593 -0.428349E-05  0.119E-02    9.29       1.7  T
   5    -50.7282595 -0.164693E-06  0.342E-03    9.29       5.7  T
   6    -50.7282595 -0.107608E-07  0.184E-03    9.29      10.6  T
speedup  1.00
cpu  time for SCC    0.01 s
wall time for SCC    0.01 s
speedup  1.06
cpu  time for grad    0.01 s
wall time for grad    0.01 s
 E :    -50.44970978  G :  0.034005    pred/act E change: -0.324D-02 -0.112D-02
Maxdispl :   0.0674   ||displ|| :   0.2029   Lambda : -0.230D-02
Largest |displ|/coords:  0.0674 (  21)  0.0663 (  13)  0.0641 (   6)
................................................................................
.............................. CYCLE   16 ......................................
................................................................................
   1    -50.7279634 -0.507280E+02  0.173E-01    9.31       0.0  T
   2    -50.7279924 -0.290584E-04  0.128E-01    9.31       1.0  T
   3    -50.7280092 -0.168296E-04  0.290E-02    9.32       1.0  T
   4    -50.7280128 -0.352508E-05  0.913E-03    9.32       2.1  T
   5    -50.7280129 -0.118883E-06  0.295E-03    9.32       6.6  T
   6    -50.7280129 -0.132628E-07  0.146E-03    9.32      13.4  T
speedup  1.02
cpu  time for SCC    0.01 s
wall time for SCC    0.01 s
speedup  0.99
cpu  time for grad    0.01 s
wall time for grad    0.01 s
 E :    -50.45047974  G :  0.026167    pred/act E change: -0.170D-02 -0.770D-03
Maxdispl :   0.0728   ||displ|| :   0.2006   Lambda : -0.125D-02
Largest |displ|/coords:  0.0728 (   1)  0.0710 (  14)  0.0543 (  21)
................................................................................
.............................. CYCLE   17 ......................................
................................................................................
   1    -50.7307332 -0.507307E+02  0.164E-01    9.33       0.0  T
   2    -50.7307680 -0.347798E-04  0.122E-01    9.33       1.0  T
   3    -50.7307897 -0.217046E-04  0.327E-02    9.32       1.0  T
   4    -50.7307937 -0.400245E-05  0.905E-03    9.32       2.2  T
   5    -50.7307939 -0.131178E-06  0.362E-03    9.32       5.4  T
   6    -50.7307939 -0.113690E-07  0.165E-03    9.32      11.9  T
speedup  1.02
cpu  time for SCC    0.01 s
wall time for SCC    0.01 s
speedup  0.99
cpu  time for grad    0.01 s
wall time for grad    0.01 s
 E :    -50.45110996  G :  0.013664    pred/act E change: -0.120D-02 -0.630D-03
Maxdispl :   0.1110   ||displ|| :   0.1641   Lambda : -0.719D-03
Largest |displ|/coords:  0.1110 (   6)  0.0445 (   2)  0.0376 (  33)
................................................................................
.............................. CYCLE   18 ......................................
................................................................................
   1    -50.7301267 -0.507301E+02  0.113E-01    9.32       0.0  T
   2    -50.7301332 -0.657590E-05  0.847E-02    9.33       1.0  T
   3    -50.7301377 -0.447090E-05  0.143E-02    9.33       1.4  T
   4    -50.7301386 -0.861118E-06  0.590E-03    9.33       3.3  T
   5    -50.7301386 -0.508606E-07  0.157E-03    9.33      12.5  T
   6    -50.7301386 -0.328954E-08  0.891E-04    9.33      22.0  T
speedup  1.17
cpu  time for SCC    0.01 s
wall time for SCC    0.01 s
speedup  1.05
cpu  time for grad    0.01 s
wall time for grad    0.01 s
 E :    -50.45140437  G :  0.013123    pred/act E change: -0.651D-03 -0.294D-03
Maxdispl :   0.0625   ||displ|| :   0.1410   Lambda : -0.481D-03
Largest |displ|/coords:  0.0625 (   7)  0.0535 (   3)  0.0465 (   5)
................................................................................
.............................. CYCLE   19 ......................................
................................................................................
   1    -50.7312028 -0.507312E+02  0.811E-02    9.31       0.0  T
   2    -50.7312077 -0.488904E-05  0.605E-02    9.31       1.0  T
   3    -50.7312105 -0.280046E-05  0.128E-02    9.31       1.5  T
   4    -50.7312112 -0.648115E-06  0.510E-03    9.31       3.8  T
   5    -50.7312112 -0.256463E-07  0.122E-03    9.31      16.1  T
   6    -50.7312112 -0.232068E-08  0.672E-04    9.31      29.2  T
speedup  0.98
cpu  time for SCC    0.01 s
wall time for SCC    0.01 s
speedup  1.05
cpu  time for grad    0.01 s
wall time for grad    0.01 s
 E :    -50.45172870  G :  0.008207    pred/act E change: -0.369D-03 -0.324D-03
Maxdispl :   0.0926   ||displ|| :   0.2100   Lambda : -0.447D-03
Largest |displ|/coords:  0.0926 (   6)  0.0683 (   1)  0.0679 (   3)
................................................................................
.............................. CYCLE   20 ......................................
................................................................................
   1    -50.7325575 -0.507326E+02  0.113E-01    9.27       0.0  T
   2    -50.7325814 -0.238438E-04  0.829E-02    9.27       1.0  T
   3    -50.7325908 -0.946387E-05  0.264E-02    9.27       1.0  T
   4    -50.7325932 -0.232565E-05  0.678E-03    9.27       2.9  T
   5    -50.7325932 -0.697012E-07  0.194E-03    9.27      10.1  T
   6    -50.7325932 -0.491785E-08  0.104E-03    9.27      18.8  T
speedup  1.02
cpu  time for SCC    0.01 s
wall time for SCC    0.01 s
speedup  0.99
cpu  time for grad    0.01 s
wall time for grad    0.01 s
 E :    -50.45194719  G :  0.011709    pred/act E change: -0.245D-03 -0.218D-03
Maxdispl :   0.0897   ||displ|| :   0.1665   Lambda : -0.262D-03
Largest |displ|/coords:  0.0897 (   1)  0.0655 (   3)  0.0552 (   7)
................................................................................
.............................. CYCLE   21 ......................................
................................................................................
   1    -50.7316621 -0.507317E+02  0.858E-02    9.26       0.0  T
   2    -50.7316750 -0.129736E-04  0.627E-02    9.26       1.0  T
   3    -50.7316801 -0.507236E-05  0.195E-02    9.26       1.0  T
   4    -50.7316815 -0.135538E-05  0.510E-03    9.26       3.8  T
   5    -50.7316815 -0.306090E-07  0.149E-03    9.26      13.1  T
   6    -50.7316815 -0.297521E-08  0.815E-04    9.26      24.1  T
speedup  1.00
cpu  time for SCC    0.01 s
wall time for SCC    0.01 s
speedup  0.97
cpu  time for grad    0.01 s
wall time for grad    0.01 s
 E :    -50.45209401  G :  0.011819    pred/act E change: -0.234D-03 -0.147D-03
Maxdispl :   0.1184   ||displ|| :   0.2181   Lambda : -0.315D-03
Largest |displ|/coords:  0.1184 (   1)  0.1007 (   3)  0.0670 (  11)
................................................................................
.............................. CYCLE   22 ......................................
................................................................................
   1    -50.7297452 -0.507297E+02  0.955E-02    9.24       0.0  T
   2    -50.7297616 -0.164280E-04  0.693E-02    9.24       1.0  T
   3    -50.7297682 -0.651686E-05  0.225E-02    9.24       1.0  T
   4    -50.7297697 -0.158203E-05  0.601E-03    9.24       3.3  T
   5    -50.7297698 -0.491859E-07  0.152E-03    9.24      12.9  T
   6    -50.7297698 -0.287221E-08  0.891E-04    9.24      22.0  T
speedup  1.02
cpu  time for SCC    0.01 s
wall time for SCC    0.01 s
speedup  0.99
cpu  time for grad    0.01 s
wall time for grad    0.01 s
 E :    -50.45228072  G :  0.011879    pred/act E change: -0.134D-03 -0.187D-03
Maxdispl :   0.1848   ||displ|| :   0.3453   Lambda : -0.576D-03
Largest |displ|/coords:  0.1848 (   1)  0.1526 (   3)  0.1045 (  11)
................................................................................
.............................. CYCLE   23 ......................................
................................................................................
   1    -50.7304656 -0.507305E+02  0.185E-01    9.25       0.0  T
   2    -50.7305921 -0.126516E-03  0.133E-01    9.24       1.0  T
   3    -50.7306385 -0.463962E-04  0.564E-02    9.24       1.0  T
   4    -50.7306457 -0.713349E-05  0.116E-02    9.24       1.7  T
   5    -50.7306459 -0.243099E-06  0.384E-03    9.24       5.1  T
   6    -50.7306459 -0.169317E-07  0.189E-03    9.24      10.4  T
   7    -50.7306459 -0.756695E-08  0.559E-04    9.24      35.1  T
speedup  1.00
cpu  time for SCC    0.01 s
wall time for SCC    0.01 s
speedup  0.97
cpu  time for grad    0.01 s
wall time for grad    0.02 s
 E :    -50.45284520  G :  0.015808    pred/act E change: -0.165D-03 -0.564D-03
Maxdispl :   0.3680   ||displ|| :   0.8365   Lambda : -0.199D-02
Largest |displ|/coords:  0.3680 (   1)  0.3349 (   3)  0.2590 (  11)
................................................................................
.............................. CYCLE   24 ......................................
................................................................................
   1    -50.7347166 -0.507347E+02  0.513E-01    9.26       0.0  T
   2    -50.7357921 -0.107548E-02  0.364E-01    9.25       1.0  T
   3    -50.7362152 -0.423181E-03  0.155E-01    9.24       1.0  T
   4    -50.7362580 -0.427877E-04  0.308E-02    9.24       1.0  T
   5    -50.7362604 -0.232600E-05  0.125E-02    9.24       1.6  T
   6    -50.7362606 -0.217130E-06  0.512E-03    9.24       3.8  T
   7    -50.7362606 -0.651569E-07  0.153E-03    9.24      12.9  T
   8    -50.7362606 -0.467667E-08  0.519E-04    9.24      37.8  T
speedup  1.03
cpu  time for SCC    0.01 s
wall time for SCC    0.01 s
speedup  0.99
cpu  time for grad    0.02 s
wall time for grad    0.02 s
 E :    -50.45337348  G :  0.041527    pred/act E change: -0.322D-03 -0.528D-03
Maxdispl :   0.1463   ||displ|| :   0.2861   Lambda : -0.294D-02
Largest |displ|/coords:  0.1463 (  22)  0.0817 (   7)  0.0805 (  10)
................................................................................
.............................. CYCLE   25 ......................................
................................................................................
   1    -50.7353644 -0.507354E+02  0.218E-01    9.26       0.0  T
   2    -50.7355625 -0.198118E-03  0.152E-01    9.27       1.0  T
   3    -50.7356313 -0.688377E-04  0.624E-02    9.27       1.0  T
   4    -50.7356378 -0.643939E-05  0.115E-02    9.27       1.7  T
   5    -50.7356381 -0.382166E-06  0.321E-03    9.27       6.1  T
   6    -50.7356382 -0.152832E-07  0.191E-03    9.27      10.3  T
speedup  1.02
cpu  time for SCC    0.01 s
wall time for SCC    0.01 s
speedup  0.99
cpu  time for grad    0.01 s
wall time for grad    0.01 s
 E :    -50.45361310  G :  0.034172    pred/act E change: -0.169D-02 -0.240D-03
Maxdispl :   0.3547   ||displ|| :   0.5064   Lambda : -0.198D-02
Largest |displ|/coords:  0.3547 (   1)  0.1630 (   3)  0.1361 (   5)

generating ANC from model Hessian ...
 Shifting diagonal of input Hessian by   4.587957741015712E-003
 Lowest  eigenvalues of input Hessian
   -0.000000    0.000000    0.000000    0.000000    0.000000    0.000000
    0.005000    0.005231    0.005242    0.005963    0.006784    0.007206
    0.007849    0.008274    0.009232    0.010333    0.011752    0.012739
 Highest eigenvalues
    1.389187    1.398918    1.414355    2.587622    3.455626    3.648094
 
cpu  time for ANC gen    0.02 s
wall time for ANC gen    0.02 s
................................................................................
.............................. CYCLE   26 ......................................
................................................................................
   1    -50.7284270 -0.507284E+02  0.210E-01    9.14       0.0  T
   2    -50.7284503 -0.233437E-04  0.155E-01    9.15       1.0  T
   3    -50.7284630 -0.126523E-04  0.279E-02    9.15       1.0  T
   4    -50.7284656 -0.266582E-05  0.111E-02    9.15       1.8  T
   5    -50.7284657 -0.113746E-06  0.243E-03    9.15       8.1  T
   6    -50.7284658 -0.108812E-07  0.132E-03    9.15      14.8  T
   7    -50.7284658 -0.340681E-08  0.485E-04    9.15      40.4  T
   8    -50.7284658 -0.424059E-09  0.133E-04    9.15     147.1  T
speedup  1.03
cpu  time for SCC    0.01 s
wall time for SCC    0.01 s
speedup  1.02
cpu  time for grad    0.02 s
wall time for grad    0.02 s
 E :    -50.45329040  G :  0.031315    pred/act E change:  0.000D+00  0.323D-03
Maxdispl :   0.0754   ||displ|| :   0.2034   Lambda : -0.233D-02
Largest |displ|/coords:  0.0754 (   6)  0.0643 (  22)  0.0570 (   1)
................................................................................
.............................. CYCLE   27 ......................................
................................................................................
   1    -50.7343888 -0.507344E+02  0.167E-01    9.19       0.0  T
   2    -50.7344096 -0.207822E-04  0.124E-01    9.20       1.0  T
   3    -50.7344196 -0.996512E-05  0.296E-02    9.20       1.0  T
   4    -50.7344220 -0.241160E-05  0.722E-03    9.20       2.7  T
   5    -50.7344221 -0.155125E-06  0.232E-03    9.20       8.4  T
   6    -50.7344221 -0.500106E-08  0.129E-03    9.20      15.2  T
speedup  1.02
cpu  time for SCC    0.01 s
wall time for SCC    0.01 s
speedup  1.06
cpu  time for grad    0.01 s
wall time for grad    0.01 s
 E :    -50.45483136  G :  0.018075    pred/act E change:  0.000D+00 -0.154D-02
Maxdispl :   0.1597   ||displ|| :   0.2871   Lambda : -0.154D-02
Largest |displ|/coords:  0.1597 (   8)  0.0917 (   4)  0.0792 (   9)
................................................................................
.............................. CYCLE   28 ......................................
................................................................................
   1    -50.7387010 -0.507387E+02  0.185E-01    9.26       0.0  T
   2    -50.7387369 -0.358403E-04  0.134E-01    9.26       1.0  T
   3    -50.7387523 -0.154577E-04  0.324E-02    9.27       1.0  T
   4    -50.7387557 -0.331088E-05  0.728E-03    9.27       2.7  T
   5    -50.7387558 -0.115373E-06  0.250E-03    9.27       7.8  T
   6    -50.7387558 -0.733628E-08  0.128E-03    9.27      15.4  T
speedup  1.00
cpu  time for SCC    0.01 s
wall time for SCC    0.01 s
speedup  0.98
cpu  time for grad    0.01 s
wall time for grad    0.01 s
 E :    -50.45582195  G :  0.014196    pred/act E change: -0.121D-02 -0.991D-03
Maxdispl :   0.1315   ||displ|| :   0.2779   Lambda : -0.839D-03
Largest |displ|/coords:  0.1315 (   4)  0.1235 (   8)  0.1128 (   3)
................................................................................
.............................. CYCLE   29 ......................................
................................................................................
   1    -50.7385839 -0.507386E+02  0.148E-01    9.29       0.0  T
   2    -50.7386159 -0.319866E-04  0.106E-01    9.29       1.0  T
   3    -50.7386276 -0.116817E-04  0.302E-02    9.29       1.0  T
   4    -50.7386304 -0.282658E-05  0.647E-03    9.29       3.0  T
   5    -50.7386305 -0.912409E-07  0.221E-03    9.29       8.9  T
   6    -50.7386305 -0.697784E-08  0.116E-03    9.29      16.9  T
speedup  1.02
cpu  time for SCC    0.01 s
wall time for SCC    0.01 s
speedup  0.98
cpu  time for grad    0.01 s
wall time for grad    0.01 s
 E :    -50.45649029  G :  0.014012    pred/act E change: -0.836D-03 -0.668D-03
Maxdispl :   0.2278   ||displ|| :   0.4691   Lambda : -0.130D-02
Largest |displ|/coords:  0.2278 (   3)  0.2147 (   4)  0.2007 (   8)
................................................................................
.............................. CYCLE   30 ......................................
................................................................................
   1    -50.7381003 -0.507381E+02  0.218E-01    9.31       0.0  T
   2    -50.7381753 -0.749915E-04  0.156E-01    9.31       1.0  T
   3    -50.7382015 -0.262714E-04  0.453E-02    9.30       1.0  T
   4    -50.7382078 -0.621694E-05  0.999E-03    9.30       2.0  T
   5    -50.7382080 -0.207051E-06  0.314E-03    9.30       6.2  T
   6    -50.7382080 -0.148490E-07  0.170E-03    9.30      11.5  T
   7    -50.7382080 -0.680950E-08  0.655E-04    9.30      29.9  T
speedup  1.01
cpu  time for SCC    0.01 s
wall time for SCC    0.01 s
speedup  0.99
cpu  time for grad    0.01 s
wall time for grad    0.02 s
 E :    -50.45747677  G :  0.015773    pred/act E change: -0.452D-03 -0.986D-03
Maxdispl :   0.2623   ||displ|| :   0.4995   Lambda : -0.129D-02
Largest |displ|/coords:  0.2623 (   4)  0.2622 (   3)  0.1532 (   8)
................................................................................
.............................. CYCLE   31 ......................................
................................................................................
   1    -50.7385000 -0.507385E+02  0.209E-01    9.29       0.0  T
   2    -50.7385506 -0.505876E-04  0.151E-01    9.28       1.0  T
   3    -50.7385695 -0.188807E-04  0.398E-02    9.28       1.0  T
   4    -50.7385748 -0.526467E-05  0.100E-02    9.28       2.0  T
   5    -50.7385749 -0.177323E-06  0.289E-03    9.28       6.8  T
   6    -50.7385750 -0.116787E-07  0.157E-03    9.28      12.5  T
speedup  0.82
cpu  time for SCC    0.00 s
wall time for SCC    0.01 s
speedup  0.90
cpu  time for grad    0.01 s
wall time for grad    0.01 s
 E :    -50.45841627  G :  0.017528    pred/act E change: -0.791D-03 -0.940D-03
Maxdispl :   0.2351   ||displ|| :   0.4246   Lambda : -0.111D-02
Largest |displ|/coords:  0.2351 (   3)  0.1430 (   4)  0.1303 (  12)
................................................................................
.............................. CYCLE   32 ......................................
................................................................................
   1    -50.7413876 -0.507414E+02  0.188E-01    9.25       0.0  T
   2    -50.7414042 -0.165921E-04  0.138E-01    9.26       1.0  T
   3    -50.7414118 -0.762876E-05  0.255E-02    9.27       1.0  T
   4    -50.7414140 -0.215135E-05  0.823E-03    9.27       2.4  T
   5    -50.7414141 -0.788734E-07  0.200E-03    9.27       9.8  T
   6    -50.7414141 -0.657288E-08  0.107E-03    9.27      18.3  T
speedup  1.00
cpu  time for SCC    0.01 s
wall time for SCC    0.01 s
speedup  0.97
cpu  time for grad    0.01 s
wall time for grad    0.01 s
 E :    -50.45906839  G :  0.013824    pred/act E change: -0.803D-03 -0.652D-03
Maxdispl :   0.1764   ||displ|| :   0.3051   Lambda : -0.633D-03
Largest |displ|/coords:  0.1764 (   3)  0.1476 (   4)  0.1066 (  12)
................................................................................
.............................. CYCLE   33 ......................................
................................................................................
   1    -50.7406109 -0.507406E+02  0.141E-01    9.22       0.0  T
   2    -50.7406167 -0.575919E-05  0.105E-01    9.22       1.0  T
   3    -50.7406209 -0.423385E-05  0.147E-02    9.23       1.3  T
   4    -50.7406215 -0.647616E-06  0.537E-03    9.23       3.7  T
   5    -50.7406216 -0.369062E-07  0.147E-03    9.23      13.3  T
   6    -50.7406216 -0.220996E-08  0.828E-04    9.23      23.7  T
speedup  1.00
cpu  time for SCC    0.01 s
wall time for SCC    0.01 s
speedup  0.97
cpu  time for grad    0.01 s
wall time for grad    0.01 s
 E :    -50.45938804  G :  0.013889    pred/act E change: -0.657D-03 -0.320D-03
Maxdispl :   0.0857   ||displ|| :   0.1643   Lambda : -0.476D-03
Largest |displ|/coords:  0.0857 (   3)  0.0606 (   6)  0.0506 (  19)
................................................................................
.............................. CYCLE   34 ......................................
................................................................................
   1    -50.7447231 -0.507447E+02  0.958E-02    9.22       0.0  T
   2    -50.7447260 -0.289186E-05  0.706E-02    9.22       1.0  T
   3    -50.7447279 -0.193369E-05  0.126E-02    9.22       1.6  T
   4    -50.7447282 -0.316604E-06  0.495E-03    9.22       4.0  T
   5    -50.7447282 -0.258837E-07  0.101E-03    9.22      19.5  T
   6    -50.7447282 -0.152389E-08  0.687E-04    9.22      28.5  T
speedup  0.85
cpu  time for SCC    0.00 s
wall time for SCC    0.01 s
speedup  0.98
cpu  time for grad    0.01 s
wall time for grad    0.01 s
 E :    -50.45964199  G :  0.008904    pred/act E change: -0.346D-03 -0.254D-03
Maxdispl :   0.1572   ||displ|| :   0.2787   Lambda : -0.530D-03
Largest |displ|/coords:  0.1572 (   3)  0.1105 (   5)  0.0876 (   9)
................................................................................
.............................. CYCLE   35 ......................................
................................................................................
   1    -50.7428159 -0.507428E+02  0.151E-01    9.18       0.0  T
   2    -50.7428206 -0.469654E-05  0.112E-01    9.19       1.0  T
   3    -50.7428242 -0.357484E-05  0.151E-02    9.20       1.3  T
   4    -50.7428247 -0.552913E-06  0.637E-03    9.20       3.1  T
   5    -50.7428248 -0.403764E-07  0.139E-03    9.20      14.1  T
   6    -50.7428248 -0.204553E-08  0.930E-04    9.20      21.1  T
speedup  1.02
cpu  time for SCC    0.01 s
wall time for SCC    0.01 s
speedup  1.05
cpu  time for grad    0.01 s
wall time for grad    0.01 s
 E :    -50.45989574  G :  0.012830    pred/act E change: -0.245D-03 -0.254D-03
Maxdispl :   0.0545   ||displ|| :   0.1173   Lambda : -0.298D-03
Largest |displ|/coords:  0.0545 (   3)  0.0423 (  11)  0.0355 (  12)
................................................................................
.............................. CYCLE   36 ......................................
................................................................................
   1    -50.7445455 -0.507445E+02  0.850E-02    9.22       0.0  T
   2    -50.7445477 -0.217618E-05  0.618E-02    9.22       1.0  T
   3    -50.7445492 -0.153956E-05  0.122E-02    9.22       1.6  T
   4    -50.7445494 -0.198683E-06  0.315E-03    9.22       6.2  T
   5    -50.7445494 -0.157134E-07  0.845E-04    9.22      23.2  T
   6    -50.7445494 -0.120975E-08  0.510E-04    9.22      38.5  T
speedup  1.00
cpu  time for SCC    0.01 s
wall time for SCC    0.01 s
speedup  1.02
cpu  time for grad    0.01 s
wall time for grad    0.01 s
 E :    -50.46009396  G :  0.008884    pred/act E change: -0.286D-03 -0.198D-03
Maxdispl :   0.1638   ||displ|| :   0.2988   Lambda : -0.470D-03
Largest |displ|/coords:  0.1638 (   3)  0.1029 (   6)  0.1023 (   4)
................................................................................
.............................. CYCLE   37 ......................................
................................................................................
   1    -50.7447510 -0.507448E+02  0.163E-01    9.22       0.0  T
   2    -50.7447566 -0.562666E-05  0.119E-01    9.21       1.0  T
   3    -50.7447609 -0.424376E-05  0.192E-02    9.21       1.0  T
   4    -50.7447613 -0.466060E-06  0.680E-03    9.21       2.9  T
   5    -50.7447614 -0.516873E-07  0.146E-03    9.21      13.4  T
   6    -50.7447614 -0.246092E-08  0.955E-04    9.21      20.5  T
speedup  1.02
cpu  time for SCC    0.01 s
wall time for SCC    0.01 s
speedup  0.97
cpu  time for grad    0.01 s
wall time for grad    0.01 s
 E :    -50.46025960  G :  0.014390    pred/act E change: -0.151D-03 -0.166D-03
Maxdispl :   0.0827   ||displ|| :   0.1910   Lambda : -0.540D-03
Largest |displ|/coords:  0.0827 (   3)  0.0664 (  15)  0.0526 (   2)
................................................................................
.............................. CYCLE   38 ......................................
................................................................................
   1    -50.7475104 -0.507475E+02  0.161E-01    9.26       0.0  T
   2    -50.7475174 -0.701744E-05  0.118E-01    9.26       1.0  T
   3    -50.7475221 -0.476038E-05  0.205E-02    9.26       1.0  T
   4    -50.7475228 -0.699121E-06  0.692E-03    9.26       2.8  T
   5    -50.7475229 -0.467624E-07  0.145E-03    9.26      13.5  T
   6    -50.7475229 -0.304266E-08  0.882E-04    9.26      22.2  T
speedup  0.98
cpu  time for SCC    0.01 s
wall time for SCC    0.01 s
speedup  0.97
cpu  time for grad    0.01 s
wall time for grad    0.01 s
 E :    -50.46041650  G :  0.012297    pred/act E change: -0.256D-03 -0.157D-03
Maxdispl :   0.0879   ||displ|| :   0.1700   Lambda : -0.390D-03
Largest |displ|/coords:  0.0879 (   7)  0.0713 (  15)  0.0585 (   5)
................................................................................
.............................. CYCLE   39 ......................................
................................................................................
   1    -50.7481956 -0.507482E+02  0.922E-02    9.22       0.0  T
   2    -50.7481989 -0.325030E-05  0.681E-02    9.22       1.0  T
   3    -50.7482007 -0.186448E-05  0.112E-02    9.22       1.7  T
   4    -50.7482011 -0.402706E-06  0.317E-03    9.22       6.2  T
   5    -50.7482012 -0.273136E-07  0.108E-03    9.22      18.2  T
   6    -50.7482012 -0.141095E-08  0.604E-04    9.22      32.5  T
speedup  0.83
cpu  time for SCC    0.00 s
wall time for SCC    0.01 s
speedup  0.97
cpu  time for grad    0.01 s
wall time for grad    0.01 s
 E :    -50.46065358  G :  0.009050    pred/act E change: -0.280D-03 -0.237D-03
Maxdispl :   0.1291   ||displ|| :   0.2855   Lambda : -0.425D-03
Largest |displ|/coords:  0.1291 (  15)  0.1261 (   5)  0.1158 (   3)
................................................................................
.............................. CYCLE   40 ......................................
................................................................................
   1    -50.7461384 -0.507461E+02  0.168E-01    9.16       0.0  T
   2    -50.7461459 -0.741030E-05  0.124E-01    9.16       1.0  T
   3    -50.7461515 -0.562507E-05  0.199E-02    9.17       1.0  T
   4    -50.7461523 -0.784018E-06  0.527E-03    9.17       3.7  T
   5    -50.7461523 -0.485037E-07  0.197E-03    9.17      10.0  T
   6    -50.7461523 -0.494045E-08  0.111E-03    9.17      17.7  T
speedup  1.00
cpu  time for SCC    0.01 s
wall time for SCC    0.01 s
speedup  1.03
cpu  time for grad    0.01 s
wall time for grad    0.01 s
 E :    -50.46083146  G :  0.013583    pred/act E change: -0.201D-03 -0.178D-03
Maxdispl :   0.1153   ||displ|| :   0.2820   Lambda : -0.432D-03
Largest |displ|/coords:  0.1153 (  15)  0.0982 (   4)  0.0933 (   7)
................................................................................
.............................. CYCLE   41 ......................................
................................................................................
   1    -50.7467734 -0.507468E+02  0.160E-01    9.10       0.0  T
   2    -50.7467801 -0.667945E-05  0.117E-01    9.10       1.0  T
   3    -50.7467854 -0.532776E-05  0.204E-02    9.10       1.0  T
   4    -50.7467860 -0.633485E-06  0.664E-03    9.10       3.0  T
   5    -50.7467861 -0.696229E-07  0.175E-03    9.10      11.2  T
   6    -50.7467861 -0.460336E-08  0.115E-03    9.10      17.1  T
speedup  1.00
cpu  time for SCC    0.01 s
wall time for SCC    0.01 s
speedup  1.04
cpu  time for grad    0.01 s
wall time for grad    0.01 s
 E :    -50.46116148  G :  0.014216    pred/act E change: -0.230D-03 -0.330D-03
Maxdispl :   0.2044   ||displ|| :   0.5166   Lambda : -0.822D-03
Largest |displ|/coords:  0.2044 (   4)  0.2008 (  15)  0.1628 (   3)
................................................................................
.............................. CYCLE   42 ......................................
................................................................................
   1    -50.7472934 -0.507473E+02  0.271E-01    9.00       0.0  T
   2    -50.7473135 -0.201423E-04  0.198E-01    9.00       1.0  T
   3    -50.7473302 -0.166772E-04  0.355E-02    8.99       1.0  T
   4    -50.7473324 -0.221111E-05  0.127E-02    8.99       1.5  T
   5    -50.7473327 -0.229715E-06  0.329E-03    8.99       6.0  T
   6    -50.7473327 -0.167624E-07  0.216E-03    8.99       9.1  T
   7    -50.7473327 -0.100385E-07  0.584E-04    8.99      33.6  T
speedup  1.01
cpu  time for SCC    0.01 s
wall time for SCC    0.01 s
speedup  1.04
cpu  time for grad    0.02 s
wall time for grad    0.02 s
 E :    -50.46183440  G :  0.015915    pred/act E change: -0.233D-03 -0.673D-03
Maxdispl :   0.3260   ||displ|| :   0.7351   Lambda : -0.125D-02
Largest |displ|/coords:  0.3260 (   4)  0.2655 (  15)  0.2237 (   3)
................................................................................
.............................. CYCLE   43 ......................................
................................................................................
   1    -50.7440154 -0.507440E+02  0.401E-01    8.85       0.0  T
   2    -50.7440680 -0.525945E-04  0.292E-01    8.84       1.0  T
   3    -50.7441018 -0.337441E-04  0.576E-02    8.82       1.0  T
   4    -50.7441081 -0.635329E-05  0.199E-02    8.83       1.0  T
   5    -50.7441086 -0.495179E-06  0.488E-03    8.83       4.0  T
   6    -50.7441087 -0.444949E-07  0.312E-03    8.83       6.3  T
   7    -50.7441087 -0.212440E-07  0.111E-03    8.83      17.7  T
   8    -50.7441087 -0.353693E-08  0.327E-04    8.83      60.1  T
speedup  1.01
cpu  time for SCC    0.01 s
wall time for SCC    0.01 s
speedup  1.04
cpu  time for grad    0.02 s
wall time for grad    0.02 s
 E :    -50.46293400  G :  0.024235    pred/act E change: -0.521D-03 -0.110D-02
Maxdispl :   0.2858   ||displ|| :   0.6408   Lambda : -0.244D-02
Largest |displ|/coords:  0.2858 (   4)  0.2419 (  20)  0.2099 (  10)
................................................................................
.............................. CYCLE   44 ......................................
................................................................................
   1    -50.7552757 -0.507553E+02  0.393E-01    9.27       0.0  T
   2    -50.7553513 -0.755753E-04  0.286E-01    9.27       1.0  T
   3    -50.7553854 -0.340932E-04  0.720E-02    9.26       1.0  T
   4    -50.7553950 -0.958492E-05  0.180E-02    9.26       1.1  T
   5    -50.7553955 -0.483811E-06  0.461E-03    9.26       4.3  T
   6    -50.7553955 -0.230934E-07  0.279E-03    9.26       7.0  T
speedup  1.02
cpu  time for SCC    0.01 s
wall time for SCC    0.01 s
speedup  1.05
cpu  time for grad    0.01 s
wall time for grad    0.01 s
 E :    -50.46249078  G :  0.053415    pred/act E change: -0.963D-03  0.443D-03
Maxdispl :   0.1687   ||displ|| :   0.4944   Lambda : -0.944D-02
Largest |displ|/coords:  0.1687 (  15)  0.1503 (   6)  0.1490 (  10)
................................................................................
.............................. CYCLE   45 ......................................
................................................................................
   1    -50.7287532 -0.507288E+02  0.470E-01    8.42       0.0  T
   2    -50.7290778 -0.324607E-03  0.334E-01    8.39       1.0  T
   3    -50.7292074 -0.129596E-03  0.113E-01    8.34       1.0  T
   4    -50.7292302 -0.227696E-04  0.309E-02    8.33       1.0  T
   5    -50.7292325 -0.229266E-05  0.963E-03    8.33       2.0  T
   6    -50.7292327 -0.198709E-06  0.514E-03    8.33       3.8  T
   7    -50.7292328 -0.675107E-07  0.208E-03    8.33       9.4  T
speedup  1.00
cpu  time for SCC    0.01 s
wall time for SCC    0.01 s
speedup  1.03
cpu  time for grad    0.02 s
wall time for grad    0.02 s
 E :    -50.46115467  G :  0.067292    pred/act E change: -0.172D-02  0.134D-02
Maxdispl :   0.1351   ||displ|| :   0.4041   Lambda : -0.128D-01
Largest |displ|/coords:  0.1351 (  10)  0.1324 (  12)  0.1178 (   8)
................................................................................
.............................. CYCLE   46 ......................................
................................................................................
   1    -50.7635517 -0.507636E+02  0.418E-01    9.25       0.0  T
   2    -50.7637970 -0.245338E-03  0.297E-01    9.27       1.0  T
   3    -50.7639087 -0.111648E-03  0.935E-02    9.31       1.0  T
   4    -50.7639266 -0.179235E-04  0.276E-02    9.32       1.0  T
   5    -50.7639282 -0.155009E-05  0.817E-03    9.32       2.4  T
   6    -50.7639283 -0.130498E-06  0.483E-03    9.32       4.1  T
   7    -50.7639284 -0.610795E-07  0.186E-03    9.32      10.6  T
speedup  1.03
cpu  time for SCC    0.01 s
wall time for SCC    0.01 s
speedup  0.98
cpu  time for grad    0.01 s
wall time for grad    0.02 s
 E :    -50.46337347  G :  0.053298    pred/act E change: -0.588D-02 -0.222D-02
Maxdispl :   0.1203   ||displ|| :   0.3075   Lambda : -0.622D-02
Largest |displ|/coords:  0.1203 (   3)  0.0987 (  15)  0.0881 (   4)
................................................................................
.............................. CYCLE   47 ......................................
................................................................................
   1    -50.7414343 -0.507414E+02  0.266E-01    8.90       0.0  T
   2    -50.7415541 -0.119806E-03  0.189E-01    8.88       1.0  T
   3    -50.7416053 -0.512070E-04  0.674E-02    8.84       1.0  T
   4    -50.7416135 -0.818832E-05  0.209E-02    8.83       1.0  T
   5    -50.7416144 -0.908713E-06  0.615E-03    8.83       3.2  T
   6    -50.7416145 -0.788886E-07  0.335E-03    8.83       5.9  T
   7    -50.7416145 -0.262566E-07  0.129E-03    8.83      15.2  T
speedup  0.99
cpu  time for SCC    0.01 s
wall time for SCC    0.01 s
speedup  1.03
cpu  time for grad    0.02 s
wall time for grad    0.02 s
 E :    -50.46492593  G :  0.033069    pred/act E change: -0.742D-02 -0.155D-02
Maxdispl :   0.0456   ||displ|| :   0.1396   Lambda : -0.151D-02
Largest |displ|/coords:  0.0456 (  20)  0.0379 (  12)  0.0377 (  10)
................................................................................
.............................. CYCLE   48 ......................................
................................................................................
   1    -50.7502971 -0.507503E+02  0.107E-01    8.95       0.0  T
   2    -50.7503071 -0.995916E-05  0.778E-02    8.95       1.0  T
   3    -50.7503116 -0.448445E-05  0.198E-02    8.96       1.0  T
   4    -50.7503126 -0.105643E-05  0.580E-03    8.96       3.4  T
   5    -50.7503127 -0.546129E-07  0.157E-03    8.96      12.5  T
speedup  0.98
cpu  time for SCC    0.00 s
wall time for SCC    0.01 s
speedup  1.03
cpu  time for grad    0.01 s
wall time for grad    0.01 s
 E :    -50.46586690  G :  0.016753    pred/act E change: -0.340D-02 -0.941D-03
Maxdispl :   0.1396   ||displ|| :   0.2223   Lambda : -0.709D-03
Largest |displ|/coords:  0.1396 (   3)  0.0807 (   4)  0.0591 (  16)
................................................................................
.............................. CYCLE   49 ......................................
................................................................................
   1    -50.7536457 -0.507536E+02  0.993E-02    9.12       0.0  T
   2    -50.7536547 -0.908408E-05  0.732E-02    9.11       1.0  T
   3    -50.7536588 -0.405906E-05  0.220E-02    9.10       1.0  T
   4    -50.7536597 -0.880455E-06  0.652E-03    9.10       3.0  T
   5    -50.7536598 -0.739445E-07  0.145E-03    9.10      13.6  T
   6    -50.7536598 -0.267782E-08  0.864E-04    9.10      22.7  T
speedup  1.00
cpu  time for SCC    0.01 s
wall time for SCC    0.01 s
speedup  1.03
cpu  time for grad    0.01 s
wall time for grad    0.01 s
 E :    -50.46621146  G :  0.019543    pred/act E change: -0.769D-03 -0.345D-03
Maxdispl :   0.1488   ||displ|| :   0.3386   Lambda : -0.130D-02
Largest |displ|/coords:  0.1488 (  15)  0.1301 (   4)  0.0906 (   1)
................................................................................
.............................. CYCLE   50 ......................................
................................................................................
   1    -50.7622441 -0.507622E+02  0.188E-01    9.20       0.0  T
   2    -50.7622723 -0.282036E-04  0.138E-01    9.19       1.0  T
   3    -50.7622839 -0.115901E-04  0.317E-02    9.18       1.0  T
   4    -50.7622876 -0.371924E-05  0.741E-03    9.19       2.6  T
   5    -50.7622877 -0.112483E-06  0.248E-03    9.19       7.9  T
   6    -50.7622877 -0.840929E-08  0.129E-03    9.19      15.3  T
speedup  1.00
cpu  time for SCC    0.01 s
wall time for SCC    0.01 s
speedup  1.03
cpu  time for grad    0.01 s
wall time for grad    0.01 s
 E :    -50.46682097  G :  0.022384    pred/act E change: -0.372D-03 -0.610D-03
Maxdispl :   0.1051   ||displ|| :   0.2613   Lambda : -0.973D-03
Largest |displ|/coords:  0.1051 (  15)  0.0972 (   3)  0.0915 (   4)
................................................................................
.............................. CYCLE   51 ......................................
................................................................................
   1    -50.7593200 -0.507593E+02  0.136E-01    9.21       0.0  T
   2    -50.7593321 -0.120787E-04  0.101E-01    9.19       1.0  T
   3    -50.7593386 -0.652599E-05  0.257E-02    9.17       1.0  T
   4    -50.7593402 -0.153925E-05  0.771E-03    9.17       2.5  T
   5    -50.7593403 -0.106084E-06  0.215E-03    9.17       9.1  T
   6    -50.7593403 -0.594152E-08  0.125E-03    9.17      15.6  T
speedup  1.00
cpu  time for SCC    0.01 s
wall time for SCC    0.01 s
speedup  0.97
cpu  time for grad    0.01 s
wall time for grad    0.01 s
 E :    -50.46735863  G :  0.014959    pred/act E change: -0.726D-03 -0.538D-03
Maxdispl :   0.0973   ||displ|| :   0.2380   Lambda : -0.111D-02
Largest |displ|/coords:  0.0973 (   3)  0.0762 (  31)  0.0703 (  17)
................................................................................
.............................. CYCLE   52 ......................................
................................................................................
   1    -50.7577935 -0.507578E+02  0.154E-01    9.19       0.0  T
   2    -50.7578087 -0.152554E-04  0.112E-01    9.19       1.0  T
   3    -50.7578166 -0.788635E-05  0.309E-02    9.18       1.0  T
   4    -50.7578184 -0.176453E-05  0.952E-03    9.18       2.1  T
   5    -50.7578185 -0.984984E-07  0.219E-03    9.18       9.0  T
   6    -50.7578185 -0.646906E-08  0.131E-03    9.18      15.0  T
speedup  0.98
cpu  time for SCC    0.01 s
wall time for SCC    0.01 s
speedup  1.02
cpu  time for grad    0.01 s
wall time for grad    0.01 s
 E :    -50.46781340  G :  0.016555    pred/act E change: -0.520D-03 -0.455D-03
Maxdispl :   0.1223   ||displ|| :   0.2901   Lambda : -0.688D-03
Largest |displ|/coords:  0.1223 (   3)  0.1135 (  16)  0.0874 (  20)

generating ANC from model Hessian ...
 Shifting diagonal of input Hessian by   4.819252627687801E-003
 Lowest  eigenvalues of input Hessian
   -0.000000   -0.000000    0.000000    0.000000    0.000000    0.000000
    0.005000    0.005342    0.005867    0.006625    0.006884    0.008476
    0.008798    0.009679    0.010568    0.010897    0.011422    0.012484
 Highest eigenvalues
    1.397159    1.397716    1.500922    2.623034    3.423700    3.571376
 
cpu  time for ANC gen    0.03 s
wall time for ANC gen    0.03 s
................................................................................
.............................. CYCLE   53 ......................................
................................................................................
   1    -50.7529827 -0.507530E+02  0.166E-01    9.04       0.0  T
   2    -50.7529887 -0.600050E-05  0.122E-01    9.03       1.0  T
   3    -50.7529947 -0.597172E-05  0.195E-02    9.02       1.0  T
   4    -50.7529951 -0.463033E-06  0.523E-03    9.02       3.7  T
   5    -50.7529952 -0.486108E-07  0.193E-03    9.02      10.2  T
   6    -50.7529952 -0.560424E-08  0.120E-03    9.02      16.3  T
   7    -50.7529952 -0.232315E-08  0.316E-04    9.02      62.1  T
   8    -50.7529952 -0.296836E-09  0.116E-04    9.02     169.3  T
speedup  1.03
cpu  time for SCC    0.01 s
wall time for SCC    0.01 s
speedup  1.01
cpu  time for grad    0.02 s
wall time for grad    0.02 s
 E :    -50.46806148  G :  0.018896    pred/act E change:  0.000D+00 -0.248D-03
Maxdispl :   0.0926   ||displ|| :   0.2400   Lambda : -0.124D-02
Largest |displ|/coords:  0.0926 (  13)  0.0899 (  14)  0.0839 (  20)
................................................................................
.............................. CYCLE   54 ......................................
................................................................................
   1    -50.7560893 -0.507561E+02  0.153E-01    9.06       0.0  T
   2    -50.7560963 -0.703771E-05  0.114E-01    9.06       1.0  T
   3    -50.7561012 -0.491174E-05  0.172E-02    9.07       1.1  T
   4    -50.7561022 -0.915903E-06  0.653E-03    9.07       3.0  T
   5    -50.7561022 -0.533757E-07  0.158E-03    9.07      12.4  T
   6    -50.7561022 -0.348685E-08  0.991E-04    9.07      19.8  T
speedup  1.02
cpu  time for SCC    0.01 s
wall time for SCC    0.01 s
speedup  1.03
cpu  time for grad    0.01 s
wall time for grad    0.01 s
 E :    -50.46894434  G :  0.010027    pred/act E change:  0.000D+00 -0.883D-03
Maxdispl :   0.1832   ||displ|| :   0.3646   Lambda : -0.107D-02
Largest |displ|/coords:  0.1832 (   8)  0.1299 (  14)  0.1221 (   2)
................................................................................
.............................. CYCLE   55 ......................................
................................................................................
   1    -50.7584956 -0.507585E+02  0.199E-01    9.12       0.0  T
   2    -50.7585118 -0.161319E-04  0.148E-01    9.13       1.0  T
   3    -50.7585209 -0.908667E-05  0.256E-02    9.14       1.0  T
   4    -50.7585231 -0.225406E-05  0.751E-03    9.14       2.6  T
   5    -50.7585232 -0.904734E-07  0.211E-03    9.14       9.3  T
   6    -50.7585232 -0.725189E-08  0.124E-03    9.14      15.8  T
speedup  0.98
cpu  time for SCC    0.01 s
wall time for SCC    0.01 s
speedup  1.03
cpu  time for grad    0.01 s
wall time for grad    0.01 s
 E :    -50.46963990  G :  0.012073    pred/act E change: -0.654D-03 -0.696D-03
Maxdispl :   0.1863   ||displ|| :   0.3479   Lambda : -0.625D-03
Largest |displ|/coords:  0.1863 (   2)  0.1384 (   8)  0.1180 (   7)
................................................................................
.............................. CYCLE   56 ......................................
................................................................................
   1    -50.7575515 -0.507576E+02  0.195E-01    9.14       0.0  T
   2    -50.7575644 -0.128930E-04  0.145E-01    9.14       1.0  T
   3    -50.7575723 -0.793015E-05  0.235E-02    9.16       1.0  T
   4    -50.7575742 -0.189547E-05  0.597E-03    9.16       3.3  T
   5    -50.7575743 -0.910305E-07  0.215E-03    9.15       9.1  T
   6    -50.7575743 -0.774254E-08  0.119E-03    9.15      16.5  T
speedup  1.02
cpu  time for SCC    0.01 s
wall time for SCC    0.01 s
speedup  1.04
cpu  time for grad    0.01 s
wall time for grad    0.01 s
 E :    -50.47002939  G :  0.011635    pred/act E change: -0.606D-03 -0.389D-03
Maxdispl :   0.2074   ||displ|| :   0.4035   Lambda : -0.673D-03
Largest |displ|/coords:  0.2074 (   2)  0.1795 (   8)  0.1271 (  14)
................................................................................
.............................. CYCLE   57 ......................................
................................................................................
   1    -50.7555007 -0.507555E+02  0.209E-01    9.12       0.0  T
   2    -50.7555163 -0.156045E-04  0.156E-01    9.12       1.0  T
   3    -50.7555271 -0.107905E-04  0.260E-02    9.12       1.0  T
   4    -50.7555293 -0.218252E-05  0.724E-03    9.12       2.7  T
   5    -50.7555294 -0.105873E-06  0.266E-03    9.12       7.4  T
   6    -50.7555294 -0.122547E-07  0.153E-03    9.12      12.8  T
speedup  0.98
cpu  time for SCC    0.01 s
wall time for SCC    0.01 s
speedup  0.96
cpu  time for grad    0.01 s
wall time for grad    0.01 s
 E :    -50.47035730  G :  0.010815    pred/act E change: -0.350D-03 -0.328D-03
Maxdispl :   0.0704   ||displ|| :   0.1441   Lambda : -0.289D-03
Largest |displ|/coords:  0.0704 (   2)  0.0659 (   6)  0.0536 (   8)
................................................................................
.............................. CYCLE   58 ......................................
................................................................................
   1    -50.7576737 -0.507577E+02  0.696E-02    9.17       0.0  T
   2    -50.7576757 -0.198380E-05  0.520E-02    9.17       1.0  T
   3    -50.7576766 -0.935164E-06  0.959E-03    9.15       2.0  T
   4    -50.7576769 -0.309954E-06  0.273E-03    9.16       7.2  T
   5    -50.7576770 -0.163500E-07  0.805E-04    9.16      24.4  T
speedup  1.00
cpu  time for SCC    0.00 s
wall time for SCC    0.01 s
speedup  1.04
cpu  time for grad    0.01 s
wall time for grad    0.01 s
 E :    -50.47053636  G :  0.008596    pred/act E change: -0.391D-03 -0.179D-03
Maxdispl :   0.1724   ||displ|| :   0.2298   Lambda : -0.220D-03
Largest |displ|/coords:  0.1724 (   2)  0.0633 (   1)  0.0565 (   8)
................................................................................
.............................. CYCLE   59 ......................................
................................................................................
   1    -50.7573296 -0.507573E+02  0.900E-02    9.20       0.0  T
   2    -50.7573323 -0.267652E-05  0.676E-02    9.20       1.0  T
   3    -50.7573341 -0.187920E-05  0.997E-03    9.18       2.0  T
   4    -50.7573346 -0.434270E-06  0.363E-03    9.18       5.4  T
   5    -50.7573346 -0.218045E-07  0.117E-03    9.18      16.7  T
   6    -50.7573346 -0.205561E-08  0.601E-04    9.18      32.6  T
speedup  1.00
cpu  time for SCC    0.01 s
wall time for SCC    0.01 s
speedup  1.03
cpu  time for grad    0.01 s
wall time for grad    0.01 s
 E :    -50.47068544  G :  0.007190    pred/act E change: -0.148D-03 -0.149D-03
Maxdispl :   0.1863   ||displ|| :   0.2852   Lambda : -0.203D-03
Largest |displ|/coords:  0.1863 (   2)  0.0891 (   1)  0.0837 (   6)
................................................................................
.............................. CYCLE   60 ......................................
................................................................................
   1    -50.7573719 -0.507574E+02  0.950E-02    9.22       0.0  T
   2    -50.7573749 -0.304194E-05  0.710E-02    9.21       1.0  T
   3    -50.7573769 -0.201109E-05  0.118E-02    9.19       1.7  T
   4    -50.7573774 -0.462068E-06  0.386E-03    9.19       5.1  T
   5    -50.7573774 -0.284419E-07  0.117E-03    9.19      16.8  T
   6    -50.7573774 -0.173697E-08  0.690E-04    9.19      28.4  T
speedup  1.02
cpu  time for SCC    0.01 s
wall time for SCC    0.01 s
speedup  1.04
cpu  time for grad    0.01 s
wall time for grad    0.01 s
 E :    -50.47081368  G :  0.005206    pred/act E change: -0.116D-03 -0.128D-03
Maxdispl :   0.2071   ||displ|| :   0.2677   Lambda : -0.140D-03
Largest |displ|/coords:  0.2071 (   2)  0.0893 (   1)  0.0628 (   3)
................................................................................
.............................. CYCLE   61 ......................................
................................................................................
   1    -50.7570466 -0.507570E+02  0.103E-01    9.22       0.0  T
   2    -50.7570485 -0.184645E-05  0.771E-02    9.21       1.0  T
   3    -50.7570504 -0.190302E-05  0.743E-03    9.20       2.6  T
   4    -50.7570506 -0.196961E-06  0.359E-03    9.20       5.5  T
   5    -50.7570506 -0.199886E-07  0.109E-03    9.21      18.0  T
   6    -50.7570506 -0.168750E-08  0.632E-04    9.21      31.1  T
speedup  1.00
cpu  time for SCC    0.01 s
wall time for SCC    0.01 s
speedup  1.03
cpu  time for grad    0.01 s
wall time for grad    0.01 s
 E :    -50.47090618  G :  0.007699    pred/act E change: -0.110D-03 -0.925D-04
Maxdispl :   0.1734   ||displ|| :   0.2495   Lambda : -0.142D-03
Largest |displ|/coords:  0.1734 (   2)  0.0803 (   3)  0.0790 (   1)
................................................................................
.............................. CYCLE   62 ......................................
................................................................................
   1    -50.7579788 -0.507580E+02  0.855E-02    9.23       0.0  T
   2    -50.7579798 -0.103242E-05  0.644E-02    9.22       1.0  T
   3    -50.7579809 -0.108818E-05  0.524E-03    9.22       3.7  T
   4    -50.7579810 -0.103152E-06  0.296E-03    9.22       6.6  T
   5    -50.7579810 -0.119669E-07  0.802E-04    9.22      24.4  T
speedup  0.98
cpu  time for SCC    0.00 s
wall time for SCC    0.01 s
speedup  0.96
cpu  time for grad    0.01 s
wall time for grad    0.01 s
 E :    -50.47101184  G :  0.007142    pred/act E change: -0.748D-04 -0.106D-03
Maxdispl :   0.2444   ||displ|| :   0.3338   Lambda : -0.157D-03
Largest |displ|/coords:  0.2444 (   2)  0.1158 (   3)  0.0882 (   9)
................................................................................
.............................. CYCLE   63 ......................................
................................................................................
   1    -50.7582998 -0.507583E+02  0.127E-01    9.24       0.0  T
   2    -50.7583016 -0.183164E-05  0.951E-02    9.24       1.0  T
   3    -50.7583039 -0.233146E-05  0.817E-03    9.23       2.4  T
   4    -50.7583041 -0.118120E-06  0.282E-03    9.24       7.0  T
   5    -50.7583041 -0.116464E-07  0.126E-03    9.24      15.6  T
speedup  1.00
cpu  time for SCC    0.00 s
wall time for SCC    0.00 s
speedup  0.96
cpu  time for grad    0.01 s
wall time for grad    0.01 s
 E :    -50.47112855  G :  0.007298    pred/act E change: -0.755D-04 -0.117D-03
Maxdispl :   0.2381   ||displ|| :   0.3482   Lambda : -0.189D-03
Largest |displ|/coords:  0.2381 (   2)  0.1334 (   3)  0.1097 (   9)
................................................................................
.............................. CYCLE   64 ......................................
................................................................................
   1    -50.7602867 -0.507603E+02  0.126E-01    9.28       0.0  T
   2    -50.7602891 -0.233578E-05  0.938E-02    9.28       1.0  T
   3    -50.7602909 -0.182007E-05  0.110E-02    9.28       1.8  T
   4    -50.7602912 -0.315603E-06  0.330E-03    9.28       6.0  T
   5    -50.7602912 -0.206891E-07  0.124E-03    9.28      15.8  T
   6    -50.7602912 -0.178743E-08  0.654E-04    9.28      30.0  T
speedup  1.02
cpu  time for SCC    0.01 s
wall time for SCC    0.01 s
speedup  0.98
cpu  time for grad    0.01 s
wall time for grad    0.01 s
 E :    -50.47125881  G :  0.005890    pred/act E change: -0.875D-04 -0.130D-03
Maxdispl :   0.3895   ||displ|| :   0.5141   Lambda : -0.202D-03
Largest |displ|/coords:  0.3895 (   2)  0.1582 (   9)  0.1578 (   3)
................................................................................
[...]
.............................. CYCLE   87 ......................................
................................................................................
   1    -50.7602516 -0.507603E+02  0.377E-02    9.41       0.0  T
   2    -50.7602519 -0.301533E-06  0.283E-02    9.41       1.0  T
   3    -50.7602522 -0.218340E-06  0.343E-03    9.41       5.7  T
   4    -50.7602522 -0.444683E-07  0.132E-03    9.41      14.8  T
   5    -50.7602522 -0.296047E-08  0.397E-04    9.41      49.3  T
   6    -50.7602522 -0.205219E-09  0.226E-04    9.41      86.8  T
speedup  1.02
cpu  time for SCC    0.01 s
wall time for SCC    0.01 s
speedup  1.01
cpu  time for grad    0.01 s
wall time for grad    0.01 s
 E :    -50.47393332  G :  0.002305    pred/act E change: -0.230D-04 -0.112D-04
Maxdispl :   0.0399   ||displ|| :   0.0740   Lambda : -0.142D-04
Largest |displ|/coords:  0.0399 (   1)  0.0287 (   5)  0.0281 (   8)
................................................................................
.............................. CYCLE   88 ......................................
................................................................................
   1    -50.7599451 -0.507599E+02  0.502E-02    9.42       0.0  T
   2    -50.7599454 -0.352377E-06  0.378E-02    9.42       1.0  T
   3    -50.7599458 -0.325987E-06  0.330E-03    9.42       5.9  T
   4    -50.7599458 -0.402026E-07  0.118E-03    9.42      16.7  T
   5    -50.7599458 -0.183459E-08  0.460E-04    9.42      42.6  T
   6    -50.7599458 -0.172392E-09  0.237E-04    9.42      82.9  T
speedup  1.00
cpu  time for SCC    0.01 s
wall time for SCC    0.01 s
speedup  0.99
cpu  time for grad    0.01 s
wall time for grad    0.02 s
 E :    -50.47394126  G :  0.001660    pred/act E change: -0.123D-04 -0.794D-05
Maxdispl :   0.0190   ||displ|| :   0.0320   Lambda : -0.871D-05
Largest |displ|/coords:  0.0190 (   1)  0.0118 (   3)  0.0098 (  15)
................................................................................
.............................. CYCLE   89 ......................................
................................................................................
   1    -50.7601328 -0.507601E+02  0.165E-02    9.42       0.0  T
   2    -50.7601328 -0.715089E-07  0.124E-02    9.42       1.6  T
   3    -50.7601329 -0.452217E-07  0.163E-03    9.42      12.0  T
   4    -50.7601329 -0.107636E-07  0.877E-04    9.42      22.4  T
   5    -50.7601329 -0.735731E-09  0.143E-04    9.42     137.6  T
speedup  0.98
cpu  time for SCC    0.00 s
wall time for SCC    0.01 s
speedup  0.99
cpu  time for grad    0.01 s
wall time for grad    0.01 s
 E :    -50.47394798  G :  0.001013    pred/act E change: -0.715D-05 -0.672D-05
Maxdispl :   0.0297   ||displ|| :   0.0503   Lambda : -0.779D-05
Largest |displ|/coords:  0.0297 (   1)  0.0176 (  15)  0.0157 (   3)
................................................................................
.............................. CYCLE   90 ......................................
................................................................................
   1    -50.7603478 -0.507603E+02  0.245E-02    9.42       0.0  T
   2    -50.7603480 -0.138864E-06  0.183E-02    9.42       1.1  T
   3    -50.7603481 -0.844108E-07  0.233E-03    9.42       8.4  T
   4    -50.7603481 -0.224598E-07  0.127E-03    9.42      15.5  T
   5    -50.7603481 -0.137513E-08  0.209E-04    9.42      94.0  T
   6    -50.7603481 -0.496883E-10  0.138E-04    9.42     142.3  T
speedup  1.00
cpu  time for SCC    0.01 s
wall time for SCC    0.01 s
speedup  1.00
cpu  time for grad    0.01 s
wall time for grad    0.01 s
 E :    -50.47395231  G :  0.000514    pred/act E change: -0.436D-05 -0.433D-05
Maxdispl :   0.0097   ||displ|| :   0.0151   Lambda : -0.825D-06
Largest |displ|/coords:  0.0097 (   1)  0.0052 (   7)  0.0046 (   3)
................................................................................
.............................. CYCLE   91 ......................................
................................................................................
   1    -50.7603566 -0.507604E+02  0.574E-03    9.42       0.0  T
   2    -50.7603566 -0.906108E-08  0.428E-03    9.42       4.6  T
   3    -50.7603566 -0.379764E-08  0.698E-04    9.42      28.1  T
   4    -50.7603566 -0.162981E-08  0.242E-04    9.42      81.1  T
speedup  1.00
cpu  time for SCC    0.00 s
wall time for SCC    0.00 s
speedup  1.00
cpu  time for grad    0.01 s
wall time for grad    0.01 s
 E :    -50.47395290  G :  0.000391    pred/act E change: -0.391D-05 -0.584D-06
Maxdispl :   0.0071   ||displ|| :   0.0150   Lambda : -0.831D-06
Largest |displ|/coords:  0.0071 (   1)  0.0061 (   5)  0.0055 (   2)
................................................................................
.............................. CYCLE   92 ......................................
................................................................................
   1    -50.7603568 -0.507604E+02  0.575E-03    9.42       0.0  T
   2    -50.7603568 -0.155457E-07  0.429E-03    9.42       4.6  T
   3    -50.7603568 -0.772786E-08  0.902E-04    9.42      21.7  T
   4    -50.7603568 -0.237948E-08  0.283E-04    9.42      69.3  T
speedup  0.98
cpu  time for SCC    0.00 s
wall time for SCC    0.00 s
speedup  1.05
cpu  time for grad    0.01 s
wall time for grad    0.01 s
 E :    -50.47395340  G :  0.000341    pred/act E change: -0.412D-06 -0.504D-06
Maxdispl :   0.0026   ||displ|| :   0.0052   Lambda : -0.262D-06
Largest |displ|/coords:  0.0026 (   2)  0.0019 (   8)  0.0015 (   9)
................................................................................
.............................. CYCLE   93 ......................................
................................................................................
   1    -50.7603252 -0.507603E+02  0.330E-03    9.42       0.0  T
   2    -50.7603252 -0.240308E-08  0.249E-03    9.42       7.9  T
   3    -50.7603252 -0.174840E-08  0.328E-04    9.42      59.8  T
   4    -50.7603252 -0.354468E-09  0.136E-04    9.42     143.7  T
speedup  0.93
cpu  time for SCC    0.00 s
wall time for SCC    0.00 s
speedup  0.97
cpu  time for grad    0.01 s
wall time for grad    0.01 s
 E :    -50.47395359  G :  0.000243    pred/act E change: -0.416D-06 -0.189D-06
Maxdispl :   0.0046   ||displ|| :   0.0087   Lambda : -0.265D-06
Largest |displ|/coords:  0.0046 (   2)  0.0033 (   8)  0.0029 (   3)
................................................................................
.............................. CYCLE   94 ......................................
................................................................................
   1    -50.7602912 -0.507603E+02  0.514E-03    9.42       0.0  T
   2    -50.7602912 -0.366336E-08  0.387E-03    9.42       5.1  T
   3    -50.7602912 -0.412556E-08  0.435E-04    9.42      45.1  T
   4    -50.7602912 -0.291720E-09  0.143E-04    9.42     137.3  T
speedup  0.98
cpu  time for SCC    0.00 s
wall time for SCC    0.00 s
speedup  0.98
cpu  time for grad    0.01 s
wall time for grad    0.01 s
 E :    -50.47395377  G :  0.000190    pred/act E change: -0.131D-06 -0.181D-06
Maxdispl :   0.0037   ||displ|| :   0.0072   Lambda : -0.155D-06
Largest |displ|/coords:  0.0037 (   2)  0.0027 (   1)  0.0025 (   6)
................................................................................
.............................. CYCLE   95 ......................................
................................................................................
   1    -50.7602801 -0.507603E+02  0.402E-03    9.42       0.0  T
   2    -50.7602801 -0.218389E-08  0.301E-03    9.42       6.5  T
   3    -50.7602801 -0.229816E-08  0.380E-04    9.42      51.6  T
   4    -50.7602801 -0.202512E-09  0.106E-04    9.42     184.5  T
speedup  1.19
cpu  time for SCC    0.01 s
wall time for SCC    0.00 s
speedup  1.05
cpu  time for grad    0.01 s
wall time for grad    0.01 s
 E :    -50.47395388  G :  0.000149    pred/act E change: -0.132D-06 -0.110D-06
Maxdispl :   0.0036   ||displ|| :   0.0072   Lambda : -0.127D-06
Largest |displ|/coords:  0.0036 (   2)  0.0030 (   3)  0.0025 (   1)
................................................................................
.............................. CYCLE   96 ......................................
................................................................................
   1    -50.7602858 -0.507603E+02  0.391E-03    9.42       0.0  T
   2    -50.7602858 -0.243312E-08  0.292E-03    9.42       6.7  T
   3    -50.7602858 -0.173475E-08  0.409E-04    9.42      48.0  T
   4    -50.7602858 -0.352749E-09  0.110E-04    9.42     178.1  T
speedup  1.22
cpu  time for SCC    0.00 s
wall time for SCC    0.00 s
speedup  1.07
cpu  time for grad    0.01 s
wall time for grad    0.01 s
 E :    -50.47395396  G :  0.000131    pred/act E change: -0.776D-07 -0.845D-07
Maxdispl :   0.0016   ||displ|| :   0.0036   Lambda : -0.611D-07
Largest |displ|/coords:  0.0016 (   2)  0.0014 (  15)  0.0013 (   3)

   *** GEOMETRY OPTIMIZATION CONVERGED AFTER 96 ITERATIONS ***

------------------------------------------------------------------------
 total energy gain (kcal):     -0.1399
------------------------------------------------------------------------
================
 final structure:
================
$coord
        2.58391845365396       -0.49672689186263       -2.03677903609644      S 
        0.52625536006940       -2.32622714560071       -1.69764364911030      O 
        1.70221028130221        2.06196943549640       -1.52999804346060      O 
        4.77729931468364       -1.15018364656014       -0.54508688203704      O 
        3.36341200291143       -0.62535594244084       -4.89308980237952      O 
        1.77329564180982       -0.50359669175228       -5.79643096649829      H 
       -3.89543860316392        1.34481688485375        2.55639382895056      O 
       -5.49541795267868        2.00254386450384        3.09013775184577      H 
       -1.25345895462546       -3.14140006142742        2.93850462406854      O 
       -2.44880743301695       -1.74747341305712        3.03496350046706      H 
       -0.73948080721535       -3.18180420411283        1.16121980099920      H 
       -1.66310895785717       -1.26663646638375       -5.90403890112902      O 
       -2.12736500963610       -2.72004500961071       -6.88207832619256      H 
       -1.12333973163832       -1.89541722191964       -4.23204035948625      H 
       -3.22897297613386        2.43603146001026       -2.26124170678564      O 
       -3.49178581473047        1.35035937713775       -3.69878864304750      H 
       -3.78467747345193        1.67564271116085        0.71445628654917      H 
       -1.38644591026661        2.54444512660231       -2.09216666695278      H 
        0.82963691958811        3.48964928649913        3.25380653474837      O 
        1.29092874754421        3.40520942820548        1.46584241925212      H 
       -0.94515879886831        2.99974092541582        3.28896588000026      H 
        2.31396892753240        1.02856399920776        4.09514388277838      H 
        2.99443619941913       -0.87155688702469        4.07774786055905      N 
        3.97805528479098       -1.08726799077405        2.35450296197590      H 
        1.35334244652398       -2.03594411847136        3.95017383650330      H 
        4.09669884344882       -1.28933678914360        5.58752383340461      H 
$end
 
 Bond Distances (Angstroems)
 ---------------------------
S1-O2=1.4680         S1-O3=1.4570         S1-O4=1.4456         S1-O5=1.5682         O2-S1=1.4680         O3-S1=1.4570         
O4-S1=1.4456         O5-S1=1.5682         O5-H6=0.9699         H6-O5=0.9699         O7-H8=0.9580         O7-H17=0.9920        
H8-O7=0.9580         O9-H10=0.9731        O9-H11=0.9793        H10-O9=0.9731        H11-O9=0.9793        O12-H13=0.9590       
O12-H14=0.9875       H13-O12=0.9590       H14-O12=0.9875       O15-H16=0.9634       O15-H18=0.9808       H16-O15=0.9634       
H17-O7=0.9920        H18-O15=0.9808       O19-H20=0.9782       O19-H21=0.9745       H20-O19=0.9782       H21-O19=0.9745       
H22-N23=1.0681       N23-H22=1.0681       N23-H24=1.0562       N23-H25=1.0670       N23-H26=1.0136       H24-N23=1.0562       
H25-N23=1.0670       H26-N23=1.0136       
 N  H  Rav=1.0512 sigma=0.0222  Rmin=1.0136  Rmax=1.0681     4
 O  H  Rav=0.9741 sigma=0.0105  Rmin=0.9580  Rmax=0.9920    11
 S  O  Rav=1.4847 sigma=0.0489  Rmin=1.4456  Rmax=1.5682     4
 
 selected bond angles (degree)
 --------------------
O3-S1-O2=110.66                O4-S1-O2=111.78                O4-S1-O3=112.26                O5-S1-O2=106.52                
O5-S1-O3=107.58                O5-S1-O4=107.74                H6-O5-S1=104.12                H17-O7-H8=106.13               
H11-O9-H10=104.33              
 
 selected dihedral angles (degree)
 ---------------------------------
H6-O5-S1-O2= 49.10            H6-O5-S1-O3=290.42            H6-O5-S1-O4=169.18            
 
 CMA Distance (Angstroems)
 ---------------------------
R(CMA):  2.4950

========================================================================
 FINAL SINGLEPOINT CALCULATION ON OPTIMIZED GEOMETRY
========================================================================

 Ncao       : 65
 Nao        : 64
 Nshell     : 38
 Nel        : 80
 T(el)      :   300.0
 intcut     :    25.0
 scfconv/Eh :  0.100E-05
   qconv/e  :  0.100E-03
 intneglect :  0.100E-07
 broydamp   :      0.250
 iter      E             dE          RMSdq      gap      omega  full diag
   1    -50.7602858 -0.507603E+02  0.324E-05    9.42       0.0  T
   2    -50.7602858 -0.153477E-11  0.219E-05    9.42     897.5  T
   3    -50.7602858 -0.100187E-11  0.650E-06    9.42    3019.0  T
speedup  0.97
cpu  time for SCC    0.00 s
wall time for SCC    0.00 s

   *** convergence criteria satisfied after 3 iterations ***

          eigenvalues
 #    :          28         29         30         31         32         33         34         35
 occ. :        2.000      2.000      2.000      2.000      2.000      2.000      2.000      2.000
 eps  :       -13.525    -13.263    -12.551    -12.390    -12.367    -12.337    -12.296    -12.099
 #    :          36         37         38         39         40         41         42         43
 occ. :        2.000      2.000      2.000      2.000      2.000      0.000      0.000      0.000
 eps  :       -12.075    -11.980    -11.961    -11.823    -11.755     -2.339     -0.675     -0.171
 #    :          44         45         46         47         48         49         50         51
 occ. :        0.000      0.000      0.000      0.000      0.000      0.000      0.000      0.000
 eps  :         0.638      0.888      1.264      1.765      2.910      3.899      4.500      5.312


   #   Z            q   n(s)   n(p)   n(d)      C6AA      α(0)
   1  16 S      1.700  1.585  1.773  0.942    88.772    15.858
   2   8 O     -0.774  1.777  4.997  0.000    30.810     7.442
   3   8 O     -0.758  1.774  4.985  0.000    30.350     7.386
   4   8 O     -0.709  1.758  4.951  0.000    28.953     7.214
   5   8 O     -0.603  1.757  4.846  0.000    25.218     6.779
   6   1 H      0.368  0.632  0.000  0.000     0.540     1.151
   7   8 O     -0.630  1.749  4.881  0.000    25.921     6.871
   8   1 H      0.285  0.715  0.000  0.000     0.767     1.376
   9   8 O     -0.616  1.755  4.861  0.000    25.575     6.825
  10   1 H      0.324  0.676  0.000  0.000     0.653     1.269
  11   1 H      0.325  0.675  0.000  0.000     0.650     1.266
  12   8 O     -0.636  1.752  4.883  0.000    26.056     6.889
  13   1 H      0.289  0.711  0.000  0.000     0.755     1.365
  14   1 H      0.327  0.673  0.000  0.000     0.645     1.262
  15   8 O     -0.625  1.748  4.877  0.000    25.793     6.854
  16   1 H      0.306  0.694  0.000  0.000     0.703     1.317
  17   1 H      0.342  0.658  0.000  0.000     0.609     1.226
  18   1 H      0.321  0.679  0.000  0.000     0.660     1.276
  19   8 O     -0.614  1.755  4.859  0.000    25.523     6.819
  20   1 H      0.326  0.674  0.000  0.000     0.647     1.264
  21   1 H      0.324  0.676  0.000  0.000     0.653     1.270
  22   1 H      0.291  0.709  0.000  0.000     0.742     1.350
  23   7 N     -0.363  1.281  4.082  0.000    29.333     8.044
  24   1 H      0.281  0.719  0.000  0.000     0.773     1.378
  25   1 H      0.290  0.710  0.000  0.000     0.745     1.352
  26   1 H      0.228  0.772  0.000  0.000     0.974     1.546

 Mol. C6AA /au·bohr⁶  :       5457.548810
 Mol. C8AA /au·bohr⁸  :     118097.599906
 Mol. α(0) /au        :        106.649055

 
 Wiberg/Mayer (AO) data. WBOs > 0.1 written file <wbo>
 largest (>0.05) Wiberg bond orders for each atom
           total WBO             WBO to atom ...
     1  S   4.827    O    4 1.344    O    3 1.275    O    2 1.237    O    5 0.929
     2  O   1.702    S    1 1.237    O    3 0.107    O    4 0.104    H   14 0.076    O    5 0.075
     3  O   1.712    S    1 1.275    O    4 0.108    O    2 0.107    O    5 0.077    H   18 0.059
     4  O   1.771    S    1 1.344    O    3 0.108    O    2 0.104    H   24 0.097    O    5 0.063
     5  O   1.974    S    1 0.929    H    6 0.802    O    3 0.077    O    2 0.075    O    4 0.063
     6  H   0.864    O    5 0.802
     7  O   1.862    H    8 0.911    H   17 0.801
     8  H   0.919    O    7 0.911
     9  O   1.931    H   10 0.856    H   11 0.840    H   25 0.124    N   23 0.062
    10  H   0.895    O    9 0.856
    11  H   0.894    O    9 0.840
    12  O   1.844    H   13 0.912    H   14 0.809
    13  H   0.916    O   12 0.912
    14  H   0.893    O   12 0.809    O    2 0.076
    15  O   1.874    H   16 0.884    H   18 0.834    H   17 0.079
    16  H   0.906    O   15 0.884
    17  H   0.883    O    7 0.801    O   15 0.079
    18  H   0.897    O   15 0.834    O    3 0.059
    19  O   1.935    H   21 0.852    H   20 0.845    H   22 0.126    N   23 0.063
    20  H   0.894    O   19 0.845
    21  H   0.895    O   19 0.852
    22  H   0.916    N   23 0.785    O   19 0.126
    23  N   3.513    H   26 0.944    H   24 0.816    H   25 0.788    H   22 0.785    O   19 0.063    O    9 0.062
    24  H   0.921    N   23 0.816    O    4 0.097
    25  H   0.916    N   23 0.788    O    9 0.124
    26  H   0.948    N   23 0.944
 MOs/occ written to file <molden.input>
 
molecular dipole:
                 x           y           z       tot (Debye)
 q only:       -0.521      -0.497       1.603
   full:       -0.686      -0.682       0.711       3.052
molecular quadrupole (traceless):
                xx          xy          yy          xz          yz          zz
 q only:       -2.836      -1.216      -8.871      10.990       2.659      11.707
  q+dip:       -1.280      -1.548     -10.320       9.376       5.254      11.601
   full:       -1.255      -1.652     -11.125       9.525       5.447      12.380

SCC energy    :     -50.7602858
rep           :       0.2860058
ES            :       0.2618186
AES           :      -0.0774475
AXC           :      -0.0092557
disp          :      -0.0202566
XB            :       0.0000000
fix           :       0.0000000
total E       :     -50.4739540
atomizationE  :       5.0042581     3140.22
(atE without considering molecular charge,
 total energy contains solvation terms)
H-L gap (eV)  :          9.4165
optimized geometry written to: xtbopt.xyz


------------------------------------------------------------------------
 * finished run on 2019/09/16 at 12:52:22.555     
------------------------------------------------------------------------
 total:
 * wall-time:     0 d,  0 h,  0 min,  3.471 sec
 *  cpu-time:     0 d,  0 h,  0 min,  3.379 sec
 * ratio c/w:     0.974 speedup
 SCF:
 * wall-time:     0 d,  0 h,  0 min,  0.523 sec
 *  cpu-time:     0 d,  0 h,  0 min,  0.518 sec
 * ratio c/w:     0.991 speedup
 ANC optimizer:
 * wall-time:     0 d,  0 h,  0 min,  2.892 sec
 *  cpu-time:     0 d,  0 h,  0 min,  2.809 sec
 * ratio c/w:     0.971 speedup

