      -----------------------------------------------------------      
     |                   =====================                   |     
     |                           x T B                           |     
     |                   =====================                   |     
     |                         S. Grimme                         |     
     |          Mulliken Center for Theoretical Chemistry        |     
     |                    University of Bonn                     |     
     |                 Version 6.0.1 (SAW181210)                 |     
      -----------------------------------------------------------      

   This program is distributed in the hope that it will be useful,
   but WITHOUT ANY WARRANTY; without even the implied warranty of
   MERCHANTABILITY or FITNESS FOR A PARTICULAR PURPOSE.
   
   FOR NON-COMMERCIAL, ACADEMIA USE ONLY.
   
   Cite this work as:
   S. Grimme, C. Bannwarth, P. Shushkov, J. Comput. Theory Chem., 2017,
   13, 1989-2009.
   C. Bannwarth, S. Ehlert and S. Grimme., ChemRxiv, 2018, preprint.
   http://doi.org/10.26434/chemrxiv.7246238.v1
   
   for sTDA-xTB:
   S. Grimme and C. Bannwarth, J. Chem. Phys., 2016, 145, 054103.
   
   in the mass-spec context:
   V. Asgeirsson, C. Bauer and S. Grimme, Chem. Sci., 2017, 8, 4879.
   
   if GBSA is used:
   P. Shushkov, F. März and S. Grimme, unpublished.
   
   for ANC optimizer:
   S. Grimme, unpublished.
   Rational Function algorithm used in ANCopt:
   F. Eckert, P. Pulay, H.-J. Werner, J. Comput. Chem., 1997, 18, 1473.
   
   with help from (in alphabetical order)
   C. Bannwarth, F. Bohle, G. Brandenburg, E. Caldeweyher, M. Checinski,
   S. Dohm, S. Ehlert, S. Ehrlich, F. März, H. Neugebauer, J. Pisarek,
   P. Pracht, P. Shushkov, and S. Spicher.
   
 * started run on 2019/09/16 at 13:37:30.055     
========================================================================
 # omp threads = 1
========================================================================
number of atoms            : 26
number of electrons        : 80
charge                     : 0
spin                       : .0
first test random number   : .2128

########################################################################
# WARNING! Please study the warnings concerning your input carefully
#  - XTBPATH is not set, using XTBHOME instead
#  - the use of '-opt' is discouraged, please use '--opt' next time
#  - the use of '-chrg' is discouraged, please use '--chrg' next time
#  - the use of '-uhf' is discouraged, please use '--uhf' next time
########################################################################

           ------------------------------------------------- 
          |                 G F N 2 - x T B                 |
          | Geometry, Frequencies, Noncovalent interactions |
          |            JCTC 2018 parametrisation            |
           ------------------------------------------------- 
      method parameters     
 k(s)        :  1.8500
 k(p)        :  2.2300
 k(d)        :  2.2300
 k(f)        :  2.0000
 kEN (H0ij)  : -2.0000
 D4 a1       :  0.5200
 D4 a2       :  5.0000
 D4 s6       :  1.0000
 D4 s8       :  2.7000
 D4 s9       :  5.0000
 alphaj      :  2.0000


            Z     q(EN)     CN     RAES       Cart. coordinates
     1  S   6.0    0.64    4.27    4.19     0.28837     4.74773    -0.71788
     2  O   6.0   -0.31    1.22    1.80     0.28333     4.69702     2.09735
     3  O   6.0   -0.31    1.21    1.80     2.89274     4.24193    -1.66105
     4  O   6.0   -0.32    1.16    1.80    -1.46397     2.77238    -1.69532
     5  O   6.0   -0.25    2.08    1.84    -0.54701     7.24494    -1.60026
     6  H   1.0    0.15    1.21    1.47     0.58152     8.51830    -0.97092
     7  O   6.0   -0.39    1.68    1.81     2.71283    -2.35775     2.31482
     8  H   1.0    0.17    0.95    1.42     3.92280    -2.98905     3.58808
     9  O   6.0   -0.30    2.00    1.83    -0.43327    -4.95964    -0.07203
    10  H   1.0    0.18    1.12    1.45     0.84716    -4.04363     0.84232
    11  H   1.0    0.14    0.97    1.43    -0.38480    -6.65216     0.59704
    12  O   6.0   -0.28    2.03    1.83    -0.06712    -2.05436    -4.43086
    13  H   1.0    0.16    0.98    1.43    -1.11092    -0.56882    -4.29572
    14  H   1.0    0.15    0.99    1.43    -0.91370    -3.32899    -3.44434
    15  O   6.0   -0.22    2.92    2.58     3.83747    -0.63109    -1.73969
    16  H   1.0    0.15    1.06    1.44     3.89519     1.23575    -1.70176
    17  H   1.0    0.16    1.20    1.47     3.58110    -1.35858    -0.03821
    18  H   1.0    0.14    1.05    1.44     2.58123    -1.26701    -2.96809
    19  O   6.0   -0.22    2.92    2.60    -0.60663     0.26841     4.00427
    20  H   1.0    0.15    1.07    1.44    -0.18616     2.06702     3.72486
    21  H   1.0    0.13    1.07    1.44    -2.19504    -0.22026     3.15094
    22  H   1.0    0.16    1.19    1.46     0.80960    -0.86040     3.54428
    23  N   5.0   -0.22    3.05    1.93    -4.47891    -1.02157     0.91271
    24  H   1.0    0.11    0.99    1.43    -6.35771    -1.17903     0.51726
    25  H   1.0    0.11    1.00    1.43    -3.67541    -2.66023     0.29607
    26  H   1.0    0.13    1.02    1.43    -3.81269     0.35909    -0.25391

  Z AO/shell   Hii/eV     exponent
  1     Wed Apr 25 08:07:45 CEST 2018   EN: 2.200 GM2: 0.406  GM3: 0.0800  RAES: 1.40
     1s    -10.707211    1.230000
  7     Wed Apr 25 08:07:45 CEST 2018   EN: 3.040 GM2: 0.461  GM3:-0.0640  RAES: 1.90
     2s    -16.686243    2.339881
     2p    -12.523956    2.014332
  8     Wed Apr 25 08:07:45 CEST 2018   EN: 3.440 GM2: 0.452  GM3:-0.0517  RAES: 1.80
     2s    -20.229985    2.439742
     2p    -15.503117    2.137023
 16     Tue Apr 24 11:44:34 CEST 2018   EN: 2.580 GM2: 0.340  GM3:-0.0502  RAES: 3.10
     3s    -20.029654    1.981333
     3p    -11.377694    2.025643
     3d     -0.420282    1.702555
 no old-style atom pair restraining (fixing) potential

molecular fragmentation (1/2 indicates fragments):
11111122222222222222222222
# atoms in fragment 1/2:     6    20
 fragment masses (1/2) :       97.07      108.11
CMA distance (Bohr)    :   6.614
constraining FC (au)   :  0.0500
           ------------------------------------------------- 
          |        Self-Consistent Charge Iterations        |
           ------------------------------------------------- 

 Ncao       : 65
 Nao        : 64
 Nshell     : 38
 Nel        : 80
 T(el)      :   300.0
 intcut     :    25.0
 scfconv/Eh :  0.100E-05
   qconv/e  :  0.100E-03
 intneglect :  0.100E-07
 broydamp   :      0.250
 iter      E             dE          RMSdq      gap      omega  full diag
   1    -50.5908915 -0.505909E+02  0.703E+00   10.20       0.0  T
   2    -50.6403454 -0.494539E-01  0.506E+00    9.61       1.0  T
   3    -50.6766611 -0.363156E-01  0.134E+00    8.13       1.0  T
   4    -50.6820723 -0.541124E-02  0.553E-01    8.50       1.0  T
   5    -50.6826677 -0.595364E-03  0.312E-01    8.50       1.0  T
   6    -50.6831013 -0.433588E-03  0.132E-01    8.58       1.0  T
   7    -50.6831950 -0.936735E-04  0.485E-02    8.56       1.0  T
   8    -50.6832057 -0.107797E-04  0.310E-02    8.55       1.0  T
   9    -50.6832119 -0.614726E-05  0.971E-03    8.57       2.0  T
  10    -50.6832124 -0.560120E-06  0.223E-03    8.57       8.8  T
  11    -50.6832125 -0.151348E-07  0.117E-03    8.57      16.8  T
  12    -50.6832125 -0.598363E-08  0.518E-04    8.57      37.9  T
  13    -50.6832125 -0.164815E-08  0.145E-04    8.57     135.1  T
speedup  1.00
cpu  time for SCC    0.02 s
wall time for SCC    0.02 s

   *** convergence criteria satisfied after 13 iterations ***

          eigenvalues
 #    :          28         29         30         31         32         33         34         35
 occ. :        2.000      2.000      2.000      2.000      2.000      2.000      2.000      2.000
 eps  :       -12.868    -12.821    -12.285    -11.900    -11.770    -11.675    -11.590    -11.148
 #    :          36         37         38         39         40         41         42         43
 occ. :        2.000      2.000      2.000      2.000      2.000      0.000      0.000      0.000
 eps  :       -11.125    -10.993    -10.848    -10.730    -10.367     -1.797     -0.347     -0.039
 #    :          44         45         46         47         48         49         50         51
 occ. :        0.000      0.000      0.000      0.000      0.000      0.000      0.000      0.000
 eps  :         0.841      0.956      1.439      2.231      3.188      3.793      3.978      4.839


   #   Z            q   n(s)   n(p)   n(d)      C6AA      α(0)
   1  16 S      1.590  1.585  1.846  0.979    91.318    16.084
   2   8 O     -0.761  1.774  4.986  0.000    30.414     7.394
   3   8 O     -0.757  1.776  4.981  0.000    30.324     7.383
   4   8 O     -0.739  1.765  4.974  0.000    29.793     7.318
   5   8 O     -0.543  1.719  4.824  0.000    23.832     6.590
   6   1 H      0.359  0.641  0.000  0.000     0.559     1.170
   7   8 O     -0.851  1.828  5.022  0.000    33.088     7.715
   8   1 H      0.214  0.786  0.000  0.000     1.051     1.610
   9   8 O     -0.652  1.751  4.900  0.000    26.457     6.942
  10   1 H      0.337  0.663  0.000  0.000     0.617     1.233
  11   1 H      0.263  0.737  0.000  0.000     0.843     1.442
  12   8 O     -0.591  1.738  4.854  0.000    24.983     6.746
  13   1 H      0.315  0.685  0.000  0.000     0.679     1.294
  14   1 H      0.324  0.676  0.000  0.000     0.653     1.269
  15   8 O     -0.461  1.658  4.803  0.000    22.007     6.336
  16   1 H      0.391  0.609  0.000  0.000     0.502     1.113
  17   1 H      0.404  0.596  0.000  0.000     0.471     1.075
  18   1 H      0.397  0.603  0.000  0.000     0.491     1.101
  19   8 O     -0.457  1.654  4.803  0.000    21.923     6.324
  20   1 H      0.395  0.605  0.000  0.000     0.495     1.105
  21   1 H      0.387  0.613  0.000  0.000     0.510     1.122
  22   1 H      0.401  0.599  0.000  0.000     0.477     1.082
  23   7 N     -0.476  1.389  4.087  0.000    32.589     8.478
  24   1 H      0.144  0.856  0.000  0.000     1.443     1.881
  25   1 H      0.177  0.823  0.000  0.000     1.230     1.737
  26   1 H      0.191  0.809  0.000  0.000     1.152     1.682

 Mol. C6AA /au·bohr⁶  :       5512.552111
 Mol. C8AA /au·bohr⁸  :     119403.255481
 Mol. α(0) /au        :        107.228184

 
 Wiberg/Mayer (AO) data. WBOs > 0.1 written file <wbo>
 largest (>0.05) Wiberg bond orders for each atom
           total WBO             WBO to atom ...
     1  S   4.922    O    4 1.339    O    3 1.279    O    2 1.275    O    5 0.997
     2  O   1.686    S    1 1.275    O    4 0.115    O    3 0.111    H   20 0.083    O    5 0.071
     3  O   1.689    S    1 1.279    O    4 0.114    O    2 0.111    H   16 0.080    O    5 0.071
     4  O   1.685    S    1 1.339    O    2 0.115    O    3 0.114    O    5 0.056
     5  O   2.048    S    1 0.997    H    6 0.847    O    3 0.071    O    2 0.071    O    4 0.056
     6  H   0.871    O    5 0.847
     7  O   1.616    H    8 0.942    H   22 0.198    H   17 0.191    H   10 0.105    O   19 0.064    O   15 0.060
     8  H   0.954    O    7 0.942
     9  O   1.808    H   11 0.925    H   10 0.778
    10  H   0.886    O    9 0.778    O    7 0.105
    11  H   0.931    O    9 0.925
    12  O   1.914    H   13 0.890    H   14 0.872    H   18 0.094
    13  H   0.901    O   12 0.890
    14  H   0.895    O   12 0.872
    15  O   2.282    H   16 0.759    H   18 0.744    H   17 0.641    O    7 0.060
    16  H   0.847    O   15 0.759    O    3 0.080
    17  H   0.837    O   15 0.641    O    7 0.191
    18  H   0.843    O   15 0.744    O   12 0.094
    19  O   2.286    H   21 0.755    H   20 0.753    H   22 0.638    O    7 0.064
    20  H   0.844    O   19 0.753    O    2 0.083
    21  H   0.851    O   19 0.755    N   23 0.088
    22  H   0.839    O   19 0.638    O    7 0.198
    23  N   3.011    H   24 0.971    H   25 0.951    H   26 0.935    H   21 0.088
    24  H   0.979    N   23 0.971
    25  H   0.969    N   23 0.951
    26  H   0.963    N   23 0.935
 MOs/occ written to file <molden.input>
 
molecular dipole:
                 x           y           z       tot (Debye)
 q only:       -0.230      -0.824       0.605
   full:       -0.436      -0.314       0.458       1.794
molecular quadrupole (traceless):
                xx          xy          yy          xz          yz          zz
 q only:        0.220       1.335       2.018      -1.968      -0.469      -2.238
  q+dip:       -2.046       1.972      11.431       3.765      -4.184      -9.386
   full:       -2.218       1.946      12.226       3.958      -4.547     -10.008

SCC energy    :     -50.6832125
rep           :       0.2894765
ES            :       0.2874501
AES           :      -0.0684413
AXC           :      -0.0076558
disp          :      -0.0188737
XB            :       0.0000000
fix           :       0.0000000
total E       :     -50.3933572
atomizationE  :       4.9236614     3089.64
(atE without considering molecular charge,
 total energy contains solvation terms)
H-L gap (eV)  :          8.5705
           ------------------------------------------------- 
          |                 ===============                 |
          |                   A N C O P T                   |
          |                 ===============                 |
          |          Approximate Normal Coordinate          |
          |           Rational Function Optimizer           |
           ------------------------------------------------- 
dumping coords to <xtbopt.coord> and <xtbopt.log>
 optlevel               2
 Maxcycle             520
 Maxmicro              25
 Econv         1.000000000000000E-007
 Gconv         2.000000000000000E-004
 Maxdispl       1.00000000000000     
 Hlow          5.000000000000000E-003
 S6             20.0000000000000     
 Nvar               72

generating ANC from model Hessian ...
 Shifting diagonal of input Hessian by   5.187097853952166E-003
 Lowest  eigenvalues of input Hessian
    0.005000   -0.000000   -0.000000   -0.000000    0.000000    0.000000
    0.000000    0.005675    0.006080    0.006595    0.006642    0.007003
    0.007283    0.007561    0.008325    0.008753    0.009100    0.009596
 Highest eigenvalues
    1.561838    1.582635    1.587361    3.137421    3.215823    3.310889
 
cpu  time for ANC gen    0.03 s
wall time for ANC gen    0.03 s
................................................................................
.............................. CYCLE    1 ......................................
................................................................................
   1    -50.6832125 -0.506832E+02  0.732E-05    8.57       0.0  T
   2    -50.6832125 -0.121076E-10  0.557E-05    8.57     351.8  T
   3    -50.6832125 -0.110703E-10  0.270E-05    8.57     726.8  T
speedup  0.94
cpu  time for SCC    0.00 s
wall time for SCC    0.00 s
speedup  1.00
cpu  time for grad    0.01 s
wall time for grad    0.01 s
 E :    -50.39335719  G :  0.199656    pred/act E change:  0.000D+00  0.463D-07
Maxdispl :   0.1177   ||displ|| :   0.3587   Lambda : -0.318D-01
Largest |displ|/coords:  0.1177 (  24)  0.1164 (  23)  0.1126 (  54)
................................................................................
.............................. CYCLE    2 ......................................
................................................................................
   1    -50.6923099 -0.506923E+02  0.318E-01    8.64       0.0  T
   2    -50.6925113 -0.201407E-03  0.242E-01    8.68       1.0  T
   3    -50.6926043 -0.929903E-04  0.881E-02    8.75       1.0  T
   4    -50.6926174 -0.130631E-04  0.213E-02    8.75       1.0  T
   5    -50.6926190 -0.164258E-05  0.642E-03    8.74       3.1  T
   6    -50.6926191 -0.655239E-07  0.325E-03    8.74       6.0  T
   7    -50.6926191 -0.308646E-07  0.136E-03    8.74      14.5  T
speedup  1.03
cpu  time for SCC    0.01 s
wall time for SCC    0.01 s
speedup  1.00
cpu  time for grad    0.01 s
wall time for grad    0.01 s
 E :    -50.41861368  G :  0.121504    pred/act E change:  0.000D+00 -0.253D-01
Maxdispl :   0.1560   ||displ|| :   0.4154   Lambda : -0.170D-01
Largest |displ|/coords:  0.1560 (   1)  0.1354 (  24)  0.1211 (  23)
................................................................................
.............................. CYCLE    3 ......................................
................................................................................
   1    -50.6964383 -0.506964E+02  0.283E-01    8.77       0.0  T
   2    -50.6967080 -0.269727E-03  0.210E-01    8.81       1.0  T
   3    -50.6968237 -0.115671E-03  0.886E-02    8.83       1.0  T
   4    -50.6968336 -0.995859E-05  0.194E-02    8.82       1.0  T
   5    -50.6968347 -0.109228E-05  0.606E-03    8.82       3.2  T
   6    -50.6968348 -0.549831E-07  0.317E-03    8.82       6.2  T
   7    -50.6968348 -0.289078E-07  0.125E-03    8.82      15.6  T
speedup  1.01
cpu  time for SCC    0.01 s
wall time for SCC    0.01 s
speedup  0.99
cpu  time for grad    0.01 s
wall time for grad    0.02 s
 E :    -50.43209155  G :  0.074994    pred/act E change: -0.179D-01 -0.135D-01
Maxdispl :   0.2274   ||displ|| :   0.4362   Lambda : -0.839D-02
Largest |displ|/coords:  0.2274 (   1)  0.1517 (  12)  0.1461 (  24)
................................................................................
.............................. CYCLE    4 ......................................
................................................................................
   1    -50.6976694 -0.506977E+02  0.255E-01    8.76       0.0  T
   2    -50.6978923 -0.222909E-03  0.185E-01    8.76       1.0  T
   3    -50.6979853 -0.929959E-04  0.725E-02    8.76       1.0  T
   4    -50.6979944 -0.905046E-05  0.143E-02    8.76       1.4  T
   5    -50.6979948 -0.385840E-06  0.481E-03    8.76       4.1  T
   6    -50.6979948 -0.301533E-07  0.259E-03    8.76       7.6  T
speedup  0.85
cpu  time for SCC    0.00 s
wall time for SCC    0.01 s
speedup  0.99
cpu  time for grad    0.01 s
wall time for grad    0.01 s
 E :    -50.43860504  G :  0.048385    pred/act E change: -0.997D-02 -0.651D-02
Maxdispl :   0.2240   ||displ|| :   0.4763   Lambda : -0.610D-02
Largest |displ|/coords:  0.2240 (   1)  0.1772 (  12)  0.1655 (  19)
................................................................................
.............................. CYCLE    5 ......................................
................................................................................
   1    -50.6997660 -0.506998E+02  0.294E-01    8.68       0.0  T
   2    -50.7000499 -0.283811E-03  0.212E-01    8.70       1.0  T
   3    -50.7001653 -0.115434E-03  0.797E-02    8.73       1.0  T
   4    -50.7001782 -0.128769E-04  0.172E-02    8.73       1.1  T
   5    -50.7001786 -0.450776E-06  0.446E-03    8.73       4.4  T
   6    -50.7001786 -0.286378E-07  0.261E-03    8.73       7.5  T
speedup  1.03
cpu  time for SCC    0.01 s
wall time for SCC    0.01 s
speedup  0.99
cpu  time for grad    0.01 s
wall time for grad    0.01 s
 E :    -50.44263071  G :  0.023882    pred/act E change: -0.499D-02 -0.403D-02
Maxdispl :   0.1849   ||displ|| :   0.4064   Lambda : -0.228D-02
Largest |displ|/coords:  0.1849 (  12)  0.1804 (   1)  0.1145 (  24)
................................................................................
.............................. CYCLE    6 ......................................
................................................................................
   1    -50.6969650 -0.506970E+02  0.282E-01    8.61       0.0  T
   2    -50.6970546 -0.895894E-04  0.210E-01    8.64       1.0  T
   3    -50.6970951 -0.405490E-04  0.495E-02    8.69       1.0  T
   4    -50.6971067 -0.115908E-04  0.155E-02    8.68       1.3  T
   5    -50.6971071 -0.369252E-06  0.462E-03    8.68       4.2  T
   6    -50.6971071 -0.271685E-07  0.246E-03    8.68       8.0  T
speedup  1.00
cpu  time for SCC    0.01 s
wall time for SCC    0.01 s
speedup  0.97
cpu  time for grad    0.01 s
wall time for grad    0.01 s
 E :    -50.44374217  G :  0.027418    pred/act E change: -0.374D-02 -0.111D-02
Maxdispl :   0.1657   ||displ|| :   0.3636   Lambda : -0.221D-02
Largest |displ|/coords:  0.1657 (   2)  0.1514 (  10)  0.1338 (  19)
................................................................................
.............................. CYCLE    7 ......................................
................................................................................
   1    -50.7069523 -0.507070E+02  0.234E-01    8.72       0.0  T
   2    -50.7070179 -0.656029E-04  0.174E-01    8.75       1.0  T
   3    -50.7070493 -0.314508E-04  0.418E-02    8.82       1.0  T
   4    -50.7070576 -0.827304E-05  0.124E-02    8.82       1.6  T
   5    -50.7070579 -0.257190E-06  0.366E-03    8.82       5.4  T
   6    -50.7070579 -0.133970E-07  0.204E-03    8.81       9.6  T
speedup  1.03
cpu  time for SCC    0.01 s
wall time for SCC    0.01 s
speedup  0.99
cpu  time for grad    0.01 s
wall time for grad    0.01 s
 E :    -50.44437484  G :  0.026522    pred/act E change: -0.133D-02 -0.633D-03
Maxdispl :   0.0824   ||displ|| :   0.1854   Lambda : -0.111D-02
Largest |displ|/coords:  0.0824 (   4)  0.0606 (   1)  0.0576 (   2)
................................................................................
.............................. CYCLE    8 ......................................
................................................................................
   1    -50.7073834 -0.507074E+02  0.163E-01    8.82       0.0  T
   2    -50.7074015 -0.181214E-04  0.122E-01    8.82       1.0  T
   3    -50.7074095 -0.796745E-05  0.234E-02    8.81       1.0  T
   4    -50.7074126 -0.306956E-05  0.620E-03    8.81       3.2  T
   5    -50.7074127 -0.789409E-07  0.213E-03    8.81       9.2  T
   6    -50.7074127 -0.207166E-08  0.105E-03    8.81      18.7  T
speedup  1.03
cpu  time for SCC    0.01 s
wall time for SCC    0.01 s
speedup  1.06
cpu  time for grad    0.01 s
wall time for grad    0.01 s
 E :    -50.44489383  G :  0.019302    pred/act E change: -0.125D-02 -0.519D-03
Maxdispl :   0.1266   ||displ|| :   0.2665   Lambda : -0.111D-02
Largest |displ|/coords:  0.1266 (  10)  0.0949 (   2)  0.0947 (   4)
................................................................................
.............................. CYCLE    9 ......................................
................................................................................
   1    -50.7052610 -0.507053E+02  0.144E-01    8.80       0.0  T
   2    -50.7052842 -0.231998E-04  0.106E-01    8.81       1.0  T
   3    -50.7052927 -0.858374E-05  0.259E-02    8.83       1.0  T
   4    -50.7052956 -0.282410E-05  0.701E-03    8.82       2.8  T
   5    -50.7052957 -0.844229E-07  0.220E-03    8.82       8.9  T
   6    -50.7052957 -0.515060E-08  0.113E-03    8.82      17.4  T
speedup  0.98
cpu  time for SCC    0.01 s
wall time for SCC    0.01 s
speedup  0.97
cpu  time for grad    0.01 s
wall time for grad    0.01 s
 E :    -50.44528453  G :  0.015229    pred/act E change: -0.572D-03 -0.391D-03
Maxdispl :   0.0842   ||displ|| :   0.1764   Lambda : -0.627D-03
Largest |displ|/coords:  0.0842 (   2)  0.0660 (  24)  0.0513 (   4)
................................................................................
.............................. CYCLE   10 ......................................
................................................................................
   1    -50.7073720 -0.507074E+02  0.141E-01    8.84       0.0  T
   2    -50.7073889 -0.169083E-04  0.105E-01    8.84       1.0  T
   3    -50.7073987 -0.971929E-05  0.225E-02    8.85       1.0  T
   4    -50.7074011 -0.244179E-05  0.475E-03    8.86       4.1  T
   5    -50.7074011 -0.322558E-07  0.226E-03    8.85       8.7  T
   6    -50.7074011 -0.620391E-08  0.977E-04    8.85      20.1  T
speedup  1.02
cpu  time for SCC    0.01 s
wall time for SCC    0.01 s
speedup  0.99
cpu  time for grad    0.01 s
wall time for grad    0.01 s
 E :    -50.44554933  G :  0.017624    pred/act E change: -0.595D-03 -0.265D-03
Maxdispl :   0.1138   ||displ|| :   0.2820   Lambda : -0.101D-02
Largest |displ|/coords:  0.1138 (   2)  0.1106 (   9)  0.0913 (  24)
................................................................................
.............................. CYCLE   11 ......................................
................................................................................
   1    -50.7121880 -0.507122E+02  0.188E-01    8.92       0.0  T
   2    -50.7122343 -0.462040E-04  0.138E-01    8.92       1.0  T
   3    -50.7122560 -0.217774E-04  0.359E-02    8.93       1.0  T
   4    -50.7122615 -0.546761E-05  0.733E-03    8.94       2.7  T
   5    -50.7122616 -0.651511E-07  0.320E-03    8.94       6.1  T
   6    -50.7122616 -0.134299E-07  0.137E-03    8.94      14.3  T
   7    -50.7122616 -0.353701E-08  0.490E-04    8.94      40.0  T
speedup  0.87
cpu  time for SCC    0.01 s
wall time for SCC    0.01 s
speedup  0.99
cpu  time for grad    0.01 s
wall time for grad    0.02 s
 E :    -50.44564978  G :  0.024911    pred/act E change: -0.323D-03 -0.100D-03
Maxdispl :   0.1326   ||displ|| :   0.2412   Lambda : -0.115D-02
Largest |displ|/coords:  0.1326 (   2)  0.0721 (   7)  0.0658 (   4)
................................................................................
.............................. CYCLE   12 ......................................
................................................................................
   1    -50.7079648 -0.507080E+02  0.191E-01    8.91       0.0  T
   2    -50.7079903 -0.254788E-04  0.140E-01    8.94       1.0  T
   3    -50.7080019 -0.116077E-04  0.262E-02    8.99       1.0  T
   4    -50.7080052 -0.334945E-05  0.723E-03    8.98       2.7  T
   5    -50.7080053 -0.701922E-07  0.276E-03    8.98       7.1  T
   6    -50.7080053 -0.884509E-08  0.128E-03    8.98      15.3  T
speedup  1.02
cpu  time for SCC    0.01 s
wall time for SCC    0.01 s
speedup  1.06
cpu  time for grad    0.01 s
wall time for grad    0.01 s
 E :    -50.44602517  G :  0.018526    pred/act E change: -0.544D-03 -0.375D-03
Maxdispl :   0.0904   ||displ|| :   0.2141   Lambda : -0.103D-02
Largest |displ|/coords:  0.0904 (   1)  0.0798 (  18)  0.0779 (  10)
................................................................................
.............................. CYCLE   13 ......................................
................................................................................
   1    -50.7116683 -0.507117E+02  0.139E-01    9.00       0.0  T
   2    -50.7116861 -0.177675E-04  0.103E-01    8.99       1.0  T
   3    -50.7116939 -0.782474E-05  0.228E-02    8.96       1.0  T
   4    -50.7116965 -0.253170E-05  0.725E-03    8.97       2.7  T
   5    -50.7116965 -0.733170E-07  0.209E-03    8.97       9.4  T
   6    -50.7116965 -0.363937E-08  0.110E-03    8.97      17.8  T
speedup  1.03
cpu  time for SCC    0.01 s
wall time for SCC    0.01 s
speedup  0.99
cpu  time for grad    0.01 s
wall time for grad    0.01 s
 E :    -50.44621560  G :  0.022039    pred/act E change: -0.606D-03 -0.190D-03
Maxdispl :   0.0700   ||displ|| :   0.1677   Lambda : -0.769D-03
Largest |displ|/coords:  0.0700 (  24)  0.0548 (   2)  0.0539 (   4)
................................................................................
.............................. CYCLE   14 ......................................
................................................................................
   1    -50.7104922 -0.507105E+02  0.123E-01    8.97       0.0  T
   2    -50.7105096 -0.173620E-04  0.906E-02    8.99       1.0  T
   3    -50.7105181 -0.853844E-05  0.213E-02    9.01       1.0  T
   4    -50.7105204 -0.227170E-05  0.557E-03    9.01       3.5  T
   5    -50.7105204 -0.416412E-07  0.219E-03    9.01       9.0  T
speedup  1.02
cpu  time for SCC    0.00 s
wall time for SCC    0.00 s
speedup  0.98
cpu  time for grad    0.01 s
wall time for grad    0.01 s
 E :    -50.44669547  G :  0.014389    pred/act E change: -0.538D-03 -0.480D-03
Maxdispl :   0.1345   ||displ|| :   0.2607   Lambda : -0.676D-03
Largest |displ|/coords:  0.1345 (   2)  0.0882 (   9)  0.0790 (  24)
................................................................................
.............................. CYCLE   15 ......................................
................................................................................
   1    -50.7105398 -0.507105E+02  0.169E-01    9.07       0.0  T
   2    -50.7105995 -0.596969E-04  0.123E-01    9.09       1.0  T
   3    -50.7106277 -0.282102E-04  0.373E-02    9.13       1.0  T
   4    -50.7106332 -0.550065E-05  0.877E-03    9.13       2.2  T
   5    -50.7106333 -0.125802E-06  0.370E-03    9.13       5.3  T
   6    -50.7106333 -0.154907E-07  0.174E-03    9.13      11.3  T
   7    -50.7106333 -0.475360E-08  0.395E-04    9.13      49.7  T
speedup  1.03
cpu  time for SCC    0.01 s
wall time for SCC    0.01 s
speedup  1.05
cpu  time for grad    0.02 s
wall time for grad    0.02 s
 E :    -50.44716247  G :  0.020966    pred/act E change: -0.395D-03 -0.467D-03
Maxdispl :   0.2304   ||displ|| :   0.4328   Lambda : -0.147D-02
Largest |displ|/coords:  0.2304 (   2)  0.1357 (   1)  0.1199 (  28)
................................................................................
.............................. CYCLE   16 ......................................
................................................................................
   1    -50.7162757 -0.507163E+02  0.285E-01    9.26       0.0  T
   2    -50.7164609 -0.185167E-03  0.209E-01    9.30       1.0  T
   3    -50.7165634 -0.102569E-03  0.674E-02    9.36       1.0  T
   4    -50.7165808 -0.173357E-04  0.182E-02    9.36       1.1  T
   5    -50.7165813 -0.533764E-06  0.743E-03    9.36       2.6  T
   6    -50.7165814 -0.502353E-07  0.328E-03    9.36       6.0  T
   7    -50.7165814 -0.185609E-07  0.723E-04    9.36      27.1  T
speedup  1.03
cpu  time for SCC    0.01 s
wall time for SCC    0.01 s
speedup  0.99
cpu  time for grad    0.01 s
wall time for grad    0.02 s
 E :    -50.44820683  G :  0.030678    pred/act E change: -0.361D-03 -0.104D-02
Maxdispl :   0.1510   ||displ|| :   0.3772   Lambda : -0.241D-02
Largest |displ|/coords:  0.1510 (  28)  0.1113 (   2)  0.1011 (  49)
................................................................................
.............................. CYCLE   17 ......................................
................................................................................
   1    -50.7256318 -0.507256E+02  0.290E-01    9.55       0.0  T
   2    -50.7257809 -0.149105E-03  0.218E-01    9.54       1.0  T
   3    -50.7258829 -0.101960E-03  0.655E-02    9.47       1.0  T
   4    -50.7258998 -0.169300E-04  0.195E-02    9.47       1.0  T
   5    -50.7259004 -0.573268E-06  0.759E-03    9.47       2.6  T
   6    -50.7259004 -0.308103E-07  0.329E-03    9.47       6.0  T
   7    -50.7259005 -0.186916E-07  0.699E-04    9.47      28.0  T
speedup  1.03
cpu  time for SCC    0.01 s
wall time for SCC    0.01 s
speedup  1.05
cpu  time for grad    0.02 s
wall time for grad    0.02 s
 E :    -50.44942572  G :  0.037206    pred/act E change: -0.875D-03 -0.122D-02
Maxdispl :   0.1829   ||displ|| :   0.3456   Lambda : -0.380D-02
Largest |displ|/coords:  0.1829 (  24)  0.1154 (   9)  0.0977 (   4)
................................................................................
.............................. CYCLE   18 ......................................
................................................................................
   1    -50.7384996 -0.507385E+02  0.215E-01    9.50       0.0  T
   2    -50.7385510 -0.513608E-04  0.159E-01    9.48       1.0  T
   3    -50.7385883 -0.373594E-04  0.404E-02    9.45       1.0  T
   4    -50.7385932 -0.485699E-05  0.103E-02    9.45       1.9  T
   5    -50.7385933 -0.174237E-06  0.437E-03    9.45       4.5  T
   6    -50.7385934 -0.245932E-07  0.198E-03    9.45       9.9  T
speedup  1.02
cpu  time for SCC    0.01 s
wall time for SCC    0.01 s
speedup  0.99
cpu  time for grad    0.01 s
wall time for grad    0.01 s
 E :    -50.45079118  G :  0.044057    pred/act E change: -0.137D-02 -0.137D-02
Maxdispl :   0.1366   ||displ|| :   0.3019   Lambda : -0.420D-02
Largest |displ|/coords:  0.1366 (  12)  0.1176 (   4)  0.1002 (  11)
................................................................................
.............................. CYCLE   19 ......................................
................................................................................
   1    -50.7218456 -0.507218E+02  0.262E-01    9.15       0.0  T
   2    -50.7219308 -0.851102E-04  0.193E-01    9.13       1.0  T
   3    -50.7219739 -0.431858E-04  0.510E-02    9.09       1.0  T
   4    -50.7219831 -0.911074E-05  0.176E-02    9.10       1.1  T
   5    -50.7219835 -0.447945E-06  0.464E-03    9.11       4.2  T
   6    -50.7219835 -0.248167E-07  0.269E-03    9.11       7.3  T
speedup  0.86
cpu  time for SCC    0.00 s
wall time for SCC    0.01 s
speedup  0.99
cpu  time for grad    0.01 s
wall time for grad    0.01 s
 E :    -50.45101515  G :  0.046022    pred/act E change: -0.212D-02 -0.224D-03
Maxdispl :   0.1034   ||displ|| :   0.2084   Lambda : -0.346D-02
Largest |displ|/coords:  0.1034 (   1)  0.0577 (  11)  0.0561 (   4)
................................................................................
.............................. CYCLE   20 ......................................
................................................................................
   1    -50.7322996 -0.507323E+02  0.160E-01    9.17       0.0  T
   2    -50.7323511 -0.514722E-04  0.117E-01    9.17       1.0  T
   3    -50.7323816 -0.305038E-04  0.374E-02    9.18       1.0  T
   4    -50.7323862 -0.463974E-05  0.108E-02    9.19       1.8  T
   5    -50.7323864 -0.202317E-06  0.417E-03    9.19       4.7  T
   6    -50.7323864 -0.154702E-07  0.178E-03    9.18      11.0  T
speedup  0.98
cpu  time for SCC    0.01 s
wall time for SCC    0.01 s
speedup  0.97
cpu  time for grad    0.01 s
wall time for grad    0.01 s
 E :    -50.45278784  G :  0.017414    pred/act E change: -0.229D-02 -0.177D-02
Maxdispl :   0.1041   ||displ|| :   0.2560   Lambda : -0.110D-02
Largest |displ|/coords:  0.1041 (   2)  0.0992 (  13)  0.0797 (   1)
................................................................................
.............................. CYCLE   21 ......................................
................................................................................
   1    -50.7375047 -0.507375E+02  0.145E-01    9.22       0.0  T
   2    -50.7375211 -0.164042E-04  0.108E-01    9.22       1.0  T
   3    -50.7375317 -0.105291E-04  0.224E-02    9.21       1.0  T
   4    -50.7375339 -0.219115E-05  0.644E-03    9.21       3.0  T
   5    -50.7375339 -0.567751E-07  0.233E-03    9.21       8.4  T
   6    -50.7375339 -0.453384E-08  0.115E-03    9.21      17.0  T
speedup  1.02
cpu  time for SCC    0.01 s
wall time for SCC    0.01 s
speedup  0.99
cpu  time for grad    0.01 s
wall time for grad    0.01 s
 E :    -50.45319590  G :  0.017745    pred/act E change: -0.180D-02 -0.408D-03
Maxdispl :   0.0825   ||displ|| :   0.1883   Lambda : -0.740D-03
Largest |displ|/coords:  0.0825 (   1)  0.0692 (   2)  0.0570 (   9)
................................................................................
.............................. CYCLE   22 ......................................
................................................................................
   1    -50.7341849 -0.507342E+02  0.121E-01    9.17       0.0  T
   2    -50.7341924 -0.752490E-05  0.908E-02    9.17       1.0  T
   3    -50.7341963 -0.392282E-05  0.149E-02    9.19       1.3  T
   4    -50.7341977 -0.135152E-05  0.567E-03    9.19       3.5  T
   5    -50.7341977 -0.341913E-07  0.150E-03    9.18      13.0  T
   6    -50.7341977 -0.287644E-08  0.835E-04    9.18      23.5  T
speedup  1.03
cpu  time for SCC    0.01 s
wall time for SCC    0.01 s
speedup  0.99
cpu  time for grad    0.01 s
wall time for grad    0.01 s
 E :    -50.45373159  G :  0.013203    pred/act E change: -0.588D-03 -0.536D-03
Maxdispl :   0.0985   ||displ|| :   0.3105   Lambda : -0.104D-02
Largest |displ|/coords:  0.0985 (   3)  0.0941 (  24)  0.0914 (   9)
................................................................................
.............................. CYCLE   23 ......................................
................................................................................
   1    -50.7297320 -0.507297E+02  0.214E-01    9.01       0.0  T
   2    -50.7298310 -0.990308E-04  0.159E-01    9.00       1.0  T
   3    -50.7298646 -0.335498E-04  0.541E-02    8.98       1.0  T
   4    -50.7298751 -0.104685E-04  0.123E-02    8.98       1.6  T
   5    -50.7298753 -0.216896E-06  0.344E-03    8.99       5.7  T
   6    -50.7298753 -0.151511E-07  0.175E-03    8.99      11.2  T
   7    -50.7298753 -0.382552E-08  0.538E-04    8.99      36.5  T
speedup  1.01
cpu  time for SCC    0.01 s
wall time for SCC    0.01 s
speedup  0.99
cpu  time for grad    0.01 s
wall time for grad    0.02 s
 E :    -50.45438985  G :  0.019953    pred/act E change: -0.383D-03 -0.658D-03
Maxdispl :   0.1438   ||displ|| :   0.4149   Lambda : -0.124D-02
Largest |displ|/coords:  0.1438 (   8)  0.1430 (  29)  0.1032 (   2)
................................................................................
.............................. CYCLE   24 ......................................
................................................................................
   1    -50.7296123 -0.507296E+02  0.302E-01    8.91       0.0  T
   2    -50.7298154 -0.203150E-03  0.225E-01    8.92       1.0  T
   3    -50.7298855 -0.701197E-04  0.748E-02    8.94       1.0  T
   4    -50.7299070 -0.214147E-04  0.164E-02    8.94       1.2  T
   5    -50.7299075 -0.532842E-06  0.518E-03    8.94       3.8  T
   6    -50.7299075 -0.356903E-07  0.248E-03    8.94       7.9  T
   7    -50.7299075 -0.923065E-08  0.770E-04    8.94      25.5  T
speedup  1.03
cpu  time for SCC    0.01 s
wall time for SCC    0.01 s
speedup  0.99
cpu  time for grad    0.01 s
wall time for grad    0.02 s
 E :    -50.45529552  G :  0.032551    pred/act E change: -0.573D-03 -0.906D-03
Maxdispl :   0.2131   ||displ|| :   0.5433   Lambda : -0.222D-02
Largest |displ|/coords:  0.2131 (  29)  0.1545 (   8)  0.1435 (  28)
................................................................................
.............................. CYCLE   25 ......................................
................................................................................
   1    -50.7331051 -0.507331E+02  0.411E-01    8.83       0.0  T
   2    -50.7335871 -0.482029E-03  0.301E-01    8.83       1.0  T
   3    -50.7337639 -0.176791E-03  0.112E-01    8.83       1.0  T
   4    -50.7337991 -0.351602E-04  0.232E-02    8.83       1.0  T
   5    -50.7338004 -0.129412E-05  0.772E-03    8.83       2.5  T
   6    -50.7338004 -0.882803E-07  0.344E-03    8.83       5.7  T
   7    -50.7338005 -0.195368E-07  0.109E-03    8.83      18.0  T
speedup  1.03
cpu  time for SCC    0.01 s
wall time for SCC    0.01 s
speedup  0.99
cpu  time for grad    0.01 s
wall time for grad    0.02 s
 E :    -50.45657097  G :  0.043393    pred/act E change: -0.724D-03 -0.128D-02
Maxdispl :   0.0979   ||displ|| :   0.3146   Lambda : -0.365D-02
Largest |displ|/coords:  0.0979 (  23)  0.0891 (  17)  0.0868 (  25)

generating ANC from model Hessian ...
 Shifting diagonal of input Hessian by   4.546420664838298E-003
 Lowest  eigenvalues of input Hessian
   -0.000000   -0.000000   -0.000000   -0.000000    0.000000    0.000000
    0.005000    0.005519    0.005800    0.006725    0.006932    0.007685
    0.008447    0.008939    0.009274    0.010139    0.011478    0.011986
 Highest eigenvalues
    1.427208    1.434854    1.464979    2.470197    3.360394    3.554186
 
cpu  time for ANC gen    0.03 s
wall time for ANC gen    0.03 s
................................................................................
.............................. CYCLE   26 ......................................
................................................................................
   1    -50.7428875 -0.507429E+02  0.181E-01    8.85       0.0  T
   2    -50.7429200 -0.324831E-04  0.134E-01    8.84       1.0  T
   3    -50.7429375 -0.175726E-04  0.313E-02    8.82       1.0  T
   4    -50.7429412 -0.362464E-05  0.119E-02    8.83       1.6  T
   5    -50.7429414 -0.198925E-06  0.298E-03    8.83       6.6  T
   6    -50.7429414 -0.150257E-07  0.168E-03    8.83      11.7  T
   7    -50.7429414 -0.373256E-08  0.609E-04    8.83      32.2  T
   8    -50.7429414 -0.691308E-09  0.161E-04    8.83     121.9  T
speedup  1.04
cpu  time for SCC    0.01 s
wall time for SCC    0.01 s
speedup  0.96
cpu  time for grad    0.02 s
wall time for grad    0.02 s
 E :    -50.45796259  G :  0.038464    pred/act E change:  0.000D+00 -0.139D-02
Maxdispl :   0.1560   ||displ|| :   0.2628   Lambda : -0.289D-02
Largest |displ|/coords:  0.1560 (   7)  0.0876 (  24)  0.0806 (  23)
................................................................................
.............................. CYCLE   27 ......................................
................................................................................
   1    -50.7430647 -0.507431E+02  0.281E-01    8.88       0.0  T
   2    -50.7430911 -0.263600E-04  0.214E-01    8.89       1.0  T
   3    -50.7431089 -0.178177E-04  0.252E-02    8.90       1.0  T
   4    -50.7431136 -0.463591E-05  0.760E-03    8.89       2.6  T
   5    -50.7431137 -0.138210E-06  0.295E-03    8.89       6.6  T
   6    -50.7431137 -0.570404E-08  0.153E-03    8.89      12.8  T
speedup  1.03
cpu  time for SCC    0.01 s
wall time for SCC    0.01 s
speedup  1.00
cpu  time for grad    0.01 s
wall time for grad    0.01 s
 E :    -50.45973736  G :  0.020179    pred/act E change:  0.000D+00 -0.177D-02
Maxdispl :   0.0879   ||displ|| :   0.2672   Lambda : -0.164D-02
Largest |displ|/coords:  0.0879 (  13)  0.0723 (   1)  0.0720 (  20)
................................................................................
.............................. CYCLE   28 ......................................
................................................................................
   1    -50.7457663 -0.507458E+02  0.161E-01    9.07       0.0  T
   2    -50.7457950 -0.286138E-04  0.120E-01    9.08       1.0  T
   3    -50.7458058 -0.108785E-04  0.314E-02    9.10       1.0  T
   4    -50.7458093 -0.344414E-05  0.784E-03    9.09       2.5  T
   5    -50.7458095 -0.191605E-06  0.236E-03    9.09       8.3  T
   6    -50.7458095 -0.498591E-08  0.129E-03    9.09      15.2  T
speedup  1.02
cpu  time for SCC    0.01 s
wall time for SCC    0.01 s
speedup  0.99
cpu  time for grad    0.01 s
wall time for grad    0.01 s
 E :    -50.46063249  G :  0.014069    pred/act E change: -0.155D-02 -0.895D-03
Maxdispl :   0.1170   ||displ|| :   0.2462   Lambda : -0.816D-03
Largest |displ|/coords:  0.1170 (   7)  0.0714 (   5)  0.0708 (  22)
................................................................................
.............................. CYCLE   29 ......................................
................................................................................
   1    -50.7465517 -0.507466E+02  0.160E-01    9.15       0.0  T
   2    -50.7465662 -0.145348E-04  0.121E-01    9.15       1.0  T
   3    -50.7465726 -0.635775E-05  0.223E-02    9.15       1.0  T
   4    -50.7465751 -0.254628E-05  0.660E-03    9.15       3.0  T
   5    -50.7465752 -0.123677E-06  0.176E-03    9.15      11.1  T
   6    -50.7465752 -0.224164E-08  0.965E-04    9.15      20.3  T
speedup  1.02
cpu  time for SCC    0.01 s
wall time for SCC    0.01 s
speedup  0.99
cpu  time for grad    0.01 s
wall time for grad    0.01 s
 E :    -50.46109202  G :  0.011532    pred/act E change: -0.880D-03 -0.460D-03
Maxdispl :   0.0978   ||displ|| :   0.2509   Lambda : -0.687D-03
Largest |displ|/coords:  0.0978 (   3)  0.0893 (  15)  0.0806 (   6)
................................................................................
.............................. CYCLE   30 ......................................
................................................................................
   1    -50.7480352 -0.507480E+02  0.126E-01    9.19       0.0  T
   2    -50.7480432 -0.798676E-05  0.952E-02    9.19       1.0  T
   3    -50.7480466 -0.338985E-05  0.162E-02    9.19       1.2  T
   4    -50.7480480 -0.138618E-05  0.608E-03    9.19       3.2  T
   5    -50.7480481 -0.728704E-07  0.152E-03    9.19      12.9  T
   6    -50.7480481 -0.267327E-08  0.872E-04    9.19      22.5  T
speedup  1.00
cpu  time for SCC    0.01 s
wall time for SCC    0.01 s
speedup  0.98
cpu  time for grad    0.01 s
wall time for grad    0.01 s
 E :    -50.46152605  G :  0.009174    pred/act E change: -0.433D-03 -0.434D-03
Maxdispl :   0.0976   ||displ|| :   0.2605   Lambda : -0.453D-03
Largest |displ|/coords:  0.0976 (   1)  0.0970 (  15)  0.0913 (   9)
................................................................................
.............................. CYCLE   31 ......................................
................................................................................
   1    -50.7485700 -0.507486E+02  0.107E-01    9.20       0.0  T
   2    -50.7485751 -0.512856E-05  0.808E-02    9.19       1.0  T
   3    -50.7485785 -0.341266E-05  0.127E-02    9.19       1.5  T
   4    -50.7485792 -0.752785E-06  0.614E-03    9.19       3.2  T
   5    -50.7485793 -0.535643E-07  0.128E-03    9.19      15.3  T
   6    -50.7485793 -0.194098E-08  0.772E-04    9.19      25.4  T
speedup  1.02
cpu  time for SCC    0.01 s
wall time for SCC    0.01 s
speedup  1.06
cpu  time for grad    0.01 s
wall time for grad    0.01 s
 E :    -50.46179054  G :  0.009120    pred/act E change: -0.365D-03 -0.264D-03
Maxdispl :   0.1185   ||displ|| :   0.2648   Lambda : -0.359D-03
Largest |displ|/coords:  0.1185 (   3)  0.1040 (  15)  0.0825 (  16)
................................................................................
.............................. CYCLE   32 ......................................
................................................................................
   1    -50.7476809 -0.507477E+02  0.129E-01    9.16       0.0  T
   2    -50.7476843 -0.334034E-05  0.973E-02    9.16       1.0  T
   3    -50.7476876 -0.330290E-05  0.103E-02    9.17       1.9  T
   4    -50.7476879 -0.314783E-06  0.516E-03    9.17       3.8  T
   5    -50.7476879 -0.280591E-07  0.116E-03    9.17      16.9  T
   6    -50.7476879 -0.160853E-08  0.757E-04    9.17      25.9  T
speedup  1.02
cpu  time for SCC    0.01 s
wall time for SCC    0.01 s
speedup  0.99
cpu  time for grad    0.01 s
wall time for grad    0.01 s
 E :    -50.46201555  G :  0.008394    pred/act E change: -0.242D-03 -0.225D-03
Maxdispl :   0.0808   ||displ|| :   0.1756   Lambda : -0.200D-03
Largest |displ|/coords:  0.0808 (   1)  0.0722 (  16)  0.0606 (  15)
................................................................................
.............................. CYCLE   33 ......................................
................................................................................
   1    -50.7478533 -0.507479E+02  0.931E-02    9.12       0.0  T
   2    -50.7478558 -0.253749E-05  0.704E-02    9.13       1.0  T
   3    -50.7478577 -0.182118E-05  0.102E-02    9.14       1.9  T
   4    -50.7478580 -0.368537E-06  0.400E-03    9.14       4.9  T
   5    -50.7478580 -0.165619E-07  0.968E-04    9.13      20.3  T
   6    -50.7478580 -0.969841E-09  0.548E-04    9.13      35.8  T
speedup  1.02
cpu  time for SCC    0.01 s
wall time for SCC    0.01 s
speedup  0.99
cpu  time for grad    0.01 s
wall time for grad    0.01 s
 E :    -50.46212630  G :  0.006099    pred/act E change: -0.192D-03 -0.111D-03
Maxdispl :   0.0604   ||displ|| :   0.1218   Lambda : -0.123D-03
Largest |displ|/coords:  0.0604 (   3)  0.0564 (   4)  0.0343 (   9)
................................................................................
.............................. CYCLE   34 ......................................
................................................................................
   1    -50.7486077 -0.507486E+02  0.679E-02    9.12       0.0  T
   2    -50.7486090 -0.129254E-05  0.509E-02    9.12       1.0  T
   3    -50.7486099 -0.883812E-06  0.759E-03    9.13       2.6  T
   4    -50.7486101 -0.196300E-06  0.280E-03    9.13       7.0  T
   5    -50.7486101 -0.799829E-08  0.775E-04    9.13      25.3  T
speedup  1.00
cpu  time for SCC    0.00 s
wall time for SCC    0.01 s
speedup  1.06
cpu  time for grad    0.01 s
wall time for grad    0.01 s
 E :    -50.46216728  G :  0.005043    pred/act E change: -0.103D-03 -0.410D-04
Maxdispl :   0.0235   ||displ|| :   0.0437   Lambda : -0.590D-04
Largest |displ|/coords:  0.0235 (   2)  0.0168 (   9)  0.0159 (  13)
................................................................................
.............................. CYCLE   35 ......................................
................................................................................
   1    -50.7494758 -0.507495E+02  0.331E-02    9.14       0.0  T
   2    -50.7494761 -0.303345E-06  0.248E-02    9.14       1.0  T
   3    -50.7494763 -0.243153E-06  0.332E-03    9.14       5.9  T
   4    -50.7494764 -0.375189E-07  0.112E-03    9.14      17.5  T
   5    -50.7494764 -0.187855E-08  0.395E-04    9.14      49.6  T
speedup  1.00
cpu  time for SCC    0.00 s
wall time for SCC    0.01 s
speedup  1.04
cpu  time for grad    0.01 s
wall time for grad    0.01 s
 E :    -50.46220394  G :  0.002847    pred/act E change: -0.624D-04 -0.367D-04
Maxdispl :   0.0259   ||displ|| :   0.0576   Lambda : -0.329D-04
Largest |displ|/coords:  0.0259 (   2)  0.0192 (   5)  0.0181 (  15)
................................................................................
.............................. CYCLE   36 ......................................
................................................................................
   1    -50.7497764 -0.507498E+02  0.342E-02    9.16       0.0  T
   2    -50.7497767 -0.364853E-06  0.254E-02    9.16       1.0  T
   3    -50.7497770 -0.255026E-06  0.417E-03    9.15       4.7  T
   4    -50.7497770 -0.442031E-07  0.114E-03    9.15      17.2  T
   5    -50.7497770 -0.168939E-08  0.327E-04    9.15      60.1  T
   6    -50.7497770 -0.158337E-09  0.190E-04    9.15     103.0  T
speedup  1.02
cpu  time for SCC    0.01 s
wall time for SCC    0.01 s
speedup  1.01
cpu  time for grad    0.01 s
wall time for grad    0.01 s
 E :    -50.46222731  G :  0.001834    pred/act E change: -0.295D-04 -0.234D-04
Maxdispl :   0.0457   ||displ|| :   0.1042   Lambda : -0.364D-04
Largest |displ|/coords:  0.0457 (   2)  0.0420 (   5)  0.0406 (   6)
................................................................................
.............................. CYCLE   37 ......................................
................................................................................
   1    -50.7500663 -0.507501E+02  0.657E-02    9.16       0.0  T
   2    -50.7500671 -0.832223E-06  0.489E-02    9.16       1.0  T
   3    -50.7500679 -0.726308E-06  0.709E-03    9.16       2.8  T
   4    -50.7500679 -0.810178E-07  0.228E-03    9.16       8.6  T
   5    -50.7500680 -0.585274E-08  0.516E-04    9.16      38.0  T
   6    -50.7500680 -0.266347E-09  0.334E-04    9.16      58.7  T
speedup  1.00
cpu  time for SCC    0.01 s
wall time for SCC    0.01 s
speedup  1.01
cpu  time for grad    0.01 s
wall time for grad    0.01 s
 E :    -50.46225198  G :  0.002820    pred/act E change: -0.165D-04 -0.247D-04
Maxdispl :   0.0659   ||displ|| :   0.1215   Lambda : -0.376D-04
Largest |displ|/coords:  0.0659 (   5)  0.0545 (   2)  0.0278 (   9)
................................................................................
.............................. CYCLE   38 ......................................
................................................................................
   1    -50.7509683 -0.507510E+02  0.674E-02    9.17       0.0  T
   2    -50.7509695 -0.114021E-05  0.497E-02    9.17       1.0  T
   3    -50.7509705 -0.106506E-05  0.846E-03    9.17       2.3  T
   4    -50.7509706 -0.911566E-07  0.234E-03    9.17       8.4  T
   5    -50.7509706 -0.777479E-08  0.623E-04    9.17      31.5  T
   6    -50.7509706 -0.429431E-09  0.396E-04    9.17      49.5  T
speedup  1.02
cpu  time for SCC    0.01 s
wall time for SCC    0.01 s
speedup  1.02
cpu  time for grad    0.01 s
wall time for grad    0.01 s
 E :    -50.46226452  G :  0.003831    pred/act E change: -0.184D-04 -0.125D-04
Maxdispl :   0.0513   ||displ|| :   0.1033   Lambda : -0.341D-04
Largest |displ|/coords:  0.0513 (   6)  0.0453 (   5)  0.0388 (   2)
................................................................................
.............................. CYCLE   39 ......................................
................................................................................
   1    -50.7500556 -0.507501E+02  0.714E-02    9.16       0.0  T
   2    -50.7500566 -0.100148E-05  0.535E-02    9.16       1.0  T
   3    -50.7500576 -0.967293E-06  0.698E-03    9.16       2.8  T
   4    -50.7500577 -0.883582E-07  0.186E-03    9.16      10.5  T
   5    -50.7500577 -0.429445E-08  0.622E-04    9.16      31.5  T
   6    -50.7500577 -0.380922E-09  0.369E-04    9.16      53.2  T
speedup  1.02
cpu  time for SCC    0.01 s
wall time for SCC    0.01 s
speedup  1.02
cpu  time for grad    0.01 s
wall time for grad    0.01 s
 E :    -50.46228076  G :  0.002661    pred/act E change: -0.191D-04 -0.162D-04
Maxdispl :   0.0126   ||displ|| :   0.0274   Lambda : -0.153D-04
Largest |displ|/coords:  0.0126 (  15)  0.0072 (   9)  0.0072 (  16)
................................................................................
.............................. CYCLE   40 ......................................
................................................................................
   1    -50.7502859 -0.507503E+02  0.172E-02    9.16       0.0  T
   2    -50.7502860 -0.114507E-06  0.128E-02    9.16       1.5  T
   3    -50.7502861 -0.613091E-07  0.230E-03    9.16       8.5  T
   4    -50.7502861 -0.173986E-07  0.706E-04    9.16      27.8  T
   5    -50.7502861 -0.667619E-09  0.170E-04    9.16     115.2  T
speedup  1.02
cpu  time for SCC    0.00 s
wall time for SCC    0.00 s
speedup  0.94
cpu  time for grad    0.01 s
wall time for grad    0.01 s
 E :    -50.46229267  G :  0.001777    pred/act E change: -0.172D-04 -0.119D-04
Maxdispl :   0.0447   ||displ|| :   0.0806   Lambda : -0.293D-04
Largest |displ|/coords:  0.0447 (   5)  0.0238 (  17)  0.0231 (  18)
................................................................................
.............................. CYCLE   41 ......................................
................................................................................
   1    -50.7502671 -0.507503E+02  0.546E-02    9.16       0.0  T
   2    -50.7502679 -0.780232E-06  0.407E-02    9.16       1.0  T
   3    -50.7502686 -0.671297E-06  0.660E-03    9.17       3.0  T
   4    -50.7502686 -0.831577E-07  0.210E-03    9.16       9.3  T
   5    -50.7502686 -0.530295E-08  0.440E-04    9.16      44.5  T
   6    -50.7502686 -0.307402E-09  0.282E-04    9.16      69.5  T
speedup  1.02
cpu  time for SCC    0.01 s
wall time for SCC    0.01 s
speedup  1.01
cpu  time for grad    0.01 s
wall time for grad    0.01 s
 E :    -50.46231231  G :  0.001316    pred/act E change: -0.765D-05 -0.196D-04
Maxdispl :   0.0527   ||displ|| :   0.1047   Lambda : -0.185D-04
Largest |displ|/coords:  0.0527 (   5)  0.0360 (   6)  0.0332 (   2)
................................................................................
.............................. CYCLE   42 ......................................
................................................................................
   1    -50.7501236 -0.507501E+02  0.735E-02    9.16       0.0  T
   2    -50.7501246 -0.103686E-05  0.549E-02    9.16       1.0  T
   3    -50.7501257 -0.112614E-05  0.799E-03    9.16       2.5  T
   4    -50.7501258 -0.665433E-07  0.158E-03    9.16      12.4  T
   5    -50.7501258 -0.567550E-08  0.546E-04    9.16      35.9  T
   6    -50.7501258 -0.404903E-09  0.327E-04    9.16      60.1  T
speedup  1.00
cpu  time for SCC    0.01 s
wall time for SCC    0.01 s
speedup  1.01
cpu  time for grad    0.01 s
wall time for grad    0.01 s
 E :    -50.46232660  G :  0.001998    pred/act E change: -0.147D-04 -0.143D-04
Maxdispl :   0.0824   ||displ|| :   0.1697   Lambda : -0.306D-04
Largest |displ|/coords:  0.0824 (   5)  0.0573 (   3)  0.0531 (   6)
................................................................................
.............................. CYCLE   43 ......................................
................................................................................
   1    -50.7496838 -0.507497E+02  0.127E-01    9.15       0.0  T
   2    -50.7496868 -0.307455E-05  0.949E-02    9.15       1.0  T
   3    -50.7496902 -0.338460E-05  0.137E-02    9.16       1.4  T
   4    -50.7496904 -0.192805E-06  0.316E-03    9.16       6.2  T
   5    -50.7496904 -0.154295E-07  0.943E-04    9.16      20.8  T
   6    -50.7496904 -0.100667E-08  0.577E-04    9.16      34.0  T
speedup  1.00
cpu  time for SCC    0.01 s
wall time for SCC    0.01 s
speedup  1.01
cpu  time for grad    0.01 s
wall time for grad    0.01 s
 E :    -50.46234675  G :  0.003651    pred/act E change: -0.933D-05 -0.202D-04
Maxdispl :   0.0327   ||displ|| :   0.0886   Lambda : -0.236D-04
Largest |displ|/coords:  0.0327 (   3)  0.0301 (   5)  0.0300 (  17)
................................................................................
.............................. CYCLE   44 ......................................
................................................................................
   1    -50.7499163 -0.507499E+02  0.703E-02    9.16       0.0  T
   2    -50.7499173 -0.101199E-05  0.525E-02    9.16       1.0  T
   3    -50.7499184 -0.101753E-05  0.797E-03    9.16       2.5  T
   4    -50.7499184 -0.774595E-07  0.240E-03    9.16       8.2  T
   5    -50.7499184 -0.658249E-08  0.484E-04    9.16      40.5  T
   6    -50.7499184 -0.241073E-09  0.316E-04    9.16      62.1  T
speedup  1.03
cpu  time for SCC    0.01 s
wall time for SCC    0.01 s
speedup  1.02
cpu  time for grad    0.01 s
wall time for grad    0.01 s
 E :    -50.46236577  G :  0.003736    pred/act E change: -0.157D-04 -0.190D-04
Maxdispl :   0.0429   ||displ|| :   0.1218   Lambda : -0.427D-04
Largest |displ|/coords:  0.0429 (   3)  0.0423 (   4)  0.0410 (  17)
................................................................................
.............................. CYCLE   45 ......................................
................................................................................
   1    -50.7505130 -0.507505E+02  0.102E-01    9.16       0.0  T
   2    -50.7505154 -0.237314E-05  0.763E-02    9.16       1.0  T
   3    -50.7505176 -0.220279E-05  0.124E-02    9.16       1.6  T
   4    -50.7505178 -0.210768E-06  0.422E-03    9.16       4.6  T
   5    -50.7505179 -0.174990E-07  0.730E-04    9.16      26.9  T
   6    -50.7505179 -0.546088E-09  0.483E-04    9.16      40.6  T
speedup  1.02
cpu  time for SCC    0.01 s
wall time for SCC    0.01 s
speedup  1.02
cpu  time for grad    0.01 s
wall time for grad    0.01 s
 E :    -50.46239381  G :  0.002885    pred/act E change: -0.119D-04 -0.280D-04
Maxdispl :   0.0384   ||displ|| :   0.1077   Lambda : -0.203D-04
Largest |displ|/coords:  0.0384 (  17)  0.0375 (   5)  0.0365 (   4)
................................................................................
.............................. CYCLE   46 ......................................
................................................................................
   1    -50.7504498 -0.507504E+02  0.926E-02    9.15       0.0  T
   2    -50.7504516 -0.179896E-05  0.691E-02    9.15       1.0  T
   3    -50.7504534 -0.181047E-05  0.108E-02    9.15       1.8  T
   4    -50.7504536 -0.136629E-06  0.375E-03    9.15       5.2  T
   5    -50.7504536 -0.140040E-07  0.605E-04    9.15      32.4  T
   6    -50.7504536 -0.352550E-09  0.418E-04    9.15      46.9  T
speedup  0.98
cpu  time for SCC    0.01 s
wall time for SCC    0.01 s
speedup  1.01
cpu  time for grad    0.01 s
wall time for grad    0.01 s
 E :    -50.46240881  G :  0.003550    pred/act E change: -0.217D-04 -0.150D-04
Maxdispl :   0.0418   ||displ|| :   0.1146   Lambda : -0.417D-04
Largest |displ|/coords:  0.0418 (  17)  0.0403 (   4)  0.0376 (   1)
................................................................................
.............................. CYCLE   47 ......................................
................................................................................
   1    -50.7520652 -0.507521E+02  0.935E-02    9.16       0.0  T
   2    -50.7520679 -0.270444E-05  0.697E-02    9.16       1.0  T
   3    -50.7520698 -0.192537E-05  0.132E-02    9.16       1.5  T
   4    -50.7520701 -0.326407E-06  0.504E-03    9.16       3.9  T
   5    -50.7520701 -0.194848E-07  0.647E-04    9.16      30.3  T
   6    -50.7520701 -0.420378E-09  0.445E-04    9.16      44.0  T
speedup  1.00
cpu  time for SCC    0.01 s
wall time for SCC    0.01 s
speedup  1.01
cpu  time for grad    0.01 s
wall time for grad    0.01 s
 E :    -50.46242175  G :  0.003912    pred/act E change: -0.102D-04 -0.129D-04
Maxdispl :   0.0989   ||displ|| :   0.2401   Lambda : -0.556D-04
Largest |displ|/coords:  0.0989 (   5)  0.0933 (   6)  0.0807 (  17)
................................................................................
.............................. CYCLE   48 ......................................
................................................................................
   1    -50.7492362 -0.507492E+02  0.205E-01    9.09       0.0  T
   2    -50.7492451 -0.898829E-05  0.153E-01    9.09       1.0  T
   3    -50.7492545 -0.940393E-05  0.234E-02    9.09       1.0  T
   4    -50.7492552 -0.620341E-06  0.713E-03    9.09       2.7  T
   5    -50.7492552 -0.641475E-07  0.160E-03    9.09      12.3  T
   6    -50.7492552 -0.307718E-08  0.105E-03    9.09      18.6  T
   7    -50.7492552 -0.182931E-08  0.238E-04    9.09      82.3  T
   8    -50.7492552 -0.316888E-09  0.104E-04    9.09     189.2  T
speedup  1.04
cpu  time for SCC    0.01 s
wall time for SCC    0.01 s
speedup  1.02
cpu  time for grad    0.02 s
wall time for grad    0.02 s
 E :    -50.46239998  G :  0.008805    pred/act E change: -0.211D-04  0.218D-04
Maxdispl :   0.0658   ||displ|| :   0.1857   Lambda : -0.124D-03
Largest |displ|/coords:  0.0658 (  17)  0.0634 (   4)  0.0602 (   6)
................................................................................
.............................. CYCLE   49 ......................................
................................................................................
   1    -50.7511284 -0.507511E+02  0.162E-01    9.15       0.0  T
   2    -50.7511342 -0.585338E-05  0.121E-01    9.15       1.0  T
   3    -50.7511400 -0.579707E-05  0.187E-02    9.15       1.0  T
   4    -50.7511405 -0.447508E-06  0.697E-03    9.15       2.8  T
   5    -50.7511405 -0.500211E-07  0.122E-03    9.15      16.1  T
   6    -50.7511405 -0.160250E-08  0.838E-04    9.15      23.4  T
speedup  0.85
cpu  time for SCC    0.00 s
wall time for SCC    0.01 s
speedup  0.99
cpu  time for grad    0.01 s
wall time for grad    0.01 s
 E :    -50.46244331  G :  0.001700    pred/act E change: -0.294D-04 -0.433D-04
Maxdispl :   0.0229   ||displ|| :   0.0515   Lambda : -0.180D-04
Largest |displ|/coords:  0.0229 (  17)  0.0166 (  16)  0.0154 (   5)
................................................................................
.............................. CYCLE   50 ......................................
................................................................................
   1    -50.7512433 -0.507512E+02  0.414E-02    9.15       0.0  T
   2    -50.7512439 -0.558216E-06  0.311E-02    9.15       1.0  T
   3    -50.7512443 -0.436500E-06  0.481E-03    9.15       4.1  T
   4    -50.7512444 -0.672970E-07  0.193E-03    9.15      10.1  T
   5    -50.7512444 -0.426838E-08  0.364E-04    9.15      53.9  T
   6    -50.7512444 -0.171333E-09  0.227E-04    9.15      86.5  T
speedup  1.03
cpu  time for SCC    0.01 s
wall time for SCC    0.01 s
speedup  1.02
cpu  time for grad    0.01 s
wall time for grad    0.01 s
 E :    -50.46244732  G :  0.003681    pred/act E change: -0.640D-04 -0.401D-05
Maxdispl :   0.0201   ||displ|| :   0.0432   Lambda : -0.144D-04
Largest |displ|/coords:  0.0201 (   6)  0.0178 (   5)  0.0128 (  39)
................................................................................
.............................. CYCLE   51 ......................................
................................................................................
   1    -50.7512077 -0.507512E+02  0.352E-02    9.15       0.0  T
   2    -50.7512080 -0.320601E-06  0.262E-02    9.15       1.0  T
   3    -50.7512083 -0.295676E-06  0.432E-03    9.15       4.5  T
   4    -50.7512084 -0.276410E-07  0.146E-03    9.15      13.5  T
   5    -50.7512084 -0.219559E-08  0.276E-04    9.15      71.1  T
   6    -50.7512084 -0.748059E-10  0.180E-04    9.15     109.2  T
speedup  1.00
cpu  time for SCC    0.01 s
wall time for SCC    0.01 s
speedup  0.99
cpu  time for grad    0.01 s
wall time for grad    0.02 s
 E :    -50.46245828  G :  0.002004    pred/act E change: -0.904D-05 -0.110D-04
Maxdispl :   0.0515   ||displ|| :   0.1096   Lambda : -0.180D-04
Largest |displ|/coords:  0.0515 (   5)  0.0395 (   6)  0.0386 (  17)
................................................................................
.............................. CYCLE   52 ......................................
................................................................................
   1    -50.7508166 -0.507508E+02  0.903E-02    9.14       0.0  T
   2    -50.7508185 -0.191344E-05  0.674E-02    9.14       1.0  T
   3    -50.7508204 -0.188851E-05  0.107E-02    9.14       1.8  T
   4    -50.7508205 -0.153481E-06  0.389E-03    9.14       5.0  T
   5    -50.7508206 -0.143181E-07  0.632E-04    9.14      31.1  T
   6    -50.7508206 -0.338567E-09  0.427E-04    9.14      46.0  T
speedup  0.83
cpu  time for SCC    0.00 s
wall time for SCC    0.01 s
speedup  0.95
cpu  time for grad    0.01 s
wall time for grad    0.01 s
 E :    -50.46246946  G :  0.002870    pred/act E change: -0.721D-05 -0.112D-04
Maxdispl :   0.0217   ||displ|| :   0.0463   Lambda : -0.105D-04
Largest |displ|/coords:  0.0217 (   5)  0.0162 (  17)  0.0139 (  39)

generating ANC from model Hessian ...
 Shifting diagonal of input Hessian by   4.441621908784985E-003
 Lowest  eigenvalues of input Hessian
   -0.000000   -0.000000    0.000000    0.000000    0.000000    0.000000
    0.005000    0.005331    0.005911    0.006242    0.007033    0.007381
    0.007735    0.009109    0.009405    0.010835    0.011353    0.012396
 Highest eigenvalues
    1.399083    1.411499    1.460319    2.519186    3.468191    3.677187
 
cpu  time for ANC gen    0.03 s
wall time for ANC gen    0.03 s
................................................................................
.............................. CYCLE   53 ......................................
................................................................................
   1    -50.7511544 -0.507512E+02  0.379E-02    9.14       0.0  T
   2    -50.7511548 -0.397930E-06  0.284E-02    9.14       1.0  T
   3    -50.7511551 -0.340022E-06  0.455E-03    9.14       4.3  T
   4    -50.7511552 -0.425772E-07  0.188E-03    9.14      10.4  T
   5    -50.7511552 -0.285605E-08  0.271E-04    9.14      72.5  T
   6    -50.7511552 -0.617888E-10  0.181E-04    9.14     108.6  T
speedup  1.00
cpu  time for SCC    0.01 s
wall time for SCC    0.01 s
speedup  1.01
cpu  time for grad    0.01 s
wall time for grad    0.01 s
 E :    -50.46247841  G :  0.002394    pred/act E change:  0.000D+00 -0.895D-05
Maxdispl :   0.0074   ||displ|| :   0.0171   Lambda : -0.862D-05
Largest |displ|/coords:  0.0074 (  10)  0.0070 (   1)  0.0062 (   3)
................................................................................
.............................. CYCLE   54 ......................................
................................................................................
   1    -50.7514867 -0.507515E+02  0.149E-02    9.15       0.0  T
   2    -50.7514867 -0.586587E-07  0.113E-02    9.15       1.7  T
   3    -50.7514868 -0.496671E-07  0.148E-03    9.15      13.3  T
   4    -50.7514868 -0.702337E-08  0.615E-04    9.15      31.9  T
   5    -50.7514868 -0.409642E-09  0.141E-04    9.15     138.7  T
speedup  1.00
cpu  time for SCC    0.00 s
wall time for SCC    0.00 s
speedup  0.94
cpu  time for grad    0.01 s
wall time for grad    0.01 s
 E :    -50.46248494  G :  0.001114    pred/act E change:  0.000D+00 -0.653D-05
Maxdispl :   0.0195   ||displ|| :   0.0464   Lambda : -0.131D-04
Largest |displ|/coords:  0.0195 (   6)  0.0185 (  10)  0.0174 (   7)
................................................................................
.............................. CYCLE   55 ......................................
................................................................................
   1    -50.7519505 -0.507520E+02  0.360E-02    9.16       0.0  T
   2    -50.7519507 -0.178452E-06  0.269E-02    9.16       1.0  T
   3    -50.7519509 -0.173861E-06  0.292E-03    9.16       6.7  T
   4    -50.7519509 -0.170429E-07  0.121E-03    9.16      16.2  T
   5    -50.7519509 -0.132880E-08  0.329E-04    9.16      59.6  T
   6    -50.7519509 -0.107342E-09  0.209E-04    9.16      94.0  T
speedup  1.02
cpu  time for SCC    0.01 s
wall time for SCC    0.01 s
speedup  1.00
cpu  time for grad    0.01 s
wall time for grad    0.01 s
 E :    -50.46249205  G :  0.001709    pred/act E change: -0.431D-05 -0.712D-05
Maxdispl :   0.0261   ||displ|| :   0.0521   Lambda : -0.105D-04
Largest |displ|/coords:  0.0261 (  10)  0.0223 (   1)  0.0188 (   9)
................................................................................
.............................. CYCLE   56 ......................................
................................................................................
   1    -50.7519683 -0.507520E+02  0.442E-02    9.17       0.0  T
   2    -50.7519686 -0.336678E-06  0.334E-02    9.17       1.0  T
   3    -50.7519690 -0.409082E-06  0.377E-03    9.17       5.2  T
   4    -50.7519691 -0.163938E-07  0.118E-03    9.17      16.6  T
   5    -50.7519691 -0.145176E-08  0.335E-04    9.17      58.6  T
   6    -50.7519691 -0.924487E-10  0.207E-04    9.17      94.6  T
speedup  1.00
cpu  time for SCC    0.01 s
wall time for SCC    0.01 s
speedup  1.01
cpu  time for grad    0.01 s
wall time for grad    0.01 s
 E :    -50.46249831  G :  0.001883    pred/act E change: -0.658D-05 -0.626D-05
Maxdispl :   0.0249   ||displ|| :   0.0571   Lambda : -0.846D-05
Largest |displ|/coords:  0.0249 (  10)  0.0245 (   7)  0.0197 (   9)
................................................................................
.............................. CYCLE   57 ......................................
................................................................................
   1    -50.7516854 -0.507517E+02  0.440E-02    9.17       0.0  T
   2    -50.7516857 -0.238201E-06  0.331E-02    9.17       1.0  T
   3    -50.7516859 -0.257246E-06  0.363E-03    9.17       5.4  T
   4    -50.7516859 -0.166927E-07  0.119E-03    9.17      16.4  T
   5    -50.7516859 -0.138328E-08  0.325E-04    9.17      60.4  T
   6    -50.7516859 -0.819540E-10  0.198E-04    9.17      98.9  T
speedup  1.00
cpu  time for SCC    0.01 s
wall time for SCC    0.01 s
speedup  1.01
cpu  time for grad    0.01 s
wall time for grad    0.01 s
 E :    -50.46250350  G :  0.001512    pred/act E change: -0.524D-05 -0.518D-05
Maxdispl :   0.0154   ||displ|| :   0.0352   Lambda : -0.636D-05
Largest |displ|/coords:  0.0154 (  10)  0.0123 (   6)  0.0119 (   2)
................................................................................
.............................. CYCLE   58 ......................................
................................................................................
   1    -50.7514563 -0.507515E+02  0.264E-02    9.16       0.0  T
   2    -50.7514565 -0.114042E-06  0.199E-02    9.16       1.0  T
   3    -50.7514566 -0.115370E-06  0.241E-03    9.16       8.1  T
   4    -50.7514566 -0.105643E-07  0.824E-04    9.16      23.8  T
   5    -50.7514566 -0.666830E-09  0.219E-04    9.16      89.5  T
speedup  1.00
cpu  time for SCC    0.00 s
wall time for SCC    0.01 s
speedup  1.01
cpu  time for grad    0.01 s
wall time for grad    0.01 s
 E :    -50.46250749  G :  0.001397    pred/act E change: -0.424D-05 -0.400D-05
Maxdispl :   0.0085   ||displ|| :   0.0187   Lambda : -0.423D-05
Largest |displ|/coords:  0.0085 (   7)  0.0081 (   2)  0.0075 (   5)
................................................................................
.............................. CYCLE   59 ......................................
................................................................................
   1    -50.7514378 -0.507514E+02  0.138E-02    9.15       0.0  T
   2    -50.7514378 -0.428923E-07  0.104E-02    9.15       1.9  T
   3    -50.7514379 -0.387434E-07  0.148E-03    9.15      13.3  T
   4    -50.7514379 -0.409788E-08  0.513E-04    9.15      38.3  T
   5    -50.7514379 -0.321783E-09  0.122E-04    9.15     161.2  T
speedup  1.20
cpu  time for SCC    0.01 s
wall time for SCC    0.01 s
speedup  1.01
cpu  time for grad    0.01 s
wall time for grad    0.01 s
 E :    -50.46251041  G :  0.001424    pred/act E change: -0.318D-05 -0.291D-05
Maxdispl :   0.0201   ||displ|| :   0.0487   Lambda : -0.564D-05
Largest |displ|/coords:  0.0201 (  10)  0.0198 (   5)  0.0187 (   2)
................................................................................
.............................. CYCLE   60 ......................................
................................................................................
   1    -50.7513430 -0.507513E+02  0.383E-02    9.14       0.0  T
   2    -50.7513432 -0.252689E-06  0.288E-02    9.14       1.0  T
   3    -50.7513435 -0.257409E-06  0.342E-03    9.14       5.7  T
   4    -50.7513435 -0.218875E-07  0.140E-03    9.14      14.0  T
   5    -50.7513435 -0.146280E-08  0.288E-04    9.14      68.2  T
   6    -50.7513435 -0.643610E-10  0.189E-04    9.14     103.7  T
speedup  0.85
cpu  time for SCC    0.00 s
wall time for SCC    0.01 s
speedup  0.95
cpu  time for grad    0.01 s
wall time for grad    0.01 s
 E :    -50.46251474  G :  0.001622    pred/act E change: -0.211D-05 -0.433D-05
Maxdispl :   0.0284   ||displ|| :   0.0661   Lambda : -0.862D-05
Largest |displ|/coords:  0.0284 (   5)  0.0258 (   2)  0.0250 (  10)
................................................................................
.............................. CYCLE   61 ......................................
................................................................................
   1    -50.7514127 -0.507514E+02  0.536E-02    9.13       0.0  T
   2    -50.7514133 -0.615327E-06  0.402E-02    9.13       1.0  T
   3    -50.7514139 -0.552598E-06  0.595E-03    9.13       3.3  T
   4    -50.7514139 -0.629278E-07  0.232E-03    9.13       8.4  T
   5    -50.7514140 -0.417953E-08  0.409E-04    9.13      47.9  T
   6    -50.7514140 -0.137234E-09  0.276E-04    9.13      71.1  T
speedup  1.02
cpu  time for SCC    0.01 s
wall time for SCC    0.01 s
speedup  1.02
cpu  time for grad    0.01 s
wall time for grad    0.01 s
 E :    -50.46252098  G :  0.001456    pred/act E change: -0.283D-05 -0.624D-05
Maxdispl :   0.0289   ||displ|| :   0.0636   Lambda : -0.758D-05
Largest |displ|/coords:  0.0289 (   5)  0.0242 (  10)  0.0216 (   2)
................................................................................
.............................. CYCLE   62 ......................................
................................................................................
   1    -50.7515696 -0.507516E+02  0.540E-02    9.13       0.0  T
   2    -50.7515702 -0.676897E-06  0.404E-02    9.13       1.0  T
   3    -50.7515708 -0.574361E-06  0.634E-03    9.13       3.1  T
   4    -50.7515709 -0.735313E-07  0.247E-03    9.13       7.9  T
   5    -50.7515709 -0.469653E-08  0.403E-04    9.13      48.7  T
   6    -50.7515709 -0.130335E-09  0.274E-04    9.13      71.7  T
speedup  1.02
cpu  time for SCC    0.01 s
wall time for SCC    0.01 s
speedup  1.02
cpu  time for grad    0.01 s
wall time for grad    0.01 s
 E :    -50.46252686  G :  0.001293    pred/act E change: -0.433D-05 -0.588D-05
Maxdispl :   0.0344   ||displ|| :   0.0753   Lambda : -0.103D-04
Largest |displ|/coords:  0.0344 (   5)  0.0258 (  18)  0.0251 (  37)
................................................................................
.............................. CYCLE   63 ......................................
................................................................................
   1    -50.7520027 -0.507520E+02  0.665E-02    9.13       0.0  T
   2    -50.7520038 -0.116211E-05  0.495E-02    9.13       1.0  T
   3    -50.7520047 -0.887796E-06  0.861E-03    9.13       2.3  T
   4    -50.7520049 -0.132441E-06  0.333E-03    9.13       5.9  T
   5    -50.7520049 -0.841374E-08  0.460E-04    9.13      42.7  T
   6    -50.7520049 -0.186397E-09  0.316E-04    9.13      62.0  T
speedup  1.00
cpu  time for SCC    0.01 s
wall time for SCC    0.01 s
speedup  1.01
cpu  time for grad    0.01 s
wall time for grad    0.01 s
 E :    -50.46253412  G :  0.001305    pred/act E change: -0.381D-05 -0.726D-05
Maxdispl :   0.0472   ||displ|| :   0.1092   Lambda : -0.953D-05
Largest |displ|/coords:  0.0472 (   5)  0.0423 (  10)  0.0352 (  37)
................................................................................
.............................. CYCLE   64 ......................................
................................................................................
   1    -50.7516641 -0.507517E+02  0.972E-02    9.14       0.0  T
   2    -50.7516661 -0.201577E-05  0.731E-02    9.14       1.0  T
   3    -50.7516678 -0.169130E-05  0.996E-03    9.14       2.0  T
   4    -50.7516681 -0.236085E-06  0.412E-03    9.14       4.8  T
   5    -50.7516681 -0.126099E-07  0.677E-04    9.14      29.0  T
   6    -50.7516681 -0.320121E-09  0.459E-04    9.14      42.8  T
speedup  1.02
cpu  time for SCC    0.01 s
wall time for SCC    0.01 s
speedup  1.01
cpu  time for grad    0.01 s
wall time for grad    0.01 s
 E :    -50.46253481  G :  0.003056    pred/act E change: -0.517D-05 -0.692D-06
Maxdispl :   0.0198   ||displ|| :   0.0445   Lambda : -0.194D-04
Largest |displ|/coords:  0.0198 (   7)  0.0177 (   2)  0.0158 (  10)
................................................................................
.............................. CYCLE   65 ......................................
................................................................................
   1    -50.7527392 -0.507527E+02  0.326E-02    9.16       0.0  T
   2    -50.7527395 -0.306636E-06  0.242E-02    9.16       1.0  T
   3    -50.7527397 -0.215795E-06  0.403E-03    9.16       4.9  T
   4    -50.7527398 -0.360916E-07  0.138E-03    9.16      14.3  T
   5    -50.7527398 -0.258041E-08  0.353E-04    9.16      55.5  T
[...]
cpu  time for SCC    0.00 s
wall time for SCC    0.00 s
speedup  0.94
cpu  time for grad    0.01 s
wall time for grad    0.01 s
 E :    -50.46272121  G :  0.000369    pred/act E change: -0.834D-06 -0.577D-06
Maxdispl :   0.0096   ||displ|| :   0.0219   Lambda : -0.797D-06
Largest |displ|/coords:  0.0096 (  37)  0.0084 (  26)  0.0066 (  15)
................................................................................
.............................. CYCLE  108 ......................................
................................................................................
   1    -50.7519898 -0.507520E+02  0.225E-02    9.15       0.0  T
   2    -50.7519899 -0.908554E-07  0.170E-02    9.15       1.2  T
   3    -50.7519899 -0.455751E-07  0.208E-03    9.15       9.4  T
   4    -50.7519899 -0.173380E-07  0.859E-04    9.15      22.8  T
   5    -50.7519899 -0.459501E-09  0.129E-04    9.15     152.3  T
speedup  1.00
cpu  time for SCC    0.00 s
wall time for SCC    0.01 s
speedup  0.99
cpu  time for grad    0.01 s
wall time for grad    0.01 s
 E :    -50.46272171  G :  0.000421    pred/act E change: -0.466D-06 -0.508D-06
Maxdispl :   0.0059   ||displ|| :   0.0122   Lambda : -0.653D-06
Largest |displ|/coords:  0.0059 (  10)  0.0046 (   4)  0.0038 (   8)
................................................................................
.............................. CYCLE  109 ......................................
................................................................................
   1    -50.7520143 -0.507520E+02  0.105E-02    9.15       0.0  T
   2    -50.7520143 -0.196489E-07  0.784E-03    9.15       2.5  T
   3    -50.7520143 -0.178898E-07  0.101E-03    9.15      19.5  T
   4    -50.7520143 -0.217218E-08  0.388E-04    9.15      50.6  T
   5    -50.7520143 -0.136659E-09  0.772E-05    9.15     253.9  T
speedup  1.00
cpu  time for SCC    0.00 s
wall time for SCC    0.00 s
speedup  1.01
cpu  time for grad    0.01 s
wall time for grad    0.01 s
 E :    -50.46272222  G :  0.000267    pred/act E change: -0.399D-06 -0.504D-06
Maxdispl :   0.0086   ||displ|| :   0.0195   Lambda : -0.788D-06
Largest |displ|/coords:  0.0086 (  10)  0.0072 (   4)  0.0070 (  37)
................................................................................
.............................. CYCLE  110 ......................................
................................................................................
   1    -50.7520566 -0.507521E+02  0.170E-02    9.15       0.0  T
   2    -50.7520567 -0.448069E-07  0.127E-02    9.15       1.5  T
   3    -50.7520567 -0.439227E-07  0.153E-03    9.15      12.8  T
   4    -50.7520567 -0.449766E-08  0.590E-04    9.15      33.2  T
   5    -50.7520567 -0.303942E-09  0.115E-04    9.15     170.1  T
speedup  0.82
cpu  time for SCC    0.00 s
wall time for SCC    0.00 s
speedup  0.94
cpu  time for grad    0.01 s
wall time for grad    0.01 s
 E :    -50.46272276  G :  0.000338    pred/act E change: -0.326D-06 -0.544D-06
Maxdispl :   0.0086   ||displ|| :   0.0153   Lambda : -0.495D-06
Largest |displ|/coords:  0.0086 (  10)  0.0051 (   4)  0.0042 (  37)
................................................................................
.............................. CYCLE  111 ......................................
................................................................................
   1    -50.7521106 -0.507521E+02  0.127E-02    9.15       0.0  T
   2    -50.7521107 -0.260070E-07  0.960E-03    9.15       2.0  T
   3    -50.7521107 -0.295608E-07  0.107E-03    9.15      18.3  T
   4    -50.7521107 -0.187557E-08  0.421E-04    9.15      46.5  T
   5    -50.7521107 -0.182069E-09  0.955E-05    9.15     205.4  T
speedup  1.00
cpu  time for SCC    0.00 s
wall time for SCC    0.01 s
speedup  1.01
cpu  time for grad    0.01 s
wall time for grad    0.01 s
 E :    -50.46272315  G :  0.000363    pred/act E change: -0.394D-06 -0.387D-06
Maxdispl :   0.0153   ||displ|| :   0.0262   Lambda : -0.744D-06
Largest |displ|/coords:  0.0153 (  10)  0.0081 (  37)  0.0071 (   8)
................................................................................
.............................. CYCLE  112 ......................................
................................................................................
   1    -50.7521512 -0.507522E+02  0.231E-02    9.15       0.0  T
   2    -50.7521513 -0.889507E-07  0.174E-02    9.15       1.1  T
   3    -50.7521514 -0.887853E-07  0.186E-03    9.15      10.5  T
   4    -50.7521514 -0.910999E-08  0.881E-04    9.15      22.2  T
   5    -50.7521514 -0.539771E-09  0.162E-04    9.15     121.0  T
speedup  1.02
cpu  time for SCC    0.00 s
wall time for SCC    0.00 s
speedup  0.95
cpu  time for grad    0.01 s
wall time for grad    0.01 s
 E :    -50.46272367  G :  0.000365    pred/act E change: -0.248D-06 -0.521D-06
Maxdispl :   0.0127   ||displ|| :   0.0194   Lambda : -0.516D-06
Largest |displ|/coords:  0.0127 (  10)  0.0064 (  11)  0.0059 (   7)

generating ANC from model Hessian ...
 Shifting diagonal of input Hessian by   4.535373062807811E-003
 Lowest  eigenvalues of input Hessian
   -0.000000   -0.000000   -0.000000   -0.000000    0.000000    0.000000
    0.005000    0.005329    0.005664    0.006134    0.006776    0.007594
    0.007977    0.009122    0.009437    0.010276    0.010896    0.011734
 Highest eigenvalues
    1.409631    1.415340    1.457127    2.519674    3.406922    3.730247
 
cpu  time for ANC gen    0.03 s
wall time for ANC gen    0.03 s
................................................................................
.............................. CYCLE  113 ......................................
................................................................................
   1    -50.7522110 -0.507522E+02  0.143E-02    9.15       0.0  T
   2    -50.7522110 -0.377639E-07  0.108E-02    9.15       1.8  T
   3    -50.7522110 -0.433158E-07  0.109E-03    9.15      18.0  T
   4    -50.7522110 -0.292588E-08  0.543E-04    9.15      36.1  T
   5    -50.7522110 -0.271150E-09  0.128E-04    9.15     152.9  T
speedup  1.00
cpu  time for SCC    0.00 s
wall time for SCC    0.00 s
speedup  1.01
cpu  time for grad    0.01 s
wall time for grad    0.01 s
 E :    -50.46272401  G :  0.000317    pred/act E change:  0.000D+00 -0.335D-06
Maxdispl :   0.0008   ||displ|| :   0.0021   Lambda : -0.150D-06
Largest |displ|/coords:  0.0008 (   9)  0.0007 (   5)  0.0007 (   3)
................................................................................
.............................. CYCLE  114 ......................................
................................................................................
   1    -50.7521921 -0.507522E+02  0.142E-03    9.15       0.0  T
   2    -50.7521921 -0.831108E-09  0.104E-03    9.15      18.9  T
   3    -50.7521921 -0.443393E-09  0.237E-04    9.15      82.9  T
   4    -50.7521921 -0.108408E-09  0.693E-05    9.15     283.1  T
speedup  1.00
cpu  time for SCC    0.00 s
wall time for SCC    0.00 s
speedup  1.02
cpu  time for grad    0.01 s
wall time for grad    0.01 s
 E :    -50.46272412  G :  0.000180    pred/act E change:  0.000D+00 -0.119D-06
Maxdispl :   0.0022   ||displ|| :   0.0050   Lambda : -0.206D-06
Largest |displ|/coords:  0.0022 (   9)  0.0018 (   4)  0.0016 (  14)
................................................................................
.............................. CYCLE  115 ......................................
................................................................................
   1    -50.7521700 -0.507522E+02  0.310E-03    9.15       0.0  T
   2    -50.7521700 -0.259662E-08  0.227E-03    9.15       8.6  T
   3    -50.7521700 -0.136293E-08  0.443E-04    9.15      44.3  T
   4    -50.7521700 -0.338098E-09  0.127E-04    9.15     154.8  T
speedup  0.98
cpu  time for SCC    0.00 s
wall time for SCC    0.00 s
speedup  1.00
cpu  time for grad    0.01 s
wall time for grad    0.01 s
 E :    -50.46272424  G :  0.000114    pred/act E change: -0.748D-07 -0.113D-06
Maxdispl :   0.0012   ||displ|| :   0.0022   Lambda : -0.429D-07
Largest |displ|/coords:  0.0012 (   5)  0.0008 (   9)  0.0007 (  14)
................................................................................
.............................. CYCLE  116 ......................................
................................................................................
   1    -50.7521741 -0.507522E+02  0.147E-03    9.15       0.0  T
   2    -50.7521741 -0.519925E-09  0.109E-03    9.15      17.9  T
   3    -50.7521741 -0.543487E-09  0.175E-04    9.15     112.1  T
   4    -50.7521741 -0.524736E-10  0.576E-05    9.15     340.3  T
speedup  1.00
cpu  time for SCC    0.00 s
wall time for SCC    0.00 s
speedup  1.01
cpu  time for grad    0.01 s
wall time for grad    0.01 s
 E :    -50.46272426  G :  0.000089    pred/act E change: -0.103D-06 -0.243D-07
Maxdispl :   0.0014   ||displ|| :   0.0025   Lambda : -0.373D-07
Largest |displ|/coords:  0.0014 (  10)  0.0009 (  14)  0.0008 (   9)

   *** GEOMETRY OPTIMIZATION CONVERGED AFTER 116 ITERATIONS ***

------------------------------------------------------------------------
 total energy gain (kcal):     -0.0002
------------------------------------------------------------------------
================
 final structure:
================
$coord
        0.16778372700412        4.31947599835861       -0.92590301808583      S 
        0.33681925529129        3.87951663073337        1.75832564544305      O 
        2.53910104215522        4.62303211458778       -2.22770606666089      O 
       -1.47807728092521        2.40504983233215       -2.11228508497396      O 
       -1.28985617463804        6.92892247572161       -1.30021767222338      O 
       -0.34637090307271        7.64890823334144       -2.65101832849027      H 
        2.61096281542534       -2.81423183744497        2.28784854889643      O 
        4.11687843067796       -3.62722711774125        2.87933755285172      H 
       -1.21534905946508       -4.90070517225947       -0.28387550154036      O 
        0.25079586812848       -4.27404900893297        0.68090742141234      H 
       -1.11760509123458       -6.70768885138713       -0.28016481820805      H 
        0.31414537049340       -1.78972705258300       -4.47624548570066      O 
       -0.44363485674137       -0.18357561712774       -3.99766799566701      H 
       -0.40825454711190       -3.03786351555691       -3.35628090966369      H 
        4.08046749097927       -0.10315007168749       -1.46590326013246      O 
        3.78242010009745        1.71063800608842       -1.61352811908138      H 
        3.19231617970621       -1.61626275662522        0.92232772642174      H 
        3.10641235548631       -0.84592771548607       -2.85461024824591      H 
       -0.67132575151577        0.20008690240842        4.92356923186032      O 
       -0.17018210223586        1.82555469959741        4.19071457528767      H 
       -2.65402650644188       -0.27167526948608        2.85418735326168      H 
        0.66171823430912       -0.95515968038209        4.39470917481853      H 
       -3.66831251331281       -0.55549071446269        1.10338940016104      N 
       -5.55022106982305       -0.25998772481843        1.29840986253388      H 
       -3.28047478853659       -2.35731890289553        0.47320658629053      H 
       -2.86613026250346        0.75885609679027       -0.22152653277686      H 
$end
 
 Bond Distances (Angstroems)
 ---------------------------
S1-O2=1.4422         S1-O3=1.4405         S1-O4=1.4761         S1-O5=1.5940         O2-S1=1.4422         O3-S1=1.4405         
O4-S1=1.4761         O5-S1=1.5940         O5-H6=0.9515         H6-O5=0.9515         O7-H8=0.9582         O7-H17=1.0093        
H8-O7=0.9582         O9-H10=0.9862        O9-H11=0.9576        H10-O9=0.9862        H11-O9=0.9576        O12-H13=0.9733       
O12-H14=0.9662       H13-O12=0.9733       H14-O12=0.9662       O15-H16=0.9758       O15-H18=0.9799       H16-O15=0.9758       
H17-O7=1.0093        H18-O15=0.9799       O19-H20=0.9801       O19-H22=0.9745       H20-O19=0.9801       H21-N23=1.0812       
H22-O19=0.9745       N23-H21=1.0812       N23-H24=1.0133       N23-H25=1.0308       N23-H26=1.0749       H24-N23=1.0133       
H25-N23=1.0308       H26-N23=1.0749       
 N  H  Rav=1.0501 sigma=0.0288  Rmin=1.0133  Rmax=1.0812     4
 O  H  Rav=0.9739 sigma=0.0152  Rmin=0.9515  Rmax=1.0093    11
 S  O  Rav=1.4882 sigma=0.0627  Rmin=1.4405  Rmax=1.5940     4
 
 selected bond angles (degree)
 --------------------
O3-S1-O2=115.78                O4-S1-O2=110.16                O4-S1-O3=112.78                O5-S1-O2=106.99                
O5-S1-O3=105.40                O5-S1-O4=104.84                H6-O5-S1=100.74                H17-O7-H8=105.21               
H11-O9-H10=106.99              
 
 selected dihedral angles (degree)
 ---------------------------------
H6-O5-S1-O2=139.79            H6-O5-S1-O3= 16.01            H6-O5-S1-O4=256.78            
 
 CMA Distance (Angstroems)
 ---------------------------
R(CMA):  3.3011

========================================================================
 FINAL SINGLEPOINT CALCULATION ON OPTIMIZED GEOMETRY
========================================================================

 Ncao       : 65
 Nao        : 64
 Nshell     : 38
 Nel        : 80
 T(el)      :   300.0
 intcut     :    25.0
 scfconv/Eh :  0.100E-05
   qconv/e  :  0.100E-03
 intneglect :  0.100E-07
 broydamp   :      0.250
 iter      E             dE          RMSdq      gap      omega  full diag
   1    -50.7521741 -0.507522E+02  0.226E-05    9.15       0.0  T
   2    -50.7521741 -0.341061E-12  0.150E-05    9.15    1304.3  T
   3    -50.7521741 -0.994760E-13  0.361E-06    9.15    5437.8  T
speedup  1.00
cpu  time for SCC    0.00 s
wall time for SCC    0.00 s

   *** convergence criteria satisfied after 3 iterations ***

          eigenvalues
 #    :          28         29         30         31         32         33         34         35
 occ. :        2.000      2.000      2.000      2.000      2.000      2.000      2.000      2.000
 eps  :       -13.421    -13.134    -12.733    -12.445    -12.331    -12.124    -12.064    -11.979
 #    :          36         37         38         39         40         41         42         43
 occ. :        2.000      2.000      2.000      2.000      2.000      0.000      0.000      0.000
 eps  :       -11.801    -11.723    -11.616    -11.528    -11.466     -2.317     -1.141     -0.261
 #    :          44         45         46         47         48         49         50         51
 occ. :        0.000      0.000      0.000      0.000      0.000      0.000      0.000      0.000
 eps  :         0.668      1.066      1.375      2.032      3.015      3.974      4.714      5.208


   #   Z            q   n(s)   n(p)   n(d)      C6AA      α(0)
   1  16 S      1.657  1.586  1.798  0.958    89.751    15.945
   2   8 O     -0.722  1.756  4.966  0.000    29.310     7.259
   3   8 O     -0.727  1.773  4.954  0.000    29.458     7.277
   4   8 O     -0.748  1.768  4.981  0.000    30.046     7.350
   5   8 O     -0.596  1.752  4.843  0.000    25.054     6.757
   6   1 H      0.345  0.655  0.000  0.000     0.591     1.203
   7   8 O     -0.641  1.755  4.886  0.000    26.202     6.908
   8   1 H      0.287  0.713  0.000  0.000     0.762     1.371
   9   8 O     -0.622  1.743  4.879  0.000    25.715     6.844
  10   1 H      0.340  0.660  0.000  0.000     0.614     1.231
  11   1 H      0.286  0.714  0.000  0.000     0.765     1.373
  12   8 O     -0.623  1.757  4.866  0.000    25.737     6.847
  13   1 H      0.314  0.686  0.000  0.000     0.680     1.296
  14   1 H      0.302  0.698  0.000  0.000     0.714     1.327
  15   8 O     -0.639  1.752  4.888  0.000    26.148     6.902
  16   1 H      0.314  0.686  0.000  0.000     0.680     1.295
  17   1 H      0.350  0.650  0.000  0.000     0.589     1.206
  18   1 H      0.325  0.675  0.000  0.000     0.650     1.267
  19   8 O     -0.606  1.754  4.852  0.000    25.334     6.794
  20   1 H      0.338  0.662  0.000  0.000     0.617     1.234
  21   1 H      0.301  0.699  0.000  0.000     0.711     1.321
  22   1 H      0.324  0.676  0.000  0.000     0.652     1.269
  23   7 N     -0.354  1.279  4.075  0.000    29.092     8.011
  24   1 H      0.224  0.776  0.000  0.000     0.992     1.560
  25   1 H      0.274  0.726  0.000  0.000     0.796     1.397
  26   1 H      0.297  0.703  0.000  0.000     0.721     1.329

 Mol. C6AA /au·bohr⁶  :       5447.298325
 Mol. C8AA /au·bohr⁸  :     117961.971064
 Mol. α(0) /au        :        106.572069

 
 Wiberg/Mayer (AO) data. WBOs > 0.1 written file <wbo>
 largest (>0.05) Wiberg bond orders for each atom
           total WBO             WBO to atom ...
     1  S   4.876    O    2 1.371    O    3 1.358    O    4 1.224    O    5 0.882
     2  O   1.731    S    1 1.371    O    3 0.113    O    4 0.111    O    5 0.067
     3  O   1.740    S    1 1.358    O    2 0.113    O    4 0.103    O    5 0.079    H   16 0.052
     4  O   1.749    S    1 1.224    H   26 0.133    O    2 0.111    O    3 0.103    O    5 0.067    N   23 0.053
     5  O   1.965    S    1 0.882    H    6 0.864    O    3 0.079    O    2 0.067    O    4 0.067
     6  H   0.881    O    5 0.864
     7  O   1.877    H    8 0.910    H   17 0.763    H   10 0.066
     8  H   0.918    O    7 0.910
     9  O   1.866    H   11 0.909    H   10 0.816
    10  H   0.885    O    9 0.816    O    7 0.066
    11  H   0.918    O    9 0.909
    12  O   1.862    H   14 0.882    H   13 0.859    H   18 0.054
    13  H   0.901    O   12 0.859
    14  H   0.909    O   12 0.882
    15  O   1.894    H   16 0.840    H   18 0.837    H   17 0.112
    16  H   0.901    O   15 0.840    O    3 0.052
    17  H   0.878    O    7 0.763    O   15 0.112
    18  H   0.894    O   15 0.837    O   12 0.054
    19  O   1.961    H   22 0.851    H   20 0.834    H   21 0.152    N   23 0.072
    20  H   0.886    O   19 0.834
    21  H   0.910    N   23 0.753    O   19 0.152
    22  H   0.895    O   19 0.851
    23  N   3.513    H   24 0.947    H   25 0.874    H   26 0.771    H   21 0.753    O   19 0.072    O    4 0.053
    24  H   0.950    N   23 0.947
    25  H   0.925    N   23 0.874
    26  H   0.912    N   23 0.771    O    4 0.133
 MOs/occ written to file <molden.input>
 
molecular dipole:
                 x           y           z       tot (Debye)
 q only:       -1.711      -2.128       0.964
   full:       -1.487      -1.755       0.684       6.101
molecular quadrupole (traceless):
                xx          xy          yy          xz          yz          zz
 q only:        6.969      -1.860       3.529       2.729      -6.393     -10.498
  q+dip:        5.547      -2.263      10.223       5.282      -9.877     -15.770
   full:        5.254      -2.477      11.072       5.259     -10.275     -16.326

SCC energy    :     -50.7521741
rep           :       0.2890862
ES            :       0.2676858
AES           :      -0.0736704
AXC           :      -0.0081779
disp          :      -0.0194203
XB            :       0.0000000
fix           :       0.0000000
total E       :     -50.4627243
atomizationE  :       4.9930284     3133.17
(atE without considering molecular charge,
 total energy contains solvation terms)
H-L gap (eV)  :          9.1488
optimized geometry written to: xtbopt.xyz


------------------------------------------------------------------------
 * finished run on 2019/09/16 at 13:37:34.017     
------------------------------------------------------------------------
 total:
 * wall-time:     0 d,  0 h,  0 min,  3.957 sec
 *  cpu-time:     0 d,  0 h,  0 min,  3.868 sec
 * ratio c/w:     0.978 speedup
 SCF:
 * wall-time:     0 d,  0 h,  0 min,  0.551 sec
 *  cpu-time:     0 d,  0 h,  0 min,  0.511 sec
 * ratio c/w:     0.927 speedup
 ANC optimizer:
 * wall-time:     0 d,  0 h,  0 min,  3.352 sec
 *  cpu-time:     0 d,  0 h,  0 min,  3.304 sec
 * ratio c/w:     0.986 speedup

