      -----------------------------------------------------------      
     |                   =====================                   |     
     |                           x T B                           |     
     |                   =====================                   |     
     |                         S. Grimme                         |     
     |          Mulliken Center for Theoretical Chemistry        |     
     |                    University of Bonn                     |     
     |                 Version 6.0.1 (SAW181210)                 |     
      -----------------------------------------------------------      

   This program is distributed in the hope that it will be useful,
   but WITHOUT ANY WARRANTY; without even the implied warranty of
   MERCHANTABILITY or FITNESS FOR A PARTICULAR PURPOSE.
   
   FOR NON-COMMERCIAL, ACADEMIA USE ONLY.
   
   Cite this work as:
   S. Grimme, C. Bannwarth, P. Shushkov, J. Comput. Theory Chem., 2017,
   13, 1989-2009.
   C. Bannwarth, S. Ehlert and S. Grimme., ChemRxiv, 2018, preprint.
   http://doi.org/10.26434/chemrxiv.7246238.v1
   
   for sTDA-xTB:
   S. Grimme and C. Bannwarth, J. Chem. Phys., 2016, 145, 054103.
   
   in the mass-spec context:
   V. Asgeirsson, C. Bauer and S. Grimme, Chem. Sci., 2017, 8, 4879.
   
   if GBSA is used:
   P. Shushkov, F. März and S. Grimme, unpublished.
   
   for ANC optimizer:
   S. Grimme, unpublished.
   Rational Function algorithm used in ANCopt:
   F. Eckert, P. Pulay, H.-J. Werner, J. Comput. Chem., 1997, 18, 1473.
   
   with help from (in alphabetical order)
   C. Bannwarth, F. Bohle, G. Brandenburg, E. Caldeweyher, M. Checinski,
   S. Dohm, S. Ehlert, S. Ehrlich, F. März, H. Neugebauer, J. Pisarek,
   P. Pracht, P. Shushkov, and S. Spicher.
   
 * started run on 2019/09/16 at 11:34:49.109     
========================================================================
 # omp threads = 1
========================================================================
number of atoms            : 26
number of electrons        : 80
charge                     : 0
spin                       : .0
first test random number   : .8204

########################################################################
# WARNING! Please study the warnings concerning your input carefully
#  - XTBPATH is not set, using XTBHOME instead
#  - the use of '-opt' is discouraged, please use '--opt' next time
#  - the use of '-chrg' is discouraged, please use '--chrg' next time
#  - the use of '-uhf' is discouraged, please use '--uhf' next time
########################################################################

           ------------------------------------------------- 
          |                 G F N 2 - x T B                 |
          | Geometry, Frequencies, Noncovalent interactions |
          |            JCTC 2018 parametrisation            |
           ------------------------------------------------- 
      method parameters     
 k(s)        :  1.8500
 k(p)        :  2.2300
 k(d)        :  2.2300
 k(f)        :  2.0000
 kEN (H0ij)  : -2.0000
 D4 a1       :  0.5200
 D4 a2       :  5.0000
 D4 s6       :  1.0000
 D4 s8       :  2.7000
 D4 s9       :  5.0000
 alphaj      :  2.0000


            Z     q(EN)     CN     RAES       Cart. coordinates
     1  S   6.0    0.58    4.29    4.22     0.16503     4.08039     2.01128
     2  O   6.0   -0.32    1.13    1.80     0.71485     3.40663    -0.60122
     3  O   6.0   -0.31    1.15    1.80    -2.33436     3.92007     3.09061
     4  O   6.0   -0.24    2.06    1.83     2.18760     2.55706     3.78161
     5  O   6.0   -0.23    2.04    1.83     1.14150     6.89948     2.61707
     6  H   1.0    0.14    1.11    1.45     2.76918     7.16756     1.80150
     7  H   1.0    0.18    1.31    1.50     2.55064     0.96032     2.94197
     8  O   6.0   -0.39    1.68    1.81     2.50361    -1.49636     1.60607
     9  H   1.0    0.17    0.95    1.42     3.50782    -2.53414     2.78858
    10  O   6.0   -0.30    2.06    1.83    -1.87679    -3.26021     1.48927
    11  H   1.0    0.18    1.11    1.45    -0.19496    -2.61052     1.74213
    12  H   1.0    0.17    1.03    1.43    -2.90266    -2.44590     2.75383
    13  O   6.0   -0.30    2.06    1.83    -1.59122    -5.43955    -2.93798
    14  H   1.0    0.16    1.05    1.44    -1.98473    -4.82684    -1.26934
    15  H   1.0    0.15    0.97    1.43    -2.78882    -6.77346    -3.25591
    16  O   6.0   -0.29    2.00    1.83    -4.56501    -0.42849     4.76303
    17  H   1.0    0.17    1.03    1.43    -4.08001     1.25163     4.25651
    18  H   1.0    0.15    0.97    1.43    -5.41828    -0.22300     6.35813
    19  O   6.0   -0.23    2.92    2.59     2.29761    -2.43600    -2.81335
    20  H   1.0    0.17    1.22    1.47     2.54744    -2.02118    -1.00909
    21  H   1.0    0.14    1.06    1.44     0.94808    -3.70403    -3.06011
    22  H   1.0    0.13    1.07    1.44     2.01772    -0.90688    -3.85015
    23  N   5.0   -0.22    3.05    1.93     1.25971     1.68159    -5.72481
    24  H   1.0    0.10    0.99    1.43     2.54320     2.72641    -6.71073
    25  H   1.0    0.13    1.02    1.43     0.97802     2.62538    -4.06922
    26  H   1.0    0.11    0.99    1.43    -0.39517     1.83005    -6.69969

  Z AO/shell   Hii/eV     exponent
  1     Wed Apr 25 08:07:45 CEST 2018   EN: 2.200 GM2: 0.406  GM3: 0.0800  RAES: 1.40
     1s    -10.707211    1.230000
  7     Wed Apr 25 08:07:45 CEST 2018   EN: 3.040 GM2: 0.461  GM3:-0.0640  RAES: 1.90
     2s    -16.686243    2.339881
     2p    -12.523956    2.014332
  8     Wed Apr 25 08:07:45 CEST 2018   EN: 3.440 GM2: 0.452  GM3:-0.0517  RAES: 1.80
     2s    -20.229985    2.439742
     2p    -15.503117    2.137023
 16     Tue Apr 24 11:44:34 CEST 2018   EN: 2.580 GM2: 0.340  GM3:-0.0502  RAES: 3.10
     3s    -20.029654    1.981333
     3p    -11.377694    2.025643
     3d     -0.420282    1.702555
 no old-style atom pair restraining (fixing) potential

molecular fragmentation (1/2 indicates fragments):
11111112222222222222222222
# atoms in fragment 1/2:     7    19
 fragment masses (1/2) :       98.07      107.11
CMA distance (Bohr)    :   6.671
constraining FC (au)   :  0.0500
           ------------------------------------------------- 
          |        Self-Consistent Charge Iterations        |
           ------------------------------------------------- 

 Ncao       : 65
 Nao        : 64
 Nshell     : 38
 Nel        : 80
 T(el)      :   300.0
 intcut     :    25.0
 scfconv/Eh :  0.100E-05
   qconv/e  :  0.100E-03
 intneglect :  0.100E-07
 broydamp   :      0.250
 iter      E             dE          RMSdq      gap      omega  full diag
   1    -50.5736868 -0.505737E+02  0.709E+00    7.89       0.0  T
   2    -50.6247890 -0.511022E-01  0.499E+00    7.11       1.0  T
   3    -50.6639986 -0.392096E-01  0.121E+00    4.50       1.0  T
   4    -50.6683818 -0.438320E-02  0.629E-01    4.71       1.0  T
   5    -50.6696282 -0.124639E-02  0.288E-01    4.73       1.0  T
   6    -50.6700321 -0.403877E-03  0.157E-01    4.77       1.0  T
   7    -50.6701806 -0.148512E-03  0.580E-02    4.78       1.0  T
   8    -50.6702022 -0.216167E-04  0.257E-02    4.78       1.0  T
   9    -50.6702057 -0.348596E-05  0.112E-02    4.79       1.7  T
  10    -50.6702063 -0.639294E-06  0.221E-03    4.79       8.9  T
  11    -50.6702063 -0.140390E-07  0.123E-03    4.79      16.0  T
  12    -50.6702063 -0.389348E-08  0.543E-04    4.79      36.1  T
  13    -50.6702063 -0.147474E-08  0.184E-04    4.79     106.5  T
speedup  1.01
cpu  time for SCC    0.02 s
wall time for SCC    0.02 s

   *** convergence criteria satisfied after 13 iterations ***

          eigenvalues
 #    :          28         29         30         31         32         33         34         35
 occ. :        2.000      2.000      2.000      2.000      2.000      2.000      2.000      2.000
 eps  :       -12.896    -12.808    -12.573    -12.526    -12.389    -12.345    -12.051    -11.870
 #    :          36         37         38         39         40         41         42         43
 occ. :        2.000      2.000      2.000      2.000      2.000      0.000      0.000      0.000
 eps  :       -11.484    -11.477    -10.400    -10.038     -9.619     -4.829     -2.107     -0.831
 #    :          44         45         46         47         48         49         50         51
 occ. :        0.000      0.000      0.000      0.000      0.000      0.000      0.000      0.000
 eps  :        -0.367      0.431      1.477      2.556      2.679      3.260      4.464      4.898


   #   Z            q   n(s)   n(p)   n(d)      C6AA      α(0)
   1  16 S      1.663  1.630  1.788  0.919    89.612    15.933
   2   8 O     -0.670  1.767  4.903  0.000    27.908     7.083
   3   8 O     -0.634  1.764  4.870  0.000    26.970     6.963
   4   8 O     -0.621  1.772  4.850  0.000    25.670     6.840
   5   8 O     -0.564  1.754  4.809  0.000    24.301     6.655
   6   1 H      0.350  0.650  0.000  0.000     0.586     1.202
   7   1 H      0.385  0.615  0.000  0.000     0.507     1.116
   8   8 O     -0.858  1.844  5.015  0.000    33.348     7.745
   9   1 H      0.215  0.785  0.000  0.000     1.047     1.607
  10   8 O     -0.689  1.752  4.937  0.000    27.423     7.068
  11   1 H      0.321  0.679  0.000  0.000     0.659     1.275
  12   1 H      0.307  0.693  0.000  0.000     0.700     1.314
  13   8 O     -0.625  1.731  4.894  0.000    25.792     6.854
  14   1 H      0.347  0.653  0.000  0.000     0.595     1.212
  15   1 H      0.283  0.717  0.000  0.000     0.774     1.382
  16   8 O     -0.598  1.738  4.860  0.000    25.144     6.768
  17   1 H      0.318  0.682  0.000  0.000     0.669     1.285
  18   1 H      0.280  0.720  0.000  0.000     0.784     1.391
  19   8 O     -0.458  1.657  4.801  0.000    21.942     6.326
  20   1 H      0.411  0.589  0.000  0.000     0.459     1.060
  21   1 H      0.405  0.595  0.000  0.000     0.476     1.084
  22   1 H      0.378  0.622  0.000  0.000     0.527     1.141
  23   7 N     -0.452  1.381  4.071  0.000    31.869     8.384
  24   1 H      0.151  0.849  0.000  0.000     1.393     1.849
  25   1 H      0.199  0.801  0.000  0.000     1.110     1.651
  26   1 H      0.156  0.844  0.000  0.000     1.359     1.826

 Mol. C6AA /au·bohr⁶  :       5480.024002
 Mol. C8AA /au·bohr⁸  :     118353.940931
 Mol. α(0) /au        :        107.011235

 
 Wiberg/Mayer (AO) data. WBOs > 0.1 written file <wbo>
 largest (>0.05) Wiberg bond orders for each atom
           total WBO             WBO to atom ...
     1  S   4.747    O    3 1.443    O    2 1.392    O    4 0.955    O    5 0.919
     2  O   1.758    S    1 1.392    O    3 0.139    O    4 0.106    O    5 0.089
     3  O   1.815    S    1 1.443    O    2 0.139    O    4 0.103    O    5 0.072
     4  O   1.947    S    1 0.955    H    7 0.666    O    2 0.106    O    3 0.103    O    5 0.057    O    8 0.053
     5  O   2.003    S    1 0.919    H    6 0.859    O    2 0.089    O    3 0.072    O    4 0.057
     6  H   0.877    O    5 0.859
     7  H   0.852    O    4 0.666    O    8 0.168
     8  O   1.605    H    9 0.948    H   20 0.202    H    7 0.168    H   11 0.108    O   19 0.061    O    4 0.053
     9  H   0.954    O    8 0.948
    10  O   1.799    H   12 0.859    H   11 0.786    H   14 0.058
    11  H   0.897    O   10 0.786    O    8 0.108
    12  H   0.906    O   10 0.859
    13  O   1.843    H   15 0.904    H   14 0.818    H   21 0.068
    14  H   0.880    O   13 0.818    O   10 0.058
    15  H   0.920    O   13 0.904
    16  O   1.842    H   18 0.912    H   17 0.863
    17  H   0.899    O   16 0.863
    18  H   0.921    O   16 0.912
    19  O   2.283    H   22 0.761    H   21 0.759    H   20 0.623    O    8 0.061
    20  H   0.831    O   19 0.623    O    8 0.202
    21  H   0.836    O   19 0.759    O   13 0.068
    22  H   0.857    O   19 0.761    N   23 0.089
    23  N   3.023    H   24 0.973    H   26 0.971    H   25 0.932    H   22 0.089
    24  H   0.977    N   23 0.973
    25  H   0.960    N   23 0.932
    26  H   0.976    N   23 0.971
 MOs/occ written to file <molden.input>
 
molecular dipole:
                 x           y           z       tot (Debye)
 q only:        0.691       0.120      -2.022
   full:        0.553       0.765      -1.556       4.626
molecular quadrupole (traceless):
                xx          xy          yy          xz          yz          zz
 q only:       -2.619       6.495       1.122      -3.462      -1.249       1.497
  q+dip:       -3.776       8.652       1.979      -1.724      -5.681       1.797
   full:       -3.840       8.972       2.164      -1.845      -5.435       1.675

SCC energy    :     -50.6702063
rep           :       0.2849981
ES            :       0.2668861
AES           :      -0.0536067
AXC           :      -0.0033375
disp          :      -0.0165150
XB            :       0.0000000
fix           :       0.0000000
total E       :     -50.3848959
atomizationE  :       4.9152001     3084.33
(atE without considering molecular charge,
 total energy contains solvation terms)
H-L gap (eV)  :          4.7899
           ------------------------------------------------- 
          |                 ===============                 |
          |                   A N C O P T                   |
          |                 ===============                 |
          |          Approximate Normal Coordinate          |
          |           Rational Function Optimizer           |
           ------------------------------------------------- 
dumping coords to <xtbopt.coord> and <xtbopt.log>
 optlevel               2
 Maxcycle             520
 Maxmicro              25
 Econv         1.000000000000000E-007
 Gconv         2.000000000000000E-004
 Maxdispl       1.00000000000000     
 Hlow          5.000000000000000E-003
 S6             20.0000000000000     
 Nvar               72

generating ANC from model Hessian ...
 Shifting diagonal of input Hessian by   5.179205817804360E-003
 Lowest  eigenvalues of input Hessian
    0.005000    0.005155   -0.000000   -0.000000   -0.000000    0.000000
    0.000000    0.000000    0.005382    0.005623    0.005677    0.005965
    0.006451    0.006682    0.007213    0.007926    0.008518    0.009226
 Highest eigenvalues
    1.447280    1.563219    1.593832    1.953954    2.771107    3.592527
 
cpu  time for ANC gen    0.01 s
wall time for ANC gen    0.01 s
................................................................................
.............................. CYCLE    1 ......................................
................................................................................
   1    -50.6702063 -0.506702E+02  0.476E-05    4.79       0.0  T
   2    -50.6702063 -0.341061E-11  0.368E-05    4.79     533.1  T
   3    -50.6702063 -0.278533E-11  0.156E-05    4.79    1259.9  T
speedup  1.00
cpu  time for SCC    0.00 s
wall time for SCC    0.00 s
speedup  0.97
cpu  time for grad    0.01 s
wall time for grad    0.01 s
 E :    -50.38489592  G :  0.162489    pred/act E change:  0.000D+00  0.187D-07
Maxdispl :   0.1097   ||displ|| :   0.2953   Lambda : -0.252D-01
Largest |displ|/coords:  0.1097 (  22)  0.0722 (  20)  0.0705 (  54)
................................................................................
.............................. CYCLE    2 ......................................
................................................................................
   1    -50.6825946 -0.506826E+02  0.356E-01    5.58       0.0  T
   2    -50.6827572 -0.162554E-03  0.265E-01    5.67       1.0  T
   3    -50.6828370 -0.797970E-04  0.687E-02    5.85       1.0  T
   4    -50.6828516 -0.146197E-04  0.261E-02    5.84       1.0  T
   5    -50.6828532 -0.156779E-05  0.593E-03    5.82       3.3  T
   6    -50.6828532 -0.576419E-07  0.354E-03    5.82       5.5  T
speedup  1.07
cpu  time for SCC    0.01 s
wall time for SCC    0.01 s
speedup  0.97
cpu  time for grad    0.01 s
wall time for grad    0.01 s
 E :    -50.40438411  G :  0.095918    pred/act E change:  0.000D+00 -0.195D-01
Maxdispl :   0.1218   ||displ|| :   0.3230   Lambda : -0.118D-01
Largest |displ|/coords:  0.1218 (  12)  0.1021 (  22)  0.0925 (  16)
................................................................................
.............................. CYCLE    3 ......................................
................................................................................
   1    -50.6902816 -0.506903E+02  0.342E-01    6.53       0.0  T
   2    -50.6904414 -0.159809E-03  0.253E-01    6.63       1.0  T
   3    -50.6905160 -0.745441E-04  0.637E-02    6.85       1.0  T
   4    -50.6905312 -0.152818E-04  0.208E-02    6.82       1.0  T
   5    -50.6905322 -0.955371E-06  0.508E-03    6.81       3.9  T
   6    -50.6905322 -0.419248E-07  0.300E-03    6.81       6.5  T
speedup  1.05
cpu  time for SCC    0.01 s
wall time for SCC    0.01 s
speedup  1.05
cpu  time for grad    0.01 s
wall time for grad    0.01 s
 E :    -50.41423371  G :  0.065781    pred/act E change: -0.137D-01 -0.985D-02
Maxdispl :   0.1235   ||displ|| :   0.3583   Lambda : -0.733D-02
Largest |displ|/coords:  0.1235 (   5)  0.1144 (  12)  0.1085 (  16)
................................................................................
.............................. CYCLE    4 ......................................
................................................................................
   1    -50.6961963 -0.506962E+02  0.277E-01    7.34       0.0  T
   2    -50.6963509 -0.154649E-03  0.201E-01    7.44       1.0  T
   3    -50.6964224 -0.714500E-04  0.590E-02    7.64       1.0  T
   4    -50.6964329 -0.105309E-04  0.162E-02    7.62       1.2  T
   5    -50.6964335 -0.603615E-06  0.475E-03    7.61       4.1  T
   6    -50.6964335 -0.382460E-07  0.274E-03    7.61       7.1  T
speedup  1.07
cpu  time for SCC    0.01 s
wall time for SCC    0.01 s
speedup  1.05
cpu  time for grad    0.01 s
wall time for grad    0.01 s
 E :    -50.42038512  G :  0.046283    pred/act E change: -0.650D-02 -0.615D-02
Maxdispl :   0.1844   ||displ|| :   0.5193   Lambda : -0.910D-02
Largest |displ|/coords:  0.1844 (  16)  0.1785 (  12)  0.1497 (  26)
................................................................................
.............................. CYCLE    5 ......................................
................................................................................
   1    -50.7009082 -0.507009E+02  0.479E-01    8.32       0.0  T
   2    -50.7014712 -0.563060E-03  0.347E-01    8.40       1.0  T
   3    -50.7017251 -0.253813E-03  0.110E-01    8.57       1.0  T
   4    -50.7017618 -0.367635E-04  0.248E-02    8.58       1.0  T
   5    -50.7017630 -0.120212E-05  0.858E-03    8.57       2.3  T
   6    -50.7017632 -0.131007E-06  0.434E-03    8.57       4.5  T
   7    -50.7017632 -0.426056E-07  0.180E-03    8.57      10.9  T
speedup  1.08
cpu  time for SCC    0.01 s
wall time for SCC    0.01 s
speedup  1.03
cpu  time for grad    0.01 s
wall time for grad    0.01 s
 E :    -50.42575459  G :  0.029761    pred/act E change: -0.414D-02 -0.537D-02
Maxdispl :   0.2972   ||displ|| :   0.6348   Lambda : -0.588D-02
Largest |displ|/coords:  0.2972 (   9)  0.2497 (   5)  0.1869 (  11)
................................................................................
.............................. CYCLE    6 ......................................
................................................................................
   1    -50.7055669 -0.507056E+02  0.640E-01    8.60       0.0  T
   2    -50.7060124 -0.445525E-03  0.477E-01    8.67       1.0  T
   3    -50.7062191 -0.206640E-03  0.110E-01    8.82       1.0  T
   4    -50.7062800 -0.609000E-04  0.225E-02    8.80       1.0  T
   5    -50.7062810 -0.101266E-05  0.942E-03    8.79       2.1  T
   6    -50.7062811 -0.994796E-07  0.474E-03    8.79       4.1  T
   7    -50.7062811 -0.297714E-07  0.150E-03    8.79      13.1  T
speedup  1.08
cpu  time for SCC    0.01 s
wall time for SCC    0.01 s
speedup  1.05
cpu  time for grad    0.01 s
wall time for grad    0.01 s
 E :    -50.42428697  G :  0.063770    pred/act E change: -0.578D-02  0.147D-02
Maxdispl :   0.2233   ||displ|| :   0.4943   Lambda : -0.134D-01
Largest |displ|/coords:  0.2233 (  12)  0.1682 (   9)  0.1610 (  19)
................................................................................
.............................. CYCLE    7 ......................................
................................................................................
   1    -50.6953096 -0.506953E+02  0.790E-01    8.55       0.0  T
   2    -50.6957057 -0.396120E-03  0.592E-01    8.53       1.0  T
   3    -50.6959256 -0.219969E-03  0.110E-01    8.43       1.0  T
   4    -50.6959815 -0.558626E-04  0.295E-02    8.46       1.0  T
   5    -50.6959836 -0.211602E-05  0.978E-03    8.47       2.0  T
   6    -50.6959837 -0.110128E-06  0.536E-03    8.47       3.7  T
   7    -50.6959838 -0.565533E-07  0.144E-03    8.47      13.6  T
speedup  0.92
cpu  time for SCC    0.01 s
wall time for SCC    0.01 s
speedup  0.99
cpu  time for grad    0.01 s
wall time for grad    0.01 s
 E :    -50.42524476  G :  0.065810    pred/act E change: -0.412D-02 -0.958D-03
Maxdispl :   0.2129   ||displ|| :   0.5029   Lambda : -0.153D-01
Largest |displ|/coords:  0.2129 (  12)  0.1786 (  15)  0.1665 (  10)
................................................................................
.............................. CYCLE    8 ......................................
................................................................................
   1    -50.7107881 -0.507108E+02  0.793E-01    8.55       0.0  T
   2    -50.7111853 -0.397145E-03  0.595E-01    8.60       1.0  T
   3    -50.7114283 -0.243073E-03  0.110E-01    8.69       1.0  T
   4    -50.7114865 -0.581875E-04  0.202E-02    8.66       1.0  T
   5    -50.7114871 -0.563164E-06  0.114E-02    8.66       1.7  T
   6    -50.7114872 -0.111746E-06  0.382E-03    8.66       5.1  T
   7    -50.7114872 -0.343761E-07  0.105E-03    8.66      18.6  T
speedup  0.92
cpu  time for SCC    0.01 s
wall time for SCC    0.01 s
speedup  0.98
cpu  time for grad    0.01 s
wall time for grad    0.01 s
 E :    -50.42671481  G :  0.056936    pred/act E change: -0.832D-02 -0.147D-02
Maxdispl :   0.1370   ||displ|| :   0.2855   Lambda : -0.456D-02
Largest |displ|/coords:  0.1370 (   4)  0.0888 (   7)  0.0858 (  18)
................................................................................
.............................. CYCLE    9 ......................................
................................................................................
   1    -50.7046463 -0.507046E+02  0.350E-01    8.52       0.0  T
   2    -50.7047011 -0.547503E-04  0.264E-01    8.52       1.0  T
   3    -50.7047357 -0.346528E-04  0.399E-02    8.52       1.0  T
   4    -50.7047437 -0.801186E-05  0.115E-02    8.52       1.7  T
   5    -50.7047440 -0.315734E-06  0.349E-03    8.52       5.6  T
   6    -50.7047441 -0.727324E-08  0.201E-03    8.52       9.8  T
speedup  1.05
cpu  time for SCC    0.01 s
wall time for SCC    0.01 s
speedup  0.98
cpu  time for grad    0.01 s
wall time for grad    0.01 s
 E :    -50.42877205  G :  0.025454    pred/act E change: -0.961D-02 -0.206D-02
Maxdispl :   0.1195   ||displ|| :   0.2622   Lambda : -0.191D-02
Largest |displ|/coords:  0.1195 (   5)  0.0994 (  17)  0.0701 (  22)
................................................................................
.............................. CYCLE   10 ......................................
................................................................................
   1    -50.7020203 -0.507020E+02  0.301E-01    8.56       0.0  T
   2    -50.7020632 -0.429650E-04  0.226E-01    8.57       1.0  T
   3    -50.7020899 -0.266672E-04  0.376E-02    8.60       1.0  T
   4    -50.7020962 -0.626241E-05  0.106E-02    8.60       1.8  T
   5    -50.7020964 -0.274773E-06  0.353E-03    8.60       5.6  T
   6    -50.7020965 -0.111200E-07  0.217E-03    8.60       9.0  T
speedup  1.07
cpu  time for SCC    0.01 s
wall time for SCC    0.01 s
speedup  0.98
cpu  time for grad    0.01 s
wall time for grad    0.01 s
 E :    -50.42928427  G :  0.028326    pred/act E change: -0.246D-02 -0.512D-03
Maxdispl :   0.0824   ||displ|| :   0.1992   Lambda : -0.140D-02
Largest |displ|/coords:  0.0824 (   7)  0.0686 (   1)  0.0540 (  19)
................................................................................
.............................. CYCLE   11 ......................................
................................................................................
   1    -50.7069946 -0.507070E+02  0.189E-01    8.65       0.0  T
   2    -50.7070235 -0.289183E-04  0.142E-01    8.67       1.0  T
   3    -50.7070385 -0.149505E-04  0.291E-02    8.71       1.0  T
   4    -50.7070425 -0.408306E-05  0.525E-03    8.72       3.7  T
   5    -50.7070426 -0.508976E-07  0.235E-03    8.71       8.3  T
speedup  1.06
cpu  time for SCC    0.01 s
wall time for SCC    0.00 s
speedup  0.98
cpu  time for grad    0.01 s
wall time for grad    0.01 s
 E :    -50.42997193  G :  0.017827    pred/act E change: -0.102D-02 -0.688D-03
Maxdispl :   0.1219   ||displ|| :   0.3025   Lambda : -0.135D-02
Largest |displ|/coords:  0.1219 (   1)  0.0935 (   4)  0.0885 (  14)
................................................................................
.............................. CYCLE   12 ......................................
................................................................................
   1    -50.7055366 -0.507055E+02  0.233E-01    8.73       0.0  T
   2    -50.7056100 -0.733288E-04  0.170E-01    8.75       1.0  T
   3    -50.7056462 -0.361948E-04  0.443E-02    8.77       1.0  T
   4    -50.7056544 -0.820216E-05  0.996E-03    8.77       2.0  T
   5    -50.7056546 -0.199560E-06  0.452E-03    8.77       4.3  T
   6    -50.7056546 -0.294433E-07  0.252E-03    8.77       7.8  T
   7    -50.7056546 -0.792310E-08  0.570E-04    8.77      34.4  T
speedup  1.11
cpu  time for SCC    0.01 s
wall time for SCC    0.01 s
speedup  1.03
cpu  time for grad    0.01 s
wall time for grad    0.01 s
 E :    -50.43014897  G :  0.030413    pred/act E change: -0.726D-03 -0.177D-03
Maxdispl :   0.0594   ||displ|| :   0.1449   Lambda : -0.121D-02
Largest |displ|/coords:  0.0594 (  12)  0.0516 (  20)  0.0481 (   3)
................................................................................
.............................. CYCLE   13 ......................................
................................................................................
   1    -50.7081485 -0.507081E+02  0.128E-01    8.72       0.0  T
   2    -50.7081600 -0.114948E-04  0.963E-02    8.73       1.0  T
   3    -50.7081672 -0.714187E-05  0.200E-02    8.75       1.0  T
   4    -50.7081687 -0.156787E-05  0.764E-03    8.75       2.6  T
   5    -50.7081688 -0.952635E-07  0.190E-03    8.74      10.3  T
   6    -50.7081688 -0.459271E-08  0.107E-03    8.74      18.3  T
speedup  0.89
cpu  time for SCC    0.00 s
wall time for SCC    0.01 s
speedup  0.98
cpu  time for grad    0.01 s
wall time for grad    0.01 s
 E :    -50.43092850  G :  0.012310    pred/act E change: -0.735D-03 -0.780D-03
Maxdispl :   0.1300   ||displ|| :   0.3707   Lambda : -0.134D-02
Largest |displ|/coords:  0.1300 (  12)  0.1213 (   5)  0.1184 (   2)
................................................................................
.............................. CYCLE   14 ......................................
................................................................................
   1    -50.6996774 -0.506997E+02  0.310E-01    8.70       0.0  T
   2    -50.6997485 -0.711019E-04  0.232E-01    8.73       1.0  T
   3    -50.6997839 -0.354328E-04  0.504E-02    8.79       1.0  T
   4    -50.6997933 -0.938197E-05  0.185E-02    8.78       1.1  T
   5    -50.6997941 -0.760006E-06  0.421E-03    8.78       4.7  T
   6    -50.6997941 -0.169442E-07  0.276E-03    8.78       7.1  T
   7    -50.6997941 -0.128748E-07  0.669E-04    8.78      29.3  T
speedup  1.11
cpu  time for SCC    0.01 s
wall time for SCC    0.01 s
speedup  1.01
cpu  time for grad    0.01 s
wall time for grad    0.01 s
 E :    -50.43088012  G :  0.039568    pred/act E change: -0.619D-03  0.484D-04
Maxdispl :   0.0863   ||displ|| :   0.2171   Lambda : -0.209D-02
Largest |displ|/coords:  0.0863 (   3)  0.0711 (   1)  0.0633 (  11)
................................................................................
.............................. CYCLE   15 ......................................
................................................................................
   1    -50.7086664 -0.507087E+02  0.192E-01    8.81       0.0  T
   2    -50.7086969 -0.304774E-04  0.143E-01    8.82       1.0  T
   3    -50.7087144 -0.174658E-04  0.308E-02    8.85       1.0  T
   4    -50.7087180 -0.361814E-05  0.103E-02    8.85       1.9  T
   5    -50.7087182 -0.196324E-06  0.299E-03    8.85       6.6  T
   6    -50.7087182 -0.662877E-08  0.177E-03    8.85      11.1  T
speedup  0.91
cpu  time for SCC    0.01 s
wall time for SCC    0.01 s
speedup  0.99
cpu  time for grad    0.01 s
wall time for grad    0.01 s
 E :    -50.43199640  G :  0.024004    pred/act E change: -0.762D-03 -0.112D-02
Maxdispl :   0.2036   ||displ|| :   0.3653   Lambda : -0.181D-02
Largest |displ|/coords:  0.2036 (   4)  0.1200 (  11)  0.0953 (   2)
................................................................................
.............................. CYCLE   16 ......................................
................................................................................
   1    -50.7079246 -0.507079E+02  0.270E-01    8.83       0.0  T
   2    -50.7079831 -0.585057E-04  0.201E-01    8.85       1.0  T
   3    -50.7080188 -0.357429E-04  0.437E-02    8.88       1.0  T
   4    -50.7080265 -0.768658E-05  0.150E-02    8.88       1.3  T
   5    -50.7080269 -0.360791E-06  0.487E-03    8.88       4.0  T
   6    -50.7080269 -0.338512E-07  0.276E-03    8.88       7.1  T
speedup  1.11
cpu  time for SCC    0.01 s
wall time for SCC    0.01 s
speedup  1.01
cpu  time for grad    0.01 s
wall time for grad    0.01 s
 E :    -50.43224392  G :  0.038788    pred/act E change: -0.110D-02 -0.248D-03
Maxdispl :   0.1606   ||displ|| :   0.3398   Lambda : -0.224D-02
Largest |displ|/coords:  0.1606 (   1)  0.1020 (   3)  0.0997 (   2)
................................................................................
.............................. CYCLE   17 ......................................
................................................................................
   1    -50.7087722 -0.507088E+02  0.231E-01    8.93       0.0  T
   2    -50.7088173 -0.451650E-04  0.172E-01    8.96       1.0  T
   3    -50.7088456 -0.282823E-04  0.384E-02    9.01       1.0  T
   4    -50.7088512 -0.562012E-05  0.140E-02    9.01       1.4  T
   5    -50.7088516 -0.356090E-06  0.423E-03    9.01       4.6  T
   6    -50.7088516 -0.225790E-07  0.261E-03    9.01       7.5  T
speedup  0.91
cpu  time for SCC    0.00 s
wall time for SCC    0.01 s
speedup  0.99
cpu  time for grad    0.01 s
wall time for grad    0.01 s
 E :    -50.43392504  G :  0.024182    pred/act E change: -0.103D-02 -0.168D-02
Maxdispl :   0.1733   ||displ|| :   0.5426   Lambda : -0.328D-02
Largest |displ|/coords:  0.1733 (   9)  0.1513 (   1)  0.1401 (   2)
................................................................................
.............................. CYCLE   18 ......................................
................................................................................
   1    -50.7088742 -0.507089E+02  0.339E-01    9.09       0.0  T
   2    -50.7089681 -0.939026E-04  0.255E-01    9.10       1.0  T
   3    -50.7090399 -0.718511E-04  0.589E-02    9.09       1.0  T
   4    -50.7090509 -0.109370E-04  0.264E-02    9.09       1.0  T
   5    -50.7090518 -0.956945E-06  0.667E-03    9.09       2.9  T
   6    -50.7090519 -0.568764E-07  0.408E-03    9.09       4.8  T
   7    -50.7090519 -0.286541E-07  0.101E-03    9.09      19.4  T
speedup  1.11
cpu  time for SCC    0.01 s
wall time for SCC    0.01 s
speedup  1.00
cpu  time for grad    0.01 s
wall time for grad    0.01 s
 E :    -50.43593235  G :  0.039948    pred/act E change: -0.125D-02 -0.201D-02
Maxdispl :   0.1750   ||displ|| :   0.4535   Lambda : -0.293D-02
Largest |displ|/coords:  0.1750 (   1)  0.1446 (   9)  0.1430 (   8)
................................................................................
.............................. CYCLE   19 ......................................
................................................................................
   1    -50.7130826 -0.507131E+02  0.260E-01    9.11       0.0  T
   2    -50.7131498 -0.672100E-04  0.194E-01    9.11       1.0  T
   3    -50.7131982 -0.484058E-04  0.478E-02    9.10       1.0  T
   4    -50.7132061 -0.790879E-05  0.150E-02    9.10       1.3  T
   5    -50.7132064 -0.267480E-06  0.559E-03    9.10       3.5  T
   6    -50.7132064 -0.424675E-07  0.276E-03    9.10       7.1  T
speedup  0.91
cpu  time for SCC    0.00 s
wall time for SCC    0.01 s
speedup  1.00
cpu  time for grad    0.01 s
wall time for grad    0.01 s
 E :    -50.43823034  G :  0.039041    pred/act E change: -0.212D-02 -0.230D-02
Maxdispl :   0.1676   ||displ|| :   0.4314   Lambda : -0.433D-02
Largest |displ|/coords:  0.1676 (   9)  0.1290 (  21)  0.1287 (  24)
................................................................................
.............................. CYCLE   20 ......................................
................................................................................
   1    -50.7228152 -0.507228E+02  0.299E-01    9.15       0.0  T
   2    -50.7229189 -0.103705E-03  0.220E-01    9.15       1.0  T
   3    -50.7229926 -0.737121E-04  0.575E-02    9.14       1.0  T
   4    -50.7230031 -0.105543E-04  0.164E-02    9.14       1.2  T
   5    -50.7230036 -0.447330E-06  0.678E-03    9.14       2.9  T
   6    -50.7230036 -0.381314E-07  0.291E-03    9.14       6.7  T
   7    -50.7230036 -0.170660E-07  0.828E-04    9.14      23.7  T
speedup  1.08
cpu  time for SCC    0.01 s
wall time for SCC    0.01 s
speedup  1.00
cpu  time for grad    0.01 s
wall time for grad    0.01 s
 E :    -50.43974746  G :  0.033205    pred/act E change: -0.176D-02 -0.152D-02
Maxdispl :   0.1283   ||displ|| :   0.2589   Lambda : -0.246D-02
Largest |displ|/coords:  0.1283 (   3)  0.0763 (  17)  0.0724 (   6)
................................................................................
.............................. CYCLE   21 ......................................
................................................................................
   1    -50.7168279 -0.507168E+02  0.181E-01    9.05       0.0  T
   2    -50.7168572 -0.293230E-04  0.135E-01    9.05       1.0  T
   3    -50.7168727 -0.155138E-04  0.278E-02    9.05       1.0  T
   4    -50.7168770 -0.426996E-05  0.895E-03    9.05       2.2  T
   5    -50.7168771 -0.122597E-06  0.293E-03    9.05       6.7  T
   6    -50.7168771 -0.101353E-07  0.154E-03    9.05      12.7  T
speedup  0.91
cpu  time for SCC    0.01 s
wall time for SCC    0.01 s
speedup  1.00
cpu  time for grad    0.01 s
wall time for grad    0.01 s
 E :    -50.44080005  G :  0.025266    pred/act E change: -0.257D-02 -0.105D-02
Maxdispl :   0.1215   ||displ|| :   0.2405   Lambda : -0.152D-02
Largest |displ|/coords:  0.1215 (   5)  0.1007 (  14)  0.0784 (   9)
................................................................................
.............................. CYCLE   22 ......................................
................................................................................
   1    -50.7190694 -0.507191E+02  0.170E-01    9.15       0.0  T
   2    -50.7191027 -0.333531E-04  0.126E-01    9.15       1.0  T
   3    -50.7191204 -0.177067E-04  0.326E-02    9.15       1.0  T
   4    -50.7191245 -0.407898E-05  0.994E-03    9.15       2.0  T
   5    -50.7191247 -0.176575E-06  0.359E-03    9.15       5.5  T
   6    -50.7191247 -0.211363E-07  0.162E-03    9.15      12.1  T
speedup  0.91
cpu  time for SCC    0.00 s
wall time for SCC    0.01 s
speedup  0.99
cpu  time for grad    0.01 s
wall time for grad    0.01 s
 E :    -50.44153269  G :  0.022705    pred/act E change: -0.131D-02 -0.733D-03
Maxdispl :   0.1386   ||displ|| :   0.3115   Lambda : -0.144D-02
Largest |displ|/coords:  0.1386 (   3)  0.1171 (   9)  0.0873 (  14)
................................................................................
.............................. CYCLE   23 ......................................
................................................................................
   1    -50.7234179 -0.507234E+02  0.185E-01    9.20       0.0  T
   2    -50.7235144 -0.964966E-04  0.135E-01    9.20       1.0  T
   3    -50.7235542 -0.397959E-04  0.531E-02    9.20       1.0  T
   4    -50.7235612 -0.697238E-05  0.128E-02    9.20       1.5  T
   5    -50.7235615 -0.325743E-06  0.426E-03    9.20       4.6  T
   6    -50.7235615 -0.218757E-07  0.196E-03    9.20      10.0  T
speedup  0.91
cpu  time for SCC    0.01 s
wall time for SCC    0.01 s
speedup  0.92
cpu  time for grad    0.01 s
wall time for grad    0.01 s
 E :    -50.44249316  G :  0.022797    pred/act E change: -0.802D-03 -0.960D-03
Maxdispl :   0.2113   ||displ|| :   0.5200   Lambda : -0.236D-02
Largest |displ|/coords:  0.2113 (   9)  0.1911 (   3)  0.1434 (   6)
................................................................................
.............................. CYCLE   24 ......................................
................................................................................
   1    -50.7243450 -0.507243E+02  0.320E-01    9.20       0.0  T
   2    -50.7248141 -0.469175E-03  0.228E-01    9.20       1.0  T
   3    -50.7249878 -0.173647E-03  0.103E-01    9.19       1.0  T
   4    -50.7250082 -0.203768E-04  0.226E-02    9.20       1.0  T
   5    -50.7250092 -0.102291E-05  0.792E-03    9.20       2.5  T
   6    -50.7250093 -0.962142E-07  0.357E-03    9.20       5.5  T
   7    -50.7250093 -0.188562E-07  0.112E-03    9.20      17.6  T
speedup  0.97
cpu  time for SCC    0.01 s
wall time for SCC    0.01 s
speedup  1.01
cpu  time for grad    0.01 s
wall time for grad    0.01 s
 E :    -50.44444183  G :  0.028621    pred/act E change: -0.793D-03 -0.195D-02
Maxdispl :   0.2215   ||displ|| :   0.6492   Lambda : -0.348D-02
Largest |displ|/coords:  0.2215 (   9)  0.2139 (  13)  0.2129 (   3)
................................................................................
.............................. CYCLE   25 ......................................
................................................................................
   1    -50.7309055 -0.507309E+02  0.396E-01    9.24       0.0  T
   2    -50.7315797 -0.674267E-03  0.281E-01    9.23       1.0  T
   3    -50.7318308 -0.251106E-03  0.124E-01    9.22       1.0  T
   4    -50.7318566 -0.257500E-04  0.291E-02    9.22       1.0  T
   5    -50.7318580 -0.139554E-05  0.889E-03    9.22       2.2  T
   6    -50.7318581 -0.154124E-06  0.414E-03    9.22       4.7  T
   7    -50.7318582 -0.255175E-07  0.136E-03    9.22      14.5  T
speedup  0.95
cpu  time for SCC    0.01 s
wall time for SCC    0.01 s
speedup  0.99
cpu  time for grad    0.01 s
wall time for grad    0.01 s
 E :    -50.44630196  G :  0.037055    pred/act E change: -0.150D-02 -0.186D-02
Maxdispl :   0.1504   ||displ|| :   0.3343   Lambda : -0.334D-02
Largest |displ|/coords:  0.1504 (  21)  0.1115 (  24)  0.1115 (   6)

generating ANC from model Hessian ...
 Shifting diagonal of input Hessian by   5.172265035500554E-003
 Lowest  eigenvalues of input Hessian
    0.005000    0.005099   -0.000000   -0.000000    0.000000    0.000000
    0.000000    0.000000    0.005547    0.005951    0.006442    0.006856
    0.007353    0.007642    0.008653    0.010166    0.011153    0.012029
 Highest eigenvalues
    1.394320    1.399641    1.410733    2.580836    3.377257    3.615912
 
cpu  time for ANC gen    0.01 s
wall time for ANC gen    0.01 s
................................................................................
.............................. CYCLE   26 ......................................
................................................................................
   1    -50.7234750 -0.507235E+02  0.184E-01    8.99       0.0  T
   2    -50.7235108 -0.358006E-04  0.131E-01    8.99       1.0  T
   3    -50.7235289 -0.180986E-04  0.304E-02    9.00       1.0  T
   4    -50.7235320 -0.303137E-05  0.658E-03    9.00       3.0  T
   5    -50.7235320 -0.534054E-07  0.289E-03    9.00       6.8  T
   6    -50.7235320 -0.141366E-07  0.122E-03    9.00      16.0  T
   7    -50.7235320 -0.317380E-08  0.469E-04    9.00      41.8  T
   8    -50.7235320 -0.310713E-09  0.727E-05    9.00     269.7  T
speedup  0.93
cpu  time for SCC    0.01 s
wall time for SCC    0.01 s
speedup  0.94
cpu  time for grad    0.01 s
wall time for grad    0.02 s
 E :    -50.44668733  G :  0.039096    pred/act E change:  0.000D+00 -0.385D-03
Maxdispl :   0.1095   ||displ|| :   0.2502   Lambda : -0.306D-02
Largest |displ|/coords:  0.1095 (  14)  0.1052 (  11)  0.0983 (   8)
................................................................................
.............................. CYCLE   27 ......................................
................................................................................
   1    -50.7293940 -0.507294E+02  0.153E-01    9.09       0.0  T
   2    -50.7294075 -0.135621E-04  0.113E-01    9.09       1.0  T
   3    -50.7294140 -0.650041E-05  0.225E-02    9.10       1.0  T
   4    -50.7294158 -0.171564E-05  0.489E-03    9.10       4.0  T
   5    -50.7294158 -0.501601E-07  0.194E-03    9.09      10.1  T
speedup  1.04
cpu  time for SCC    0.00 s
wall time for SCC    0.00 s
speedup  1.02
cpu  time for grad    0.01 s
wall time for grad    0.01 s
 E :    -50.44873188  G :  0.018151    pred/act E change:  0.000D+00 -0.204D-02
Maxdispl :   0.1161   ||displ|| :   0.2519   Lambda : -0.131D-02
Largest |displ|/coords:  0.1161 (   9)  0.1068 (  11)  0.0656 (   6)
................................................................................
.............................. CYCLE   28 ......................................
................................................................................
   1    -50.7333273 -0.507333E+02  0.158E-01    9.16       0.0  T
   2    -50.7333419 -0.145880E-04  0.115E-01    9.16       1.0  T
   3    -50.7333474 -0.548569E-05  0.218E-02    9.16       1.0  T
   4    -50.7333494 -0.199913E-05  0.459E-03    9.16       4.3  T
   5    -50.7333494 -0.509374E-07  0.179E-03    9.16      11.0  T
   6    -50.7333494 -0.321896E-08  0.858E-04    9.16      22.9  T
speedup  0.91
cpu  time for SCC    0.00 s
wall time for SCC    0.01 s
speedup  0.98
cpu  time for grad    0.01 s
wall time for grad    0.01 s
 E :    -50.44938206  G :  0.011701    pred/act E change: -0.163D-02 -0.650D-03
Maxdispl :   0.0921   ||displ|| :   0.2065   Lambda : -0.563D-03
Largest |displ|/coords:  0.0921 (   6)  0.0825 (   8)  0.0725 (  11)
................................................................................
.............................. CYCLE   29 ......................................
................................................................................
   1    -50.7341734 -0.507342E+02  0.119E-01    9.19       0.0  T
   2    -50.7341808 -0.738394E-05  0.874E-02    9.19       1.0  T
   3    -50.7341835 -0.273748E-05  0.183E-02    9.19       1.1  T
   4    -50.7341846 -0.108801E-05  0.441E-03    9.19       4.4  T
   5    -50.7341847 -0.297157E-07  0.138E-03    9.19      14.2  T
   6    -50.7341847 -0.261428E-08  0.690E-04    9.19      28.4  T
speedup  1.09
cpu  time for SCC    0.01 s
wall time for SCC    0.01 s
speedup  0.98
cpu  time for grad    0.01 s
wall time for grad    0.01 s
 E :    -50.44973887  G :  0.012157    pred/act E change: -0.694D-03 -0.357D-03
Maxdispl :   0.1163   ||displ|| :   0.2464   Lambda : -0.483D-03
Largest |displ|/coords:  0.1163 (   6)  0.0879 (   2)  0.0858 (   3)
................................................................................
.............................. CYCLE   30 ......................................
................................................................................
   1    -50.7357944 -0.507358E+02  0.101E-01    9.20       0.0  T
   2    -50.7357985 -0.417381E-05  0.735E-02    9.19       1.0  T
   3    -50.7358007 -0.216630E-05  0.143E-02    9.18       1.4  T
   4    -50.7358012 -0.508866E-06  0.398E-03    9.18       4.9  T
   5    -50.7358012 -0.237115E-07  0.116E-03    9.18      17.0  T
   6    -50.7358012 -0.250167E-08  0.658E-04    9.18      29.8  T
speedup  1.05
cpu  time for SCC    0.01 s
wall time for SCC    0.01 s
speedup  1.04
cpu  time for grad    0.01 s
wall time for grad    0.01 s
 E :    -50.45011313  G :  0.008205    pred/act E change: -0.293D-03 -0.374D-03
Maxdispl :   0.1855   ||displ|| :   0.4027   Lambda : -0.590D-03
Largest |displ|/coords:  0.1855 (   6)  0.1609 (   3)  0.1453 (   2)
................................................................................
.............................. CYCLE   31 ......................................
................................................................................
   1    -50.7383575 -0.507384E+02  0.154E-01    9.18       0.0  T
   2    -50.7383645 -0.703626E-05  0.113E-01    9.17       1.0  T
   3    -50.7383694 -0.480607E-05  0.209E-02    9.15       1.0  T
   4    -50.7383701 -0.776676E-06  0.622E-03    9.14       3.2  T
   5    -50.7383702 -0.539710E-07  0.167E-03    9.15      11.7  T
   6    -50.7383702 -0.346510E-08  0.103E-03    9.15      19.0  T
speedup  1.11
cpu  time for SCC    0.01 s
wall time for SCC    0.01 s
speedup  1.00
cpu  time for grad    0.01 s
wall time for grad    0.01 s
 E :    -50.45049391  G :  0.007377    pred/act E change: -0.256D-03 -0.381D-03
Maxdispl :   0.1985   ||displ|| :   0.4210   Lambda : -0.391D-03
Largest |displ|/coords:  0.1985 (   6)  0.1884 (   3)  0.1550 (   8)
................................................................................
.............................. CYCLE   32 ......................................
................................................................................
   1    -50.7357284 -0.507357E+02  0.170E-01    9.10       0.0  T
   2    -50.7357343 -0.583509E-05  0.126E-01    9.09       1.0  T
   3    -50.7357379 -0.364160E-05  0.171E-02    9.07       1.1  T
   4    -50.7357388 -0.855077E-06  0.546E-03    9.07       3.6  T
   5    -50.7357388 -0.379544E-07  0.166E-03    9.07      11.8  T
   6    -50.7357388 -0.391489E-08  0.961E-04    9.07      20.4  T
speedup  0.91
cpu  time for SCC    0.01 s
wall time for SCC    0.01 s
speedup  0.99
cpu  time for grad    0.01 s
wall time for grad    0.01 s
 E :    -50.45064545  G :  0.013463    pred/act E change: -0.343D-03 -0.152D-03
Maxdispl :   0.0876   ||displ|| :   0.1733   Lambda : -0.385D-03
Largest |displ|/coords:  0.0876 (   3)  0.0649 (   2)  0.0612 (  14)
................................................................................
.............................. CYCLE   33 ......................................
................................................................................
   1    -50.7388042 -0.507388E+02  0.594E-02    9.08       0.0  T
   2    -50.7388058 -0.156374E-05  0.443E-02    9.07       1.0  T
   3    -50.7388066 -0.773255E-06  0.719E-03    9.07       2.7  T
   4    -50.7388068 -0.266304E-06  0.270E-03    9.07       7.3  T
   5    -50.7388068 -0.874584E-08  0.699E-04    9.07      28.0  T
speedup  1.11
cpu  time for SCC    0.00 s
wall time for SCC    0.00 s
speedup  0.95
cpu  time for grad    0.01 s
wall time for grad    0.01 s
 E :    -50.45088229  G :  0.007764    pred/act E change: -0.230D-03 -0.237D-03
Maxdispl :   0.1933   ||displ|| :   0.3214   Lambda : -0.354D-03
Largest |displ|/coords:  0.1933 (   3)  0.1283 (   6)  0.1154 (   2)
................................................................................
.............................. CYCLE   34 ......................................
................................................................................
   1    -50.7396856 -0.507397E+02  0.105E-01    9.09       0.0  T
   2    -50.7396891 -0.356118E-05  0.785E-02    9.09       1.0  T
   3    -50.7396911 -0.198393E-05  0.131E-02    9.08       1.5  T
   4    -50.7396917 -0.548668E-06  0.489E-03    9.08       4.0  T
   5    -50.7396917 -0.263960E-07  0.103E-03    9.08      19.1  T
   6    -50.7396917 -0.102555E-08  0.665E-04    9.08      29.5  T
speedup  1.02
cpu  time for SCC    0.01 s
wall time for SCC    0.01 s
speedup  1.02
cpu  time for grad    0.01 s
wall time for grad    0.01 s
 E :    -50.45112829  G :  0.007776    pred/act E change: -0.198D-03 -0.246D-03
Maxdispl :   0.2919   ||displ|| :   0.4567   Lambda : -0.391D-03
Largest |displ|/coords:  0.2919 (   3)  0.1721 (   2)  0.1705 (   6)
................................................................................
.............................. CYCLE   35 ......................................
................................................................................
   1    -50.7385717 -0.507386E+02  0.143E-01    9.10       0.0  T
   2    -50.7385767 -0.494014E-05  0.106E-01    9.10       1.0  T
   3    -50.7385787 -0.201783E-05  0.159E-02    9.09       1.2  T
   4    -50.7385795 -0.812562E-06  0.620E-03    9.09       3.2  T
   5    -50.7385795 -0.346746E-07  0.110E-03    9.09      17.8  T
   6    -50.7385795 -0.126543E-08  0.737E-04    9.09      26.6  T
speedup  0.78
cpu  time for SCC    0.01 s
wall time for SCC    0.01 s
speedup  0.78
cpu  time for grad    0.01 s
wall time for grad    0.02 s
 E :    -50.45144217  G :  0.009609    pred/act E change: -0.195D-03 -0.314D-03
Maxdispl :   0.3350   ||displ|| :   0.4799   Lambda : -0.457D-03
Largest |displ|/coords:  0.3350 (   3)  0.1824 (   2)  0.1467 (   6)
................................................................................
.............................. CYCLE   36 ......................................
................................................................................
   1    -50.7383239 -0.507383E+02  0.153E-01    9.16       0.0  T
   2    -50.7383308 -0.685625E-05  0.112E-01    9.16       1.0  T
   3    -50.7383340 -0.320264E-05  0.189E-02    9.16       1.0  T
   4    -50.7383348 -0.864830E-06  0.777E-03    9.17       2.5  T
   5    -50.7383349 -0.482455E-07  0.129E-03    9.17      15.2  T
   6    -50.7383349 -0.182382E-08  0.846E-04    9.17      23.2  T
speedup  0.94
cpu  time for SCC    0.01 s
wall time for SCC    0.01 s
speedup  0.82
cpu  time for grad    0.01 s
wall time for grad    0.02 s
 E :    -50.45175668  G :  0.009894    pred/act E change: -0.236D-03 -0.315D-03
Maxdispl :   0.3272   ||displ|| :   0.4780   Lambda : -0.300D-03
Largest |displ|/coords:  0.3272 (   3)  0.2014 (   2)  0.1402 (   6)
................................................................................
.............................. CYCLE   37 ......................................
................................................................................
   1    -50.7361417 -0.507361E+02  0.149E-01    9.19       0.0  T
   2    -50.7361493 -0.759432E-05  0.111E-01    9.19       1.0  T
   3    -50.7361520 -0.269339E-05  0.201E-02    9.19       1.0  T
   4    -50.7361534 -0.135650E-05  0.553E-03    9.19       3.5  T
   5    -50.7361534 -0.371011E-07  0.155E-03    9.19      12.6  T
   6    -50.7361534 -0.311196E-08  0.852E-04    9.19      23.0  T
speedup  0.88
cpu  time for SCC    0.00 s
wall time for SCC    0.01 s
speedup  0.96
cpu  time for grad    0.01 s
wall time for grad    0.01 s
 E :    -50.45196970  G :  0.013601    pred/act E change: -0.281D-03 -0.213D-03
Maxdispl :   0.2991   ||displ|| :   0.4281   Lambda : -0.566D-03
Largest |displ|/coords:  0.2991 (   3)  0.1857 (   2)  0.0846 (   9)
................................................................................
.............................. CYCLE   38 ......................................
................................................................................
   1    -50.7399577 -0.507400E+02  0.147E-01    9.28       0.0  T
   2    -50.7399652 -0.745820E-05  0.109E-01    9.29       1.0  T
   3    -50.7399702 -0.500671E-05  0.200E-02    9.29       1.0  T
   4    -50.7399711 -0.935709E-06  0.718E-03    9.29       2.7  T
   5    -50.7399712 -0.612851E-07  0.163E-03    9.29      12.1  T
   6    -50.7399712 -0.264846E-08  0.102E-03    9.29      19.3  T
speedup  1.09
cpu  time for SCC    0.01 s
wall time for SCC    0.01 s
speedup  1.04
cpu  time for grad    0.01 s
wall time for grad    0.01 s
 E :    -50.45226886  G :  0.011310    pred/act E change: -0.185D-03 -0.299D-03
Maxdispl :   0.3154   ||displ|| :   0.4874   Lambda : -0.526D-03
Largest |displ|/coords:  0.3154 (   3)  0.2237 (   2)  0.1601 (   6)
................................................................................
.............................. CYCLE   39 ......................................
................................................................................
   1    -50.7386742 -0.507387E+02  0.168E-01    9.27       0.0  T
   2    -50.7386833 -0.910949E-05  0.125E-01    9.26       1.0  T
   3    -50.7386873 -0.400483E-05  0.221E-02    9.26       1.0  T
   4    -50.7386888 -0.147526E-05  0.542E-03    9.26       3.6  T
   5    -50.7386888 -0.575021E-07  0.179E-03    9.26      10.9  T
   6    -50.7386888 -0.273739E-08  0.971E-04    9.26      20.2  T
speedup  1.05
cpu  time for SCC    0.01 s
wall time for SCC    0.01 s
speedup  1.03
cpu  time for grad    0.01 s
wall time for grad    0.01 s
 E :    -50.45260113  G :  0.014573    pred/act E change: -0.335D-03 -0.332D-03
Maxdispl :   0.1501   ||displ|| :   0.2964   Lambda : -0.565D-03
Largest |displ|/coords:  0.1501 (   2)  0.1499 (   3)  0.0774 (   9)
................................................................................
.............................. CYCLE   40 ......................................
................................................................................
   1    -50.7384056 -0.507384E+02  0.156E-01    9.24       0.0  T
   2    -50.7384104 -0.481390E-05  0.116E-01    9.24       1.0  T
   3    -50.7384146 -0.418813E-05  0.166E-02    9.24       1.2  T
   4    -50.7384150 -0.432753E-06  0.630E-03    9.24       3.1  T
   5    -50.7384150 -0.374092E-07  0.129E-03    9.24      15.2  T
   6    -50.7384150 -0.160941E-08  0.815E-04    9.24      24.1  T
speedup  0.98
cpu  time for SCC    0.01 s
wall time for SCC    0.01 s
speedup  0.99
cpu  time for grad    0.01 s
wall time for grad    0.01 s
 E :    -50.45294462  G :  0.012850    pred/act E change: -0.325D-03 -0.343D-03
Maxdispl :   0.1975   ||displ|| :   0.3399   Lambda : -0.530D-03
Largest |displ|/coords:  0.1975 (   2)  0.1472 (   3)  0.0859 (   7)
................................................................................
.............................. CYCLE   41 ......................................
................................................................................
   1    -50.7409126 -0.507409E+02  0.155E-01    9.23       0.0  T
   2    -50.7409176 -0.501570E-05  0.117E-01    9.23       1.0  T
   3    -50.7409220 -0.446214E-05  0.136E-02    9.22       1.4  T
   4    -50.7409226 -0.566814E-06  0.430E-03    9.22       4.6  T
   5    -50.7409226 -0.267125E-07  0.155E-03    9.22      12.6  T
   6    -50.7409226 -0.380571E-08  0.831E-04    9.22      23.6  T
speedup  0.98
cpu  time for SCC    0.01 s
wall time for SCC    0.01 s
speedup  0.98
cpu  time for grad    0.01 s
wall time for grad    0.01 s
 E :    -50.45328052  G :  0.013799    pred/act E change: -0.307D-03 -0.336D-03
Maxdispl :   0.2905   ||displ|| :   0.5042   Lambda : -0.691D-03
Largest |displ|/coords:  0.2905 (   2)  0.2539 (   3)  0.1271 (   5)
................................................................................
.............................. CYCLE   42 ......................................
................................................................................
   1    -50.7415182 -0.507415E+02  0.183E-01    9.23       0.0  T
   2    -50.7415263 -0.802853E-05  0.137E-01    9.23       1.0  T
   3    -50.7415325 -0.626195E-05  0.169E-02    9.23       1.2  T
   4    -50.7415336 -0.111451E-05  0.532E-03    9.24       3.7  T
   5    -50.7415337 -0.544310E-07  0.211E-03    9.24       9.3  T
   6    -50.7415337 -0.378307E-08  0.108E-03    9.24      18.1  T
speedup  1.03
cpu  time for SCC    0.01 s
wall time for SCC    0.01 s
speedup  1.01
cpu  time for grad    0.01 s
wall time for grad    0.01 s
 E :    -50.45379213  G :  0.010451    pred/act E change: -0.296D-03 -0.512D-03
Maxdispl :   0.3417   ||displ|| :   0.6558   Lambda : -0.817D-03
Largest |displ|/coords:  0.3417 (   2)  0.3413 (   3)  0.1938 (   7)
................................................................................
.............................. CYCLE   43 ......................................
................................................................................
   1    -50.7414245 -0.507414E+02  0.206E-01    9.31       0.0  T
   2    -50.7414323 -0.778060E-05  0.153E-01    9.31       1.0  T
   3    -50.7414380 -0.574914E-05  0.193E-02    9.31       1.0  T
   4    -50.7414389 -0.935687E-06  0.617E-03    9.31       3.2  T
   5    -50.7414390 -0.543053E-07  0.205E-03    9.31       9.6  T
   6    -50.7414390 -0.435389E-08  0.114E-03    9.31      17.2  T
speedup  1.03
cpu  time for SCC    0.01 s
wall time for SCC    0.01 s
speedup  1.01
cpu  time for grad    0.01 s
wall time for grad    0.01 s
 E :    -50.45426079  G :  0.018289    pred/act E change: -0.433D-03 -0.469D-03
Maxdispl :   0.2541   ||displ|| :   0.3958   Lambda : -0.818D-03
Largest |displ|/coords:  0.2541 (   2)  0.1311 (   3)  0.0977 (  11)
................................................................................
.............................. CYCLE   44 ......................................
................................................................................
   1    -50.7465139 -0.507465E+02  0.156E-01    9.39       0.0  T
   2    -50.7465185 -0.464788E-05  0.116E-01    9.39       1.0  T
   3    -50.7465217 -0.317623E-05  0.173E-02    9.39       1.1  T
   4    -50.7465223 -0.614839E-06  0.489E-03    9.39       4.0  T
   5    -50.7465224 -0.390828E-07  0.153E-03    9.39      12.8  T
   6    -50.7465224 -0.217376E-08  0.919E-04    9.39      21.3  T
speedup  0.81
cpu  time for SCC    0.00 s
wall time for SCC    0.01 s
speedup  0.97
cpu  time for grad    0.01 s
wall time for grad    0.01 s
 E :    -50.45472854  G :  0.016163    pred/act E change: -0.584D-03 -0.468D-03
Maxdispl :   0.4521   ||displ|| :   0.7193   Lambda : -0.126D-02
Largest |displ|/coords:  0.4521 (   2)  0.3653 (   3)  0.2023 (   9)
................................................................................
.............................. CYCLE   45 ......................................
................................................................................
   1    -50.7369490 -0.507369E+02  0.315E-01    9.15       0.0  T
   2    -50.7369769 -0.279403E-04  0.236E-01    9.15       1.0  T
   3    -50.7370008 -0.238218E-04  0.323E-02    9.15       1.0  T
   4    -50.7370043 -0.358003E-05  0.113E-02    9.15       1.7  T
   5    -50.7370045 -0.194016E-06  0.382E-03    9.15       5.1  T
   6    -50.7370045 -0.182724E-07  0.196E-03    9.15      10.0  T
   7    -50.7370046 -0.783120E-08  0.611E-04    9.15      32.1  T
speedup  0.88
cpu  time for SCC    0.01 s
wall time for SCC    0.01 s
speedup  1.00
cpu  time for grad    0.01 s
wall time for grad    0.01 s
 E :    -50.45500292  G :  0.027193    pred/act E change: -0.473D-03 -0.274D-03
Maxdispl :   0.1404   ||displ|| :   0.2752   Lambda : -0.168D-02
Largest |displ|/coords:  0.1404 (  11)  0.0895 (   2)  0.0810 (   7)
................................................................................
.............................. CYCLE   46 ......................................
................................................................................
   1    -50.7467953 -0.507468E+02  0.126E-01    9.22       0.0  T
   2    -50.7468087 -0.134391E-04  0.934E-02    9.22       1.0  T
   3    -50.7468171 -0.843517E-05  0.205E-02    9.22       1.0  T
   4    -50.7468187 -0.154087E-05  0.512E-03    9.22       3.8  T
   5    -50.7468187 -0.294222E-07  0.220E-03    9.22       8.9  T
speedup  1.04
cpu  time for SCC    0.00 s
wall time for SCC    0.00 s
speedup  0.98
cpu  time for grad    0.01 s
wall time for grad    0.01 s
 E :    -50.45564110  G :  0.021975    pred/act E change: -0.958D-03 -0.638D-03
Maxdispl :   0.2473   ||displ|| :   0.5037   Lambda : -0.275D-02
Largest |displ|/coords:  0.2473 (   2)  0.1881 (   3)  0.1554 (   1)
................................................................................
.............................. CYCLE   47 ......................................
................................................................................
   1    -50.7414244 -0.507414E+02  0.354E-01    9.43       0.0  T
   2    -50.7414805 -0.560850E-04  0.267E-01    9.43       1.0  T
   3    -50.7415178 -0.372988E-04  0.446E-02    9.42       1.0  T
   4    -50.7415252 -0.739170E-05  0.127E-02    9.42       1.5  T
   5    -50.7415254 -0.263669E-06  0.425E-03    9.42       4.6  T
   6    -50.7415254 -0.187363E-07  0.229E-03    9.42       8.6  T
speedup  0.89
cpu  time for SCC    0.00 s
wall time for SCC    0.01 s
speedup  0.97
cpu  time for grad    0.01 s
wall time for grad    0.01 s
 E :    -50.45354917  G :  0.066769    pred/act E change: -0.903D-03  0.209D-02
Maxdispl :   0.1710   ||displ|| :   0.4317   Lambda : -0.136D-01
Largest |displ|/coords:  0.1710 (   9)  0.1441 (  11)  0.1393 (   1)
................................................................................
.............................. CYCLE   48 ......................................
................................................................................
   1    -50.7516256 -0.507516E+02  0.525E-01    9.37       0.0  T
   2    -50.7517725 -0.146898E-03  0.400E-01    9.37       1.0  T
   3    -50.7518991 -0.126578E-03  0.650E-02    9.36       1.0  T
   4    -50.7519148 -0.157329E-04  0.249E-02    9.37       1.0  T
   5    -50.7519158 -0.990331E-06  0.812E-03    9.37       2.4  T
   6    -50.7519159 -0.541713E-07  0.384E-03    9.37       5.1  T
   7    -50.7519159 -0.345685E-07  0.117E-03    9.37      16.8  T
speedup  0.92
cpu  time for SCC    0.01 s
wall time for SCC    0.01 s
speedup  0.97
cpu  time for grad    0.01 s
wall time for grad    0.01 s
 E :    -50.45273928  G :  0.080988    pred/act E change: -0.172D-02  0.810D-03
Maxdispl :   0.1145   ||displ|| :   0.3220   Lambda : -0.111D-01
Largest |displ|/coords:  0.1145 (   9)  0.1038 (  29)  0.0969 (   2)
................................................................................
.............................. CYCLE   49 ......................................
................................................................................
   1    -50.7412232 -0.507412E+02  0.374E-01    9.27       0.0  T
   2    -50.7413034 -0.801120E-04  0.284E-01    9.28       1.0  T
   3    -50.7413652 -0.618010E-04  0.498E-02    9.28       1.0  T
   4    -50.7413745 -0.935500E-05  0.167E-02    9.28       1.2  T
   5    -50.7413750 -0.446480E-06  0.521E-03    9.28       3.8  T
   6    -50.7413750 -0.420103E-07  0.286E-03    9.28       6.8  T
speedup  1.03
cpu  time for SCC    0.01 s
wall time for SCC    0.01 s
speedup  1.01
cpu  time for grad    0.01 s
wall time for grad    0.01 s
 E :    -50.45572150  G :  0.038766    pred/act E change: -0.808D-02 -0.298D-02
Maxdispl :   0.0788   ||displ|| :   0.2018   Lambda : -0.224D-02
Largest |displ|/coords:  0.0788 (   7)  0.0682 (   2)  0.0635 (  11)
................................................................................
.............................. CYCLE   50 ......................................
................................................................................
   1    -50.7484156 -0.507484E+02  0.149E-01    9.39       0.0  T
   2    -50.7484315 -0.159622E-04  0.112E-01    9.39       1.0  T
   3    -50.7484423 -0.107431E-04  0.240E-02    9.39       1.0  T
   4    -50.7484440 -0.175518E-05  0.668E-03    9.39       2.9  T
   5    -50.7484441 -0.686630E-07  0.235E-03    9.39       8.4  T
   6    -50.7484441 -0.544693E-08  0.119E-03    9.39      16.4  T
speedup  1.02
cpu  time for SCC    0.01 s
wall time for SCC    0.01 s
speedup  1.00
cpu  time for grad    0.01 s
wall time for grad    0.01 s
 E :    -50.45687272  G :  0.011648    pred/act E change: -0.614D-02 -0.115D-02
Maxdispl :   0.2559   ||displ|| :   0.3466   Lambda : -0.914D-03
Largest |displ|/coords:  0.2559 (   2)  0.0809 (  11)  0.0772 (  19)
................................................................................
.............................. CYCLE   51 ......................................
................................................................................
   1    -50.7480503 -0.507481E+02  0.165E-01    9.33       0.0  T
   2    -50.7480567 -0.634807E-05  0.124E-01    9.33       1.0  T
   3    -50.7480636 -0.693068E-05  0.138E-02    9.33       1.4  T
   4    -50.7480642 -0.558667E-06  0.550E-03    9.34       3.6  T
   5    -50.7480642 -0.417890E-07  0.187E-03    9.34      10.5  T
   6    -50.7480642 -0.414848E-08  0.799E-04    9.34      24.5  T
speedup  1.05
cpu  time for SCC    0.01 s
wall time for SCC    0.01 s
speedup  0.90
cpu  time for grad    0.01 s
wall time for grad    0.01 s
 E :    -50.45731019  G :  0.017637    pred/act E change: -0.116D-02 -0.437D-03
Maxdispl :   0.2750   ||displ|| :   0.4418   Lambda : -0.990D-03
Largest |displ|/coords:  0.2750 (   2)  0.1340 (   3)  0.1285 (   6)
................................................................................
.............................. CYCLE   52 ......................................
................................................................................
   1    -50.7473574 -0.507474E+02  0.185E-01    9.32       0.0  T
   2    -50.7473622 -0.481351E-05  0.139E-01    9.32       1.0  T
   3    -50.7473672 -0.503420E-05  0.116E-02    9.32       1.7  T
   4    -50.7473676 -0.430717E-06  0.390E-03    9.32       5.0  T
   5    -50.7473677 -0.156583E-07  0.185E-03    9.32      10.6  T
   6    -50.7473677 -0.417102E-08  0.682E-04    9.32      28.7  T
speedup  1.15
cpu  time for SCC    0.01 s
wall time for SCC    0.01 s
speedup  1.01
cpu  time for grad    0.01 s
wall time for grad    0.01 s
 E :    -50.45808434  G :  0.013718    pred/act E change: -0.512D-03 -0.774D-03
Maxdispl :   0.3535   ||displ|| :   0.5539   Lambda : -0.114D-02
Largest |displ|/coords:  0.3535 (   2)  0.1455 (  28)  0.1403 (   6)

generating ANC from model Hessian ...
 Shifting diagonal of input Hessian by   4.815782334365653E-003
 Lowest  eigenvalues of input Hessian
   -0.000000   -0.000000   -0.000000   -0.000000    0.000000    0.000000
    0.005000    0.005217    0.005790    0.006116    0.006543    0.006932
    0.007689    0.007826    0.008351    0.009438    0.009966    0.010180
 Highest eigenvalues
    1.405384    1.412984    1.424642    2.642298    3.490837    3.674481
 
cpu  time for ANC gen    0.02 s
wall time for ANC gen    0.02 s
................................................................................
.............................. CYCLE   53 ......................................
................................................................................
   1    -50.7501108 -0.507501E+02  0.191E-01    9.41       0.0  T
   2    -50.7501181 -0.728608E-05  0.143E-01    9.41       1.0  T
   3    -50.7501234 -0.527429E-05  0.160E-02    9.41       1.2  T
   4    -50.7501244 -0.103071E-05  0.625E-03    9.41       3.1  T
   5    -50.7501245 -0.458888E-07  0.185E-03    9.41      10.6  T
   6    -50.7501245 -0.416885E-08  0.102E-03    9.41      19.2  T
   7    -50.7501245 -0.146246E-08  0.291E-04    9.41      67.5  T
   8    -50.7501245 -0.253799E-09  0.712E-05    9.41     275.6  T
speedup  1.08
cpu  time for SCC    0.01 s
wall time for SCC    0.01 s
speedup  1.00
cpu  time for grad    0.02 s
wall time for grad    0.02 s
 E :    -50.45875591  G :  0.021163    pred/act E change:  0.000D+00 -0.672D-03
Maxdispl :   0.1859   ||displ|| :   0.3342   Lambda : -0.163D-02
Largest |displ|/coords:  0.1859 (   8)  0.1139 (   6)  0.1025 (  14)
................................................................................
.............................. CYCLE   54 ......................................
................................................................................
   1    -50.7507715 -0.507508E+02  0.242E-01    9.37       0.0  T
   2    -50.7507820 -0.105105E-04  0.183E-01    9.37       1.0  T
   3    -50.7507969 -0.149163E-04  0.167E-02    9.37       1.2  T
   4    -50.7507974 -0.532985E-06  0.793E-03    9.37       2.5  T
   5    -50.7507975 -0.897072E-07  0.269E-03    9.37       7.3  T
   6    -50.7507975 -0.974070E-08  0.136E-03    9.37      14.4  T
speedup  0.89
cpu  time for SCC    0.00 s
wall time for SCC    0.01 s
speedup  0.95
cpu  time for grad    0.01 s
wall time for grad    0.01 s
 E :    -50.45959013  G :  0.017618    pred/act E change:  0.000D+00 -0.834D-03
Maxdispl :   0.1520   ||displ|| :   0.2559   Lambda : -0.982D-03
Largest |displ|/coords:  0.1520 (   2)  0.0864 (  10)  0.0774 (   5)
................................................................................
.............................. CYCLE   55 ......................................
................................................................................
   1    -50.7532049 -0.507532E+02  0.139E-01    9.33       0.0  T
   2    -50.7532099 -0.504626E-05  0.104E-01    9.33       1.0  T
   3    -50.7532134 -0.347693E-05  0.138E-02    9.34       1.4  T
   4    -50.7532141 -0.676105E-06  0.329E-03    9.34       6.0  T
   5    -50.7532141 -0.154596E-07  0.155E-03    9.34      12.6  T
   6    -50.7532141 -0.215959E-08  0.710E-04    9.34      27.6  T
speedup  0.98
cpu  time for SCC    0.01 s
wall time for SCC    0.01 s
speedup  1.03
cpu  time for grad    0.01 s
wall time for grad    0.01 s
 E :    -50.46019102  G :  0.006884    pred/act E change: -0.906D-03 -0.601D-03
Maxdispl :   0.2233   ||displ|| :   0.3997   Lambda : -0.761D-03
Largest |displ|/coords:  0.2233 (   2)  0.1409 (  11)  0.1317 (   5)
................................................................................
.............................. CYCLE   56 ......................................
................................................................................
   1    -50.7512534 -0.507513E+02  0.245E-01    9.28       0.0  T
   2    -50.7512601 -0.672717E-05  0.184E-01    9.28       1.0  T
   3    -50.7512670 -0.691586E-05  0.154E-02    9.28       1.3  T
   4    -50.7512676 -0.595735E-06  0.576E-03    9.28       3.4  T
   5    -50.7512677 -0.278700E-07  0.198E-03    9.28       9.9  T
   6    -50.7512677 -0.479432E-08  0.103E-03    9.28      19.1  T
speedup  1.11
cpu  time for SCC    0.01 s
wall time for SCC    0.01 s
speedup  1.02
cpu  time for grad    0.01 s
wall time for grad    0.01 s
 E :    -50.46066943  G :  0.012278    pred/act E change: -0.523D-03 -0.478D-03
Maxdispl :   0.2567   ||displ|| :   0.3688   Lambda : -0.522D-03
Largest |displ|/coords:  0.2567 (   2)  0.1482 (   5)  0.1375 (   8)
................................................................................
.............................. CYCLE   57 ......................................
................................................................................
   1    -50.7507700 -0.507508E+02  0.152E-01    9.25       0.0  T
   2    -50.7507751 -0.514467E-05  0.115E-01    9.25       1.0  T
   3    -50.7507800 -0.491385E-05  0.138E-02    9.25       1.4  T
   4    -50.7507806 -0.574267E-06  0.540E-03    9.25       3.6  T
   5    -50.7507806 -0.336844E-07  0.158E-03    9.25      12.4  T
   6    -50.7507806 -0.357240E-08  0.938E-04    9.25      20.9  T
speedup  0.97
cpu  time for SCC    0.01 s
wall time for SCC    0.01 s
speedup  1.02
cpu  time for grad    0.01 s
wall time for grad    0.01 s
 E :    -50.46104240  G :  0.011663    pred/act E change: -0.441D-03 -0.373D-03
Maxdispl :   0.2745   ||displ|| :   0.4322   Lambda : -0.645D-03
Largest |displ|/coords:  0.2745 (   2)  0.1898 (   5)  0.1673 (   4)
................................................................................
.............................. CYCLE   58 ......................................
................................................................................
   1    -50.7539828 -0.507540E+02  0.143E-01    9.25       0.0  T
   2    -50.7539918 -0.900723E-05  0.106E-01    9.25       1.0  T
   3    -50.7539975 -0.566876E-05  0.189E-02    9.25       1.0  T
   4    -50.7539987 -0.116048E-05  0.667E-03    9.25       2.9  T
   5    -50.7539988 -0.968564E-07  0.204E-03    9.25       9.6  T
   6    -50.7539988 -0.420083E-08  0.121E-03    9.25      16.3  T
speedup  1.02
cpu  time for SCC    0.01 s
wall time for SCC    0.01 s
speedup  1.06
cpu  time for grad    0.01 s
wall time for grad    0.01 s
 E :    -50.46121211  G :  0.017729    pred/act E change: -0.297D-03 -0.170D-03
Maxdispl :   0.2635   ||displ|| :   0.3784   Lambda : -0.776D-03
Largest |displ|/coords:  0.2635 (   2)  0.1383 (   5)  0.1268 (   8)
................................................................................
.............................. CYCLE   59 ......................................
................................................................................
   1    -50.7514180 -0.507514E+02  0.201E-01    9.25       0.0  T
   2    -50.7514309 -0.129347E-04  0.152E-01    9.25       1.0  T
   3    -50.7514393 -0.836792E-05  0.220E-02    9.25       1.0  T
   4    -50.7514412 -0.189973E-05  0.700E-03    9.25       2.8  T
   5    -50.7514413 -0.113450E-06  0.202E-03    9.25       9.7  T
   6    -50.7514413 -0.139355E-08  0.117E-03    9.25      16.8  T
speedup  1.07
cpu  time for SCC    0.01 s
wall time for SCC    0.01 s
speedup  1.02
cpu  time for grad    0.01 s
wall time for grad    0.01 s
 E :    -50.46157563  G :  0.012452    pred/act E change: -0.383D-03 -0.364D-03
Maxdispl :   0.1092   ||displ|| :   0.1453   Lambda : -0.228D-03
Largest |displ|/coords:  0.1092 (   2)  0.0532 (   4)  0.0277 (   5)
................................................................................
.............................. CYCLE   60 ......................................
................................................................................
   1    -50.7517899 -0.507518E+02  0.662E-02    9.27       0.0  T
   2    -50.7517913 -0.140137E-05  0.500E-02    9.27       1.0  T
   3    -50.7517923 -0.101401E-05  0.659E-03    9.27       3.0  T
   4    -50.7517925 -0.199376E-06  0.244E-03    9.27       8.0  T
   5    -50.7517926 -0.121724E-07  0.756E-04    9.27      25.9  T
speedup  1.00
cpu  time for SCC    0.01 s
wall time for SCC    0.01 s
speedup  0.98
cpu  time for grad    0.01 s
wall time for grad    0.01 s
 E :    -50.46174531  G :  0.007082    pred/act E change: -0.444D-03 -0.170D-03
Maxdispl :   0.2898   ||displ|| :   0.3928   Lambda : -0.319D-03
Largest |displ|/coords:  0.2898 (   2)  0.1446 (   4)  0.1187 (   5)
................................................................................
.............................. CYCLE   61 ......................................
................................................................................
   1    -50.7514405 -0.507514E+02  0.158E-01    9.30       0.0  T
   2    -50.7514448 -0.429338E-05  0.119E-01    9.30       1.0  T
   3    -50.7514474 -0.260631E-05  0.123E-02    9.30       1.6  T
   4    -50.7514482 -0.753100E-06  0.445E-03    9.30       4.4  T
   5    -50.7514482 -0.248516E-07  0.131E-03    9.30      15.0  T
   6    -50.7514482 -0.153806E-08  0.691E-04    9.30      28.4  T
speedup  0.91
cpu  time for SCC    0.00 s
wall time for SCC    0.01 s
speedup  0.97
cpu  time for grad    0.01 s
wall time for grad    0.01 s
 E :    -50.46195763  G :  0.007185    pred/act E change: -0.116D-03 -0.212D-03
Maxdispl :   0.2379   ||displ|| :   0.3240   Lambda : -0.225D-03
Largest |displ|/coords:  0.2379 (   2)  0.0861 (   7)  0.0859 (   5)
................................................................................
.............................. CYCLE   62 ......................................
................................................................................
   1    -50.7529202 -0.507529E+02  0.121E-01    9.32       0.0  T
   2    -50.7529249 -0.473166E-05  0.913E-02    9.32       1.0  T
   3    -50.7529273 -0.242360E-05  0.128E-02    9.32       1.5  T
   4    -50.7529282 -0.836999E-06  0.450E-03    9.32       4.4  T
   5    -50.7529282 -0.343027E-07  0.124E-03    9.32      15.8  T
   6    -50.7529282 -0.164891E-08  0.686E-04    9.32      28.6  T
speedup  1.03
cpu  time for SCC    0.01 s
wall time for SCC    0.01 s
speedup  1.02
cpu  time for grad    0.01 s
wall time for grad    0.01 s
 E :    -50.46203550  G :  0.007697    pred/act E change: -0.184D-03 -0.779D-04
Maxdispl :   0.2535   ||displ|| :   0.3602   Lambda : -0.250D-03
Largest |displ|/coords:  0.2535 (   2)  0.1348 (   4)  0.1199 (   5)
................................................................................
.............................. CYCLE   63 ......................................
................................................................................
   1    -50.7493489 -0.507493E+02  0.184E-01    9.30       0.0  T
   2    -50.7493581 -0.916750E-05  0.138E-01    9.30       1.0  T
   3    -50.7493647 -0.657788E-05  0.163E-02    9.30       1.2  T
   4    -50.7493661 -0.144019E-05  0.567E-03    9.30       3.5  T
   5    -50.7493662 -0.544314E-07  0.210E-03    9.30       9.3  T
   6    -50.7493662 -0.406349E-08  0.113E-03    9.30      17.4  T
speedup  1.07
cpu  time for SCC    0.01 s
wall time for SCC    0.01 s
speedup  1.04
cpu  time for grad    0.01 s
wall time for grad    0.01 s
 E :    -50.46208273  G :  0.013237    pred/act E change: -0.124D-03 -0.472D-04
Maxdispl :   0.0995   ||displ|| :   0.1527   Lambda : -0.192D-03
Largest |displ|/coords:  0.0995 (   2)  0.0660 (   4)  0.0477 (   5)
................................................................................
.............................. CYCLE   64 ......................................
................................................................................
   1    -50.7521690 -0.507522E+02  0.750E-02    9.30       0.0  T
   2    -50.7521722 -0.312924E-05  0.563E-02    9.30       1.0  T
   3    -50.7521743 -0.209642E-05  0.108E-02    9.30       1.8  T
   4    -50.7521747 -0.424789E-06  0.351E-03    9.30       5.6  T
   5    -50.7521747 -0.310365E-07  0.119E-03    9.30      16.5  T
   6    -50.7521747 -0.131361E-08  0.625E-04    9.30      31.4  T
speedup  0.93
cpu  time for SCC    0.00 s
wall time for SCC    0.01 s
speedup  0.98
cpu  time for grad    0.01 s
wall time for grad    0.01 s
 E :    -50.46216802  G :  0.004034    pred/act E change: -0.141D-03 -0.853D-04
Maxdispl :   0.0287   ||displ|| :   0.0687   Lambda : -0.657D-04
Largest |displ|/coords:  0.0287 (   3)  0.0248 (  13)  0.0229 (   8)
................................................................................
.............................. CYCLE   65 ......................................
................................................................................
   1    -50.7518449 -0.507518E+02  0.443E-02    9.30       0.0  T
[...]
wall time for grad    0.01 s
 E :    -50.46254257  G :  0.000368    pred/act E change: -0.280D-05 -0.681D-06
Maxdispl :   0.0180   ||displ|| :   0.0250   Lambda : -0.957D-06
Largest |displ|/coords:  0.0180 (   1)  0.0091 (   3)  0.0067 (   7)
................................................................................
.............................. CYCLE   88 ......................................
................................................................................
   1    -50.7518578 -0.507519E+02  0.133E-02    9.30       0.0  T
   2    -50.7518578 -0.218962E-07  0.100E-02    9.30       2.0  T
   3    -50.7518578 -0.277892E-07  0.795E-04    9.30      24.7  T
   4    -50.7518578 -0.105724E-08  0.245E-04    9.30      80.1  T
speedup  1.03
cpu  time for SCC    0.00 s
wall time for SCC    0.00 s
speedup  1.03
cpu  time for grad    0.01 s
wall time for grad    0.01 s
 E :    -50.46254317  G :  0.000263    pred/act E change: -0.493D-06 -0.605D-06
Maxdispl :   0.0101   ||displ|| :   0.0139   Lambda : -0.539D-06
Largest |displ|/coords:  0.0101 (   1)  0.0036 (   7)  0.0036 (   2)
................................................................................
.............................. CYCLE   89 ......................................
................................................................................
   1    -50.7518496 -0.507518E+02  0.637E-03    9.30       0.0  T
   2    -50.7518496 -0.658375E-08  0.479E-03    9.31       4.1  T
   3    -50.7518496 -0.647984E-08  0.541E-04    9.31      36.2  T
   4    -50.7518496 -0.624247E-09  0.213E-04    9.30      92.2  T
speedup  1.05
cpu  time for SCC    0.00 s
wall time for SCC    0.00 s
speedup  1.05
cpu  time for grad    0.01 s
wall time for grad    0.01 s
 E :    -50.46254352  G :  0.000228    pred/act E change: -0.479D-06 -0.349D-06
Maxdispl :   0.0060   ||displ|| :   0.0116   Lambda : -0.375D-06
Largest |displ|/coords:  0.0060 (   1)  0.0054 (   7)  0.0037 (   3)
................................................................................
.............................. CYCLE   90 ......................................
................................................................................
   1    -50.7518261 -0.507518E+02  0.675E-03    9.31       0.0  T
   2    -50.7518261 -0.829350E-08  0.507E-03    9.31       3.9  T
   3    -50.7518261 -0.732644E-08  0.582E-04    9.31      33.7  T
   4    -50.7518261 -0.102756E-08  0.230E-04    9.31      85.4  T
speedup  1.00
cpu  time for SCC    0.00 s
wall time for SCC    0.00 s
speedup  0.96
cpu  time for grad    0.01 s
wall time for grad    0.01 s
 E :    -50.46254380  G :  0.000206    pred/act E change: -0.270D-06 -0.280D-06
Maxdispl :   0.0102   ||displ|| :   0.0170   Lambda : -0.447D-06
Largest |displ|/coords:  0.0102 (   1)  0.0079 (   7)  0.0043 (  19)
................................................................................
.............................. CYCLE   91 ......................................
................................................................................
   1    -50.7517967 -0.507518E+02  0.101E-02    9.31       0.0  T
   2    -50.7517967 -0.185605E-07  0.762E-03    9.31       2.6  T
   3    -50.7517967 -0.172743E-07  0.874E-04    9.31      22.4  T
   4    -50.7517967 -0.221514E-08  0.341E-04    9.31      57.5  T
speedup  1.03
cpu  time for SCC    0.00 s
wall time for SCC    0.00 s
speedup  1.05
cpu  time for grad    0.01 s
wall time for grad    0.01 s
 E :    -50.46254412  G :  0.000227    pred/act E change: -0.187D-06 -0.319D-06
Maxdispl :   0.0081   ||displ|| :   0.0149   Lambda : -0.332D-06
Largest |displ|/coords:  0.0081 (   7)  0.0073 (   1)  0.0042 (  13)
................................................................................
.............................. CYCLE   92 ......................................
................................................................................
   1    -50.7518028 -0.507518E+02  0.963E-03    9.31       0.0  T
   2    -50.7518028 -0.149502E-07  0.724E-03    9.31       2.7  T
   3    -50.7518028 -0.155499E-07  0.812E-04    9.31      24.2  T
   4    -50.7518028 -0.154356E-08  0.300E-04    9.31      65.3  T
speedup  1.03
cpu  time for SCC    0.00 s
wall time for SCC    0.00 s
speedup  0.97
cpu  time for grad    0.01 s
wall time for grad    0.01 s
 E :    -50.46254438  G :  0.000243    pred/act E change: -0.224D-06 -0.259D-06
Maxdispl :   0.0114   ||displ|| :   0.0210   Lambda : -0.389D-06
Largest |displ|/coords:  0.0114 (   7)  0.0112 (   1)  0.0056 (  13)
................................................................................
.............................. CYCLE   93 ......................................
................................................................................
   1    -50.7518287 -0.507518E+02  0.134E-02    9.31       0.0  T
   2    -50.7518287 -0.287612E-07  0.101E-02    9.31       1.9  T
   3    -50.7518287 -0.318441E-07  0.113E-03    9.31      17.3  T
   4    -50.7518287 -0.262599E-08  0.412E-04    9.31      47.6  T
   5    -50.7518287 -0.242025E-09  0.113E-04    9.31     173.1  T
speedup  1.04
cpu  time for SCC    0.00 s
wall time for SCC    0.00 s
speedup  1.05
cpu  time for grad    0.01 s
wall time for grad    0.01 s
 E :    -50.46254467  G :  0.000236    pred/act E change: -0.166D-06 -0.290D-06
Maxdispl :   0.0139   ||displ|| :   0.0253   Lambda : -0.406D-06
Largest |displ|/coords:  0.0139 (   7)  0.0129 (   1)  0.0067 (  19)
................................................................................
.............................. CYCLE   94 ......................................
................................................................................
   1    -50.7518581 -0.507519E+02  0.162E-02    9.30       0.0  T
   2    -50.7518582 -0.430639E-07  0.122E-02    9.30       1.6  T
   3    -50.7518582 -0.495950E-07  0.137E-03    9.31      14.3  T
   4    -50.7518582 -0.368139E-08  0.482E-04    9.31      40.7  T
   5    -50.7518582 -0.365262E-09  0.140E-04    9.31     139.7  T
speedup  1.06
cpu  time for SCC    0.00 s
wall time for SCC    0.00 s
speedup  0.98
cpu  time for grad    0.01 s
wall time for grad    0.01 s
 E :    -50.46254494  G :  0.000223    pred/act E change: -0.195D-06 -0.265D-06
Maxdispl :   0.0084   ||displ|| :   0.0146   Lambda : -0.289D-06
Largest |displ|/coords:  0.0084 (   7)  0.0045 (   1)  0.0043 (  19)
................................................................................
.............................. CYCLE   95 ......................................
................................................................................
   1    -50.7519017 -0.507519E+02  0.927E-03    9.30       0.0  T
   2    -50.7519017 -0.152989E-07  0.697E-03    9.30       2.8  T
   3    -50.7519017 -0.180179E-07  0.822E-04    9.30      23.9  T
   4    -50.7519017 -0.125149E-08  0.285E-04    9.30      68.8  T
speedup  0.95
cpu  time for SCC    0.00 s
wall time for SCC    0.00 s
speedup  1.02
cpu  time for grad    0.01 s
wall time for grad    0.01 s
 E :    -50.46254514  G :  0.000199    pred/act E change: -0.203D-06 -0.208D-06
Maxdispl :   0.0041   ||displ|| :   0.0089   Lambda : -0.232D-06
Largest |displ|/coords:  0.0041 (   7)  0.0029 (   8)  0.0028 (   2)
................................................................................
.............................. CYCLE   96 ......................................
................................................................................
   1    -50.7519218 -0.507519E+02  0.544E-03    9.31       0.0  T
   2    -50.7519218 -0.592564E-08  0.408E-03    9.31       4.8  T
   3    -50.7519218 -0.674331E-08  0.510E-04    9.31      38.5  T
   4    -50.7519218 -0.509459E-09  0.175E-04    9.31     111.9  T
speedup  0.98
cpu  time for SCC    0.00 s
wall time for SCC    0.00 s
speedup  1.03
cpu  time for grad    0.01 s
wall time for grad    0.01 s
 E :    -50.46254531  G :  0.000170    pred/act E change: -0.145D-06 -0.165D-06
Maxdispl :   0.0054   ||displ|| :   0.0094   Lambda : -0.127D-06
Largest |displ|/coords:  0.0054 (   7)  0.0033 (  19)  0.0029 (   5)
................................................................................
.............................. CYCLE   97 ......................................
................................................................................
   1    -50.7519095 -0.507519E+02  0.599E-03    9.31       0.0  T
   2    -50.7519095 -0.668987E-08  0.450E-03    9.31       4.4  T
   3    -50.7519095 -0.792335E-08  0.549E-04    9.31      35.7  T
   4    -50.7519095 -0.531394E-09  0.181E-04    9.31     108.1  T
speedup  0.98
cpu  time for SCC    0.00 s
wall time for SCC    0.00 s
speedup  1.03
cpu  time for grad    0.01 s
wall time for grad    0.01 s
 E :    -50.46254540  G :  0.000142    pred/act E change: -0.116D-06 -0.937D-07
Maxdispl :   0.0038   ||displ|| :   0.0080   Lambda : -0.976D-07
Largest |displ|/coords:  0.0038 (   7)  0.0032 (   5)  0.0029 (   2)

   *** GEOMETRY OPTIMIZATION CONVERGED AFTER 97 ITERATIONS ***

------------------------------------------------------------------------
 total energy gain (kcal):     -0.0127
------------------------------------------------------------------------
================
 final structure:
================
$coord
        1.26883666624210        4.39247669552467        2.19232230253565      S 
        1.13945578195945        4.92083091052777       -0.51805631903381      O 
       -1.04187259620012        3.27321515815039        3.13038224312954      O 
        3.52958067863556        2.98745995519399        2.84949191926381      O 
        1.52899173371902        7.05944754513308        3.53700133946476      O 
        3.20301564342212        7.51485470313534        3.06461090828739      H 
        3.18654071327636        0.08492400809351        2.18924440359718      H 
        3.04888251866322       -1.74441427374393        1.78419594766083      O 
        4.36802426549708       -2.54602655707664        2.73317621971298      H 
       -1.78064669016137       -3.77609427516434        1.88980765957817      O 
       -0.10091465255358       -3.06773370527856        2.12403815705297      H 
       -2.87925152666191       -2.33368427315397        1.61891692550693      H 
       -1.28922913583192       -5.93543089074832       -2.59476888051663      O 
       -1.66071331280395       -5.26606710379201       -0.88628007643514      H 
       -0.93686545990490       -7.69706175310607       -2.38037568295989      H 
       -4.25994522208725        0.66552270329585        0.59532423253589      O 
       -3.06534865271063        1.68685927644561        1.63404141490730      H 
       -5.92124733384311        1.14814454437640        1.12867821924420      H 
        2.22658738281118       -2.37877080429536       -3.26007041748934      O 
        2.81817857209818       -2.22869010938128       -1.51846376547910      H 
        1.06949737187631       -3.83380656651830       -3.26594257722672      H 
        0.39986394009647       -0.14060052186359       -3.39802168677782      H 
       -0.91729370281988        1.41283255862055       -3.25164596176933      N 
       -1.46182514467122        2.01468631496716       -4.98716371025397      H 
       -0.01285932051641        2.90740023765711       -2.23549228966110      H 
       -2.45944253651475        0.87972622294842       -2.17495056269880      H 
$end
 
 Bond Distances (Angstroems)
 ---------------------------
S1-O2=1.4629         S1-O3=1.4465         S1-O4=1.4508         S1-O5=1.5865         O2-S1=1.4629         O3-S1=1.4465         
O4-S1=1.4508         O5-S1=1.5865         O5-H6=0.9515         H6-O5=0.9515         H7-O8=0.9942         O8-H7=0.9942         
O8-H9=0.9589         H9-O8=0.9589         O10-H11=0.9726       O10-H12=0.9701       H11-O10=0.9726       H12-O10=0.9701       
O13-H14=0.9907       O13-H15=0.9574       H14-O13=0.9907       H15-O13=0.9574       O16-H17=0.9969       O16-H18=0.9580       
H17-O16=0.9969       H18-O16=0.9580       O19-H20=0.9766       O19-H21=0.9838       H20-O19=0.9766       H21-O19=0.9838       
H22-N23=1.0805       N23-H22=1.0805       N23-H24=1.0139       N23-H25=1.0694       N23-H26=1.0345       H24-N23=1.0139       
H25-N23=1.0694       H26-N23=1.0345       
 N  H  Rav=1.0496 sigma=0.0267  Rmin=1.0139  Rmax=1.0805     4
 O  H  Rav=0.9737 sigma=0.0154  Rmin=0.9515  Rmax=0.9969    11
 S  O  Rav=1.4867 sigma=0.0580  Rmin=1.4465  Rmax=1.5865     4
 
 selected bond angles (degree)
 --------------------
O3-S1-O2=112.03                O4-S1-O2=111.81                O4-S1-O3=113.89                O5-S1-O2=105.89                
O5-S1-O3=106.48                O5-S1-O4=106.07                H6-O5-S1=100.85                H9-O8-H7=105.34                
H12-O10-H11=105.26             
 
 selected dihedral angles (degree)
 ---------------------------------
H6-O5-S1-O2=289.41            H6-O5-S1-O3=170.01            H6-O5-S1-O4= 48.36            
 
 CMA Distance (Angstroems)
 ---------------------------
R(CMA):  3.8887

========================================================================
 FINAL SINGLEPOINT CALCULATION ON OPTIMIZED GEOMETRY
========================================================================

 Ncao       : 65
 Nao        : 64
 Nshell     : 38
 Nel        : 80
 T(el)      :   300.0
 intcut     :    25.0
 scfconv/Eh :  0.100E-05
   qconv/e  :  0.100E-03
 intneglect :  0.100E-07
 broydamp   :      0.250
 iter      E             dE          RMSdq      gap      omega  full diag
   1    -50.7519095 -0.507519E+02  0.625E-05    9.31       0.0  T
   2    -50.7519095 -0.275691E-11  0.428E-05    9.31     458.6  T
   3    -50.7519095 -0.184741E-11  0.114E-05    9.31    1724.1  T
speedup  0.71
cpu  time for SCC    0.00 s
wall time for SCC    0.00 s

   *** convergence criteria satisfied after 3 iterations ***

          eigenvalues
 #    :          28         29         30         31         32         33         34         35
 occ. :        2.000      2.000      2.000      2.000      2.000      2.000      2.000      2.000
 eps  :       -13.356    -13.202    -12.369    -12.262    -12.185    -12.116    -12.060    -11.965
 #    :          36         37         38         39         40         41         42         43
 occ. :        2.000      2.000      2.000      2.000      2.000      0.000      0.000      0.000
 eps  :       -11.846    -11.819    -11.757    -11.624    -11.539     -2.234     -0.754     -0.313
 #    :          44         45         46         47         48         49         50         51
 occ. :        0.000      0.000      0.000      0.000      0.000      0.000      0.000      0.000
 eps  :         0.850      0.971      1.537      2.149      2.651      4.098      4.143      5.212


   #   Z            q   n(s)   n(p)   n(d)      C6AA      α(0)
   1  16 S      1.636  1.584  1.811  0.968    90.228    15.987
   2   8 O     -0.733  1.765  4.968  0.000    29.603     7.295
   3   8 O     -0.710  1.757  4.953  0.000    28.988     7.219
   4   8 O     -0.731  1.772  4.960  0.000    29.577     7.292
   5   8 O     -0.578  1.749  4.829  0.000    24.639     6.701
   6   1 H      0.342  0.658  0.000  0.000     0.597     1.208
   7   1 H      0.334  0.666  0.000  0.000     0.627     1.243
   8   8 O     -0.631  1.745  4.886  0.000    25.934     6.873
   9   1 H      0.291  0.709  0.000  0.000     0.748     1.358
  10   8 O     -0.627  1.757  4.870  0.000    25.833     6.860
  11   1 H      0.317  0.683  0.000  0.000     0.672     1.288
  12   1 H      0.313  0.687  0.000  0.000     0.682     1.297
  13   8 O     -0.622  1.753  4.869  0.000    25.728     6.846
  14   1 H      0.332  0.668  0.000  0.000     0.632     1.249
  15   1 H      0.277  0.723  0.000  0.000     0.794     1.400
  16   8 O     -0.628  1.743  4.885  0.000    25.877     6.866
  17   1 H      0.344  0.656  0.000  0.000     0.603     1.220
  18   1 H      0.290  0.710  0.000  0.000     0.753     1.363
  19   8 O     -0.618  1.761  4.858  0.000    25.625     6.832
  20   1 H      0.325  0.675  0.000  0.000     0.651     1.267
  21   1 H      0.333  0.667  0.000  0.000     0.631     1.248
  22   1 H      0.302  0.698  0.000  0.000     0.707     1.317
  23   7 N     -0.354  1.280  4.074  0.000    29.099     8.012
  24   1 H      0.226  0.774  0.000  0.000     0.983     1.553
  25   1 H      0.294  0.706  0.000  0.000     0.729     1.338
  26   1 H      0.275  0.725  0.000  0.000     0.791     1.394

 Mol. C6AA /au·bohr⁶  :       5440.214182
 Mol. C8AA /au·bohr⁸  :     117828.765545
 Mol. α(0) /au        :        106.525539

 
 Wiberg/Mayer (AO) data. WBOs > 0.1 written file <wbo>
 largest (>0.05) Wiberg bond orders for each atom
           total WBO             WBO to atom ...
     1  S   4.901    O    3 1.355    O    4 1.320    O    2 1.282    O    5 0.901
     2  O   1.747    S    1 1.282    H   25 0.123    O    3 0.112    O    4 0.109    O    5 0.070
     3  O   1.760    S    1 1.355    O    2 0.112    O    4 0.110    H   17 0.086    O    5 0.061
     4  O   1.740    S    1 1.320    O    3 0.110    O    2 0.109    H    7 0.087    O    5 0.075
     5  O   1.982    S    1 0.901    H    6 0.866    O    4 0.075    O    2 0.070    O    3 0.061
     6  H   0.882    O    5 0.866
     7  H   0.888    O    8 0.794    O    4 0.087
     8  O   1.871    H    9 0.909    H    7 0.794
     9  H   0.915    O    8 0.909
    10  O   1.881    H   12 0.862    H   11 0.858    H   14 0.080
    11  H   0.899    O   10 0.858
    12  H   0.902    O   10 0.862
    13  O   1.859    H   15 0.919    H   14 0.809    H   21 0.063
    14  H   0.890    O   13 0.809    O   10 0.080
    15  H   0.923    O   13 0.919
    16  O   1.879    H   18 0.907    H   17 0.791    H   26 0.055
    17  H   0.882    O   16 0.791    O    3 0.086
    18  H   0.916    O   16 0.907
    19  O   1.954    H   20 0.845    H   21 0.824    H   22 0.154    N   23 0.071
    20  H   0.894    O   19 0.845
    21  H   0.889    O   19 0.824    O   13 0.063
    22  H   0.909    N   23 0.752    O   19 0.154
    23  N   3.514    H   24 0.946    H   26 0.865    H   25 0.782    H   22 0.752    O   19 0.071
    24  H   0.949    N   23 0.946
    25  H   0.913    N   23 0.782    O    2 0.123
    26  H   0.924    N   23 0.865    O   16 0.055
 MOs/occ written to file <molden.input>
 
molecular dipole:
                 x           y           z       tot (Debye)
 q only:       -0.564      -0.598      -1.584
   full:       -0.326      -0.053      -0.816       2.238
molecular quadrupole (traceless):
                xx          xy          yy          xz          yz          zz
 q only:        4.696      -4.298      -2.686       5.543      -8.345      -2.010
  q+dip:        5.510      -4.267       0.370       7.895      -7.097      -5.880
   full:        5.479      -4.040       0.842       8.193      -6.721      -6.320

SCC energy    :     -50.7519095
rep           :       0.2890427
ES            :       0.2659752
AES           :      -0.0708174
AXC           :      -0.0084519
disp          :      -0.0180020
XB            :       0.0000000
fix           :       0.0000000
total E       :     -50.4625454
atomizationE  :       4.9928496     3133.06
(atE without considering molecular charge,
 total energy contains solvation terms)
H-L gap (eV)  :          9.3055
optimized geometry written to: xtbopt.xyz


------------------------------------------------------------------------
 * finished run on 2019/09/16 at 11:34:51.556     
------------------------------------------------------------------------
 total:
 * wall-time:     0 d,  0 h,  0 min,  2.445 sec
 *  cpu-time:     0 d,  0 h,  0 min,  2.296 sec
 * ratio c/w:     0.939 speedup
 SCF:
 * wall-time:     0 d,  0 h,  0 min,  0.173 sec
 *  cpu-time:     0 d,  0 h,  0 min,  0.170 sec
 * ratio c/w:     0.984 speedup
 ANC optimizer:
 * wall-time:     0 d,  0 h,  0 min,  2.244 sec
 *  cpu-time:     0 d,  0 h,  0 min,  2.100 sec
 * ratio c/w:     0.936 speedup

