      -----------------------------------------------------------      
     |                   =====================                   |     
     |                           x T B                           |     
     |                   =====================                   |     
     |                         S. Grimme                         |     
     |          Mulliken Center for Theoretical Chemistry        |     
     |                    University of Bonn                     |     
     |                 Version 6.0.1 (SAW181210)                 |     
      -----------------------------------------------------------      

   This program is distributed in the hope that it will be useful,
   but WITHOUT ANY WARRANTY; without even the implied warranty of
   MERCHANTABILITY or FITNESS FOR A PARTICULAR PURPOSE.
   
   FOR NON-COMMERCIAL, ACADEMIA USE ONLY.
   
   Cite this work as:
   S. Grimme, C. Bannwarth, P. Shushkov, J. Comput. Theory Chem., 2017,
   13, 1989-2009.
   C. Bannwarth, S. Ehlert and S. Grimme., ChemRxiv, 2018, preprint.
   http://doi.org/10.26434/chemrxiv.7246238.v1
   
   for sTDA-xTB:
   S. Grimme and C. Bannwarth, J. Chem. Phys., 2016, 145, 054103.
   
   in the mass-spec context:
   V. Asgeirsson, C. Bauer and S. Grimme, Chem. Sci., 2017, 8, 4879.
   
   if GBSA is used:
   P. Shushkov, F. März and S. Grimme, unpublished.
   
   for ANC optimizer:
   S. Grimme, unpublished.
   Rational Function algorithm used in ANCopt:
   F. Eckert, P. Pulay, H.-J. Werner, J. Comput. Chem., 1997, 18, 1473.
   
   with help from (in alphabetical order)
   C. Bannwarth, F. Bohle, G. Brandenburg, E. Caldeweyher, M. Checinski,
   S. Dohm, S. Ehlert, S. Ehrlich, F. März, H. Neugebauer, J. Pisarek,
   P. Pracht, P. Shushkov, and S. Spicher.
   
 * started run on 2019/09/16 at 11:17:50.584     
========================================================================
 # omp threads = 1
========================================================================
number of atoms            : 26
number of electrons        : 80
charge                     : 0
spin                       : .0
first test random number   : .8266

########################################################################
# WARNING! Please study the warnings concerning your input carefully
#  - XTBPATH is not set, using XTBHOME instead
#  - the use of '-opt' is discouraged, please use '--opt' next time
#  - the use of '-chrg' is discouraged, please use '--chrg' next time
#  - the use of '-uhf' is discouraged, please use '--uhf' next time
########################################################################

           ------------------------------------------------- 
          |                 G F N 2 - x T B                 |
          | Geometry, Frequencies, Noncovalent interactions |
          |            JCTC 2018 parametrisation            |
           ------------------------------------------------- 
      method parameters     
 k(s)        :  1.8500
 k(p)        :  2.2300
 k(d)        :  2.2300
 k(f)        :  2.0000
 kEN (H0ij)  : -2.0000
 D4 a1       :  0.5200
 D4 a2       :  5.0000
 D4 s6       :  1.0000
 D4 s8       :  2.7000
 D4 s9       :  5.0000
 alphaj      :  2.0000


            Z     q(EN)     CN     RAES       Cart. coordinates
     1  S   6.0    0.58    4.29    4.22    -4.41853    -1.27755     1.97332
     2  O   6.0   -0.32    1.15    1.80    -2.28236     0.37591     2.50653
     3  O   6.0   -0.27    1.09    1.80    -6.73201    -1.22520     3.41647
     4  O   6.0   -0.23    2.03    1.83    -5.03923    -1.00736    -1.04116
     5  O   6.0   -0.23    2.06    1.83    -3.53507    -4.19068     1.94398
     6  H   1.0    0.17    1.24    1.48    -1.89621    -4.32075     1.11720
     7  H   1.0    0.16    1.15    1.45    -4.63052     0.71959    -1.52792
     8  O   6.0   -0.39    1.61    1.81     0.44839    -3.69991    -0.61417
     9  H   1.0    0.18    0.95    1.42     0.13509    -5.24395    -1.61495
    10  O   6.0   -0.37    1.44    1.80    -2.36047     3.08082    -3.04406
    11  H   1.0    0.18    0.94    1.42    -3.10255     3.83693    -4.58073
    12  O   6.0   -0.40    1.57    1.80     4.11066     2.33205    -0.07697
    13  H   1.0    0.18    0.94    1.42     5.76904     3.03467    -0.56672
    14  O   6.0   -0.23    2.95    2.67     1.11817     0.16794    -2.98047
    15  H   1.0    0.17    1.19    1.46     0.67724    -1.40137    -2.06796
    16  H   1.0    0.16    1.20    1.47    -0.37211     1.26032    -3.25575
    17  H   1.0    0.15    1.11    1.45     2.51646     1.08944    -2.15154
    18  O   6.0   -0.22    2.93    2.61     0.08156     4.39835     0.64032
    19  H   1.0    0.15    1.01    1.43    -0.72880     3.30493     1.92000
    20  H   1.0    0.16    1.17    1.46     1.83116     3.86065     0.26641
    21  H   1.0    0.16    1.09    1.44    -0.95117     4.54388    -0.91010
    22  N   5.0   -0.15    3.96    2.76     3.87225    -1.92775     2.12965
    23  H   1.0    0.13    1.13    1.45     3.84277    -0.08617     1.50341
    24  H   1.0    0.08    0.99    1.43     5.66261    -2.65747     1.91385
    25  H   1.0    0.09    0.99    1.43     3.37217    -1.98171     4.00886
    26  H   1.0    0.13    1.16    1.45     2.61146    -2.98563     1.09247

  Z AO/shell   Hii/eV     exponent
  1     Wed Apr 25 08:07:45 CEST 2018   EN: 2.200 GM2: 0.406  GM3: 0.0800  RAES: 1.40
     1s    -10.707211    1.230000
  7     Wed Apr 25 08:07:45 CEST 2018   EN: 3.040 GM2: 0.461  GM3:-0.0640  RAES: 1.90
     2s    -16.686243    2.339881
     2p    -12.523956    2.014332
  8     Wed Apr 25 08:07:45 CEST 2018   EN: 3.440 GM2: 0.452  GM3:-0.0517  RAES: 1.80
     2s    -20.229985    2.439742
     2p    -15.503117    2.137023
 16     Tue Apr 24 11:44:34 CEST 2018   EN: 2.580 GM2: 0.340  GM3:-0.0502  RAES: 3.10
     3s    -20.029654    1.981333
     3p    -11.377694    2.025643
     3d     -0.420282    1.702555
 no old-style atom pair restraining (fixing) potential

molecular fragmentation (1/2 indicates fragments):
11111112222222222222222222
# atoms in fragment 1/2:     7    19
 fragment masses (1/2) :       98.07      107.11
CMA distance (Bohr)    :   6.479
constraining FC (au)   :  0.0500
           ------------------------------------------------- 
          |        Self-Consistent Charge Iterations        |
           ------------------------------------------------- 

 Ncao       : 65
 Nao        : 64
 Nshell     : 38
 Nel        : 80
 T(el)      :   300.0
 intcut     :    25.0
 scfconv/Eh :  0.100E-05
   qconv/e  :  0.100E-03
 intneglect :  0.100E-07
 broydamp   :      0.250
 iter      E             dE          RMSdq      gap      omega  full diag
   1    -50.4956699 -0.504957E+02  0.712E+00    8.17       0.0  T
   2    -50.5464746 -0.508046E-01  0.502E+00    7.26       1.0  T
   3    -50.5894719 -0.429974E-01  0.119E+00    4.64       1.0  T
   4    -50.5928670 -0.339504E-02  0.703E-01    4.85       1.0  T
   5    -50.5944380 -0.157105E-02  0.272E-01    4.93       1.0  T
   6    -50.5947810 -0.342962E-03  0.158E-01    4.98       1.0  T
   7    -50.5949425 -0.161505E-03  0.424E-02    4.99       1.0  T
   8    -50.5949514 -0.895487E-05  0.254E-02    4.98       1.0  T
   9    -50.5949550 -0.351771E-05  0.926E-03    4.99       2.1  T
  10    -50.5949553 -0.370481E-06  0.284E-03    4.99       6.9  T
  11    -50.5949554 -0.275153E-07  0.133E-03    4.99      14.8  T
  12    -50.5949554 -0.833300E-08  0.412E-04    4.99      47.6  T
  13    -50.5949554 -0.676515E-09  0.163E-04    4.99     120.4  T
speedup  0.97
cpu  time for SCC    0.01 s
wall time for SCC    0.02 s

   *** convergence criteria satisfied after 13 iterations ***

          eigenvalues
 #    :          28         29         30         31         32         33         34         35
 occ. :        2.000      2.000      2.000      2.000      2.000      2.000      2.000      2.000
 eps  :       -12.695    -12.604    -12.439    -12.404    -12.111    -12.029    -11.949    -10.778
 #    :          36         37         38         39         40         41         42         43
 occ. :        2.000      2.000      2.000      2.000      2.000      0.000      0.000      0.000
 eps  :       -10.659    -10.255    -10.151     -9.544     -9.415     -4.423     -1.723     -1.354
 #    :          44         45         46         47         48         49         50         51
 occ. :        0.000      0.000      0.000      0.000      0.000      0.000      0.000      0.000
 eps  :        -0.484      0.172      1.028      2.199      2.784      3.107      3.711      4.593


   #   Z            q   n(s)   n(p)   n(d)      C6AA      α(0)
   1  16 S      1.632  1.631  1.809  0.928    90.328    15.996
   2   8 O     -0.685  1.755  4.931  0.000    28.314     7.134
   3   8 O     -0.630  1.774  4.856  0.000    26.854     6.948
   4   8 O     -0.580  1.766  4.814  0.000    24.683     6.707
   5   8 O     -0.595  1.760  4.835  0.000    25.032     6.754
   6   1 H      0.377  0.623  0.000  0.000     0.527     1.139
   7   1 H      0.374  0.626  0.000  0.000     0.533     1.146
   8   8 O     -0.865  1.831  5.034  0.000    33.612     7.774
   9   1 H      0.209  0.791  0.000  0.000     1.071     1.626
  10   8 O     -0.889  1.830  5.058  0.000    34.385     7.862
  11   1 H      0.180  0.820  0.000  0.000     1.227     1.740
  12   8 O     -0.859  1.820  5.039  0.000    33.424     7.751
  13   1 H      0.200  0.800  0.000  0.000     1.120     1.663
  14   8 O     -0.515  1.683  4.832  0.000    23.163     6.500
  15   1 H      0.384  0.616  0.000  0.000     0.509     1.117
  16   1 H      0.385  0.615  0.000  0.000     0.507     1.115
  17   1 H      0.372  0.628  0.000  0.000     0.538     1.151
  18   8 O     -0.455  1.659  4.796  0.000    21.879     6.317
  19   1 H      0.387  0.613  0.000  0.000     0.510     1.122
  20   1 H      0.402  0.598  0.000  0.000     0.477     1.083
  21   1 H      0.399  0.601  0.000  0.000     0.485     1.094
  22   7 N     -0.309  1.267  4.042  0.000    27.929     7.849
  23   1 H      0.314  0.686  0.000  0.000     0.673     1.285
  24   1 H      0.225  0.775  0.000  0.000     0.989     1.558
  25   1 H      0.227  0.773  0.000  0.000     0.980     1.551
  26   1 H      0.315  0.685  0.000  0.000     0.670     1.281

 Mol. C6AA /au·bohr⁶  :       5534.291492
 Mol. C8AA /au·bohr⁸  :     119814.528880
 Mol. α(0) /au        :        107.265716

 
 Wiberg/Mayer (AO) data. WBOs > 0.1 written file <wbo>
 largest (>0.05) Wiberg bond orders for each atom
           total WBO             WBO to atom ...
     1  S   4.779    O    3 1.479    O    2 1.365    O    5 0.983    O    4 0.922
     2  O   1.750    S    1 1.365    O    3 0.137    O    4 0.097    O    5 0.094
     3  O   1.813    S    1 1.479    O    2 0.137    O    4 0.097    O    5 0.087
     4  O   1.986    S    1 0.922    H    7 0.788    O    3 0.097    O    2 0.097    O    5 0.058
     5  O   1.989    S    1 0.983    H    6 0.710    O    2 0.094    O    3 0.087    O    4 0.058
     6  H   0.858    O    5 0.710    O    8 0.130
     7  H   0.860    O    4 0.788    O   10 0.055
     8  O   1.584    H    9 0.943    H   15 0.176    H   26 0.152    H    6 0.130    N   22 0.064    O   14 0.059
     9  H   0.956    O    8 0.943
    10  O   1.503    H   11 0.956    H   16 0.194    H   21 0.148    O   14 0.064    H    7 0.055    O   18 0.050
    11  H   0.967    O   10 0.956
    12  O   1.584    H   13 0.945    H   20 0.175    H   23 0.143    H   17 0.139    N   22 0.062    O   18 0.056    O   14 0.052
    13  H   0.960    O   12 0.945
    14  O   2.230    H   17 0.716    H   15 0.670    H   16 0.653    O   10 0.064    O    8 0.059    O   12 0.052
    15  H   0.852    O   14 0.670    O    8 0.176
    16  H   0.852    O   14 0.653    O   10 0.194
    17  H   0.861    O   14 0.716    O   12 0.139
    18  O   2.287    H   19 0.799    H   21 0.688    H   20 0.658    O   12 0.056    O   10 0.050
    19  H   0.850    O   18 0.799
    20  H   0.839    O   18 0.658    O   12 0.175
    21  H   0.840    O   18 0.688    O   10 0.148
    22  N   3.527    H   24 0.945    H   25 0.944    H   23 0.753    H   26 0.743    O    8 0.064    O   12 0.062
    23  H   0.902    N   22 0.753    O   12 0.143
    24  H   0.950    N   22 0.945
    25  H   0.949    N   22 0.944
    26  H   0.901    N   22 0.743    O    8 0.152
 MOs/occ written to file <molden.input>
 
molecular dipole:
                 x           y           z       tot (Debye)
 q only:        3.353       0.301       1.052
   full:        3.498       0.184       0.715       9.086
molecular quadrupole (traceless):
                xx          xy          yy          xz          yz          zz
 q only:       -6.662     -13.780       4.158      12.474       1.173       2.505
  q+dip:       -5.633     -14.651       4.008      15.328      -0.743       1.626
   full:       -5.753     -14.883       4.173      15.502      -1.027       1.580

SCC energy    :     -50.5949554
rep           :       0.2635444
ES            :       0.3329633
AES           :      -0.0571217
AXC           :      -0.0056646
disp          :      -0.0193830
XB            :       0.0000000
fix           :       0.0000000
total E       :     -50.3310534
atomizationE  :       4.8613575     3050.55
(atE without considering molecular charge,
 total energy contains solvation terms)
H-L gap (eV)  :          4.9921
           ------------------------------------------------- 
          |                 ===============                 |
          |                   A N C O P T                   |
          |                 ===============                 |
          |          Approximate Normal Coordinate          |
          |           Rational Function Optimizer           |
           ------------------------------------------------- 
dumping coords to <xtbopt.coord> and <xtbopt.log>
 optlevel               2
 Maxcycle             520
 Maxmicro              25
 Econv         1.000000000000000E-007
 Gconv         2.000000000000000E-004
 Maxdispl       1.00000000000000     
 Hlow          5.000000000000000E-003
 S6             20.0000000000000     
 Nvar               72

generating ANC from model Hessian ...
 Shifting diagonal of input Hessian by   4.481529457756529E-003
 Lowest  eigenvalues of input Hessian
   -0.000000   -0.000000   -0.000000    0.000000    0.000000    0.000000
    0.005000    0.005101    0.005832    0.006044    0.006221    0.006820
    0.007670    0.007924    0.009424    0.010163    0.012438    0.012885
 Highest eigenvalues
    1.579907    1.591028    1.607556    1.951224    2.766412    3.590168
 
cpu  time for ANC gen    0.02 s
wall time for ANC gen    0.02 s
................................................................................
.............................. CYCLE    1 ......................................
................................................................................
   1    -50.5949554 -0.505950E+02  0.492E-05    4.99       0.0  T
   2    -50.5949554 -0.645173E-11  0.376E-05    4.99     521.8  T
   3    -50.5949554 -0.392930E-11  0.183E-05    4.99    1071.8  T
speedup  1.25
cpu  time for SCC    0.00 s
wall time for SCC    0.00 s
speedup  1.07
cpu  time for grad    0.01 s
wall time for grad    0.01 s
 E :    -50.33105333  G :  0.209375    pred/act E change:  0.000D+00  0.262D-07
Maxdispl :   0.1455   ||displ|| :   0.3650   Lambda : -0.495D-01
Largest |displ|/coords:  0.1455 (  24)  0.1061 (  14)  0.1024 (  55)
................................................................................
.............................. CYCLE    2 ......................................
................................................................................
   1    -50.6161968 -0.506162E+02  0.405E-01    5.92       0.0  T
   2    -50.6167380 -0.541148E-03  0.291E-01    6.06       1.0  T
   3    -50.6169657 -0.227694E-03  0.991E-02    6.29       1.0  T
   4    -50.6169898 -0.241507E-04  0.274E-02    6.30       1.0  T
   5    -50.6169921 -0.228049E-05  0.750E-03    6.28       2.6  T
   6    -50.6169922 -0.119212E-06  0.414E-03    6.28       4.7  T
   7    -50.6169923 -0.361361E-07  0.154E-03    6.28      12.7  T
speedup  1.06
cpu  time for SCC    0.01 s
wall time for SCC    0.01 s
speedup  1.01
cpu  time for grad    0.01 s
wall time for grad    0.01 s
 E :    -50.37041116  G :  0.119688    pred/act E change:  0.000D+00 -0.394D-01
Maxdispl :   0.2047   ||displ|| :   0.4279   Lambda : -0.256D-01
Largest |displ|/coords:  0.2047 (  24)  0.1378 (  14)  0.1180 (  11)
................................................................................
.............................. CYCLE    3 ......................................
................................................................................
   1    -50.6269767 -0.506270E+02  0.378E-01    7.08       0.0  T
   2    -50.6276490 -0.672310E-03  0.263E-01    7.25       1.0  T
   3    -50.6279303 -0.281326E-03  0.102E-01    7.51       1.0  T
   4    -50.6279467 -0.163880E-04  0.219E-02    7.53       1.0  T
   5    -50.6279482 -0.151875E-05  0.653E-03    7.51       3.0  T
   6    -50.6279483 -0.108351E-06  0.375E-03    7.52       5.2  T
   7    -50.6279484 -0.376271E-07  0.140E-03    7.51      14.0  T
speedup  1.03
cpu  time for SCC    0.01 s
wall time for SCC    0.01 s
speedup  1.00
cpu  time for grad    0.01 s
wall time for grad    0.01 s
 E :    -50.39107700  G :  0.071372    pred/act E change: -0.281D-01 -0.207D-01
Maxdispl :   0.1581   ||displ|| :   0.4491   Lambda : -0.132D-01
Largest |displ|/coords:  0.1581 (  24)  0.1534 (   9)  0.1475 (  11)
................................................................................
.............................. CYCLE    4 ......................................
................................................................................
   1    -50.6310040 -0.506310E+02  0.328E-01    8.06       0.0  T
   2    -50.6315337 -0.529754E-03  0.225E-01    8.17       1.0  T
   3    -50.6317532 -0.219505E-03  0.889E-02    8.31       1.0  T
   4    -50.6317653 -0.120267E-04  0.170E-02    8.32       1.2  T
   5    -50.6317663 -0.991689E-06  0.560E-03    8.31       3.5  T
   6    -50.6317663 -0.683253E-07  0.326E-03    8.31       6.0  T
speedup  0.91
cpu  time for SCC    0.00 s
wall time for SCC    0.01 s
speedup  0.95
cpu  time for grad    0.01 s
wall time for grad    0.01 s
 E :    -50.40123395  G :  0.042084    pred/act E change: -0.151D-01 -0.102D-01
Maxdispl :   0.1908   ||displ|| :   0.4641   Lambda : -0.779D-02
Largest |displ|/coords:  0.1908 (   3)  0.1443 (  27)  0.1193 (   2)
................................................................................
.............................. CYCLE    5 ......................................
................................................................................
   1    -50.6315872 -0.506316E+02  0.364E-01    8.72       0.0  T
   2    -50.6320687 -0.481546E-03  0.256E-01    8.78       1.0  T
   3    -50.6322567 -0.188037E-03  0.926E-02    8.87       1.0  T
   4    -50.6322755 -0.187557E-04  0.206E-02    8.87       1.0  T
   5    -50.6322766 -0.115151E-05  0.542E-03    8.87       3.6  T
   6    -50.6322767 -0.567003E-07  0.327E-03    8.87       6.0  T
speedup  1.09
cpu  time for SCC    0.01 s
wall time for SCC    0.01 s
speedup  1.01
cpu  time for grad    0.01 s
wall time for grad    0.01 s
 E :    -50.40581914  G :  0.020278    pred/act E change: -0.796D-02 -0.459D-02
Maxdispl :   0.2396   ||displ|| :   0.4291   Lambda : -0.219D-02
Largest |displ|/coords:  0.2396 (   3)  0.1751 (   2)  0.1575 (   9)
................................................................................
.............................. CYCLE    6 ......................................
................................................................................
   1    -50.6295523 -0.506296E+02  0.220E-01    8.91       0.0  T
   2    -50.6295873 -0.349999E-04  0.164E-01    8.92       1.0  T
   3    -50.6296033 -0.160124E-04  0.334E-02    8.95       1.0  T
   4    -50.6296082 -0.486822E-05  0.116E-02    8.94       1.7  T
   5    -50.6296084 -0.268035E-06  0.270E-03    8.94       7.3  T
   6    -50.6296085 -0.880176E-08  0.160E-03    8.94      12.2  T
speedup  1.05
cpu  time for SCC    0.01 s
wall time for SCC    0.01 s
speedup  1.01
cpu  time for grad    0.01 s
wall time for grad    0.01 s
 E :    -50.40673169  G :  0.024807    pred/act E change: -0.473D-02 -0.913D-03
Maxdispl :   0.2035   ||displ|| :   0.3925   Lambda : -0.204D-02
Largest |displ|/coords:  0.2035 (   2)  0.1600 (   3)  0.1454 (   4)
................................................................................
.............................. CYCLE    7 ......................................
................................................................................
   1    -50.6317498 -0.506317E+02  0.195E-01    8.99       0.0  T
   2    -50.6317673 -0.174419E-04  0.144E-01    8.99       1.0  T
   3    -50.6317769 -0.958698E-05  0.266E-02    8.99       1.0  T
   4    -50.6317793 -0.244547E-05  0.711E-03    8.99       2.8  T
   5    -50.6317794 -0.603268E-07  0.243E-03    8.99       8.1  T
   6    -50.6317794 -0.802737E-08  0.135E-03    8.99      14.5  T
speedup  1.07
cpu  time for SCC    0.01 s
wall time for SCC    0.01 s
speedup  1.01
cpu  time for grad    0.01 s
wall time for grad    0.01 s
 E :    -50.40784273  G :  0.018109    pred/act E change: -0.130D-02 -0.111D-02
Maxdispl :   0.2070   ||displ|| :   0.3499   Lambda : -0.163D-02
Largest |displ|/coords:  0.2070 (   1)  0.1921 (   2)  0.0864 (  12)
................................................................................
.............................. CYCLE    8 ......................................
................................................................................
   1    -50.6385266 -0.506385E+02  0.192E-01    9.00       0.0  T
   2    -50.6385603 -0.337425E-04  0.139E-01    9.00       1.0  T
   3    -50.6385777 -0.173334E-04  0.341E-02    9.00       1.0  T
   4    -50.6385809 -0.326289E-05  0.103E-02    9.00       1.9  T
   5    -50.6385811 -0.166639E-06  0.287E-03    9.00       6.8  T
   6    -50.6385811 -0.129989E-07  0.160E-03    9.00      12.3  T
speedup  1.09
cpu  time for SCC    0.01 s
wall time for SCC    0.01 s
speedup  1.01
cpu  time for grad    0.01 s
wall time for grad    0.01 s
 E :    -50.40857532  G :  0.018954    pred/act E change: -0.118D-02 -0.733D-03
Maxdispl :   0.3165   ||displ|| :   0.4199   Lambda : -0.142D-02
Largest |displ|/coords:  0.3165 (   2)  0.1728 (   1)  0.1284 (   3)
................................................................................
.............................. CYCLE    9 ......................................
................................................................................
   1    -50.6356468 -0.506356E+02  0.211E-01    8.92       0.0  T
   2    -50.6356738 -0.269732E-04  0.156E-01    8.92       1.0  T
   3    -50.6356882 -0.143617E-04  0.306E-02    8.93       1.0  T
   4    -50.6356918 -0.364448E-05  0.888E-03    8.92       2.2  T
   5    -50.6356919 -0.123907E-06  0.291E-03    8.92       6.7  T
   6    -50.6356919 -0.137964E-07  0.155E-03    8.92      12.6  T
speedup  0.89
cpu  time for SCC    0.00 s
wall time for SCC    0.01 s
speedup  1.00
cpu  time for grad    0.01 s
wall time for grad    0.01 s
 E :    -50.40932730  G :  0.020404    pred/act E change: -0.917D-03 -0.752D-03
Maxdispl :   0.2667   ||displ|| :   0.4514   Lambda : -0.145D-02
Largest |displ|/coords:  0.2667 (   2)  0.2339 (   3)  0.1786 (   1)
................................................................................
.............................. CYCLE   10 ......................................
................................................................................
   1    -50.6339180 -0.506339E+02  0.190E-01    8.86       0.0  T
   2    -50.6339573 -0.393109E-04  0.141E-01    8.86       1.0  T
   3    -50.6339726 -0.152910E-04  0.366E-02    8.84       1.0  T
   4    -50.6339774 -0.479959E-05  0.894E-03    8.84       2.2  T
   5    -50.6339776 -0.249279E-06  0.308E-03    8.85       6.4  T
   6    -50.6339776 -0.117565E-07  0.160E-03    8.85      12.3  T
speedup  1.03
cpu  time for SCC    0.01 s
wall time for SCC    0.01 s
speedup  0.98
cpu  time for grad    0.01 s
wall time for grad    0.01 s
 E :    -50.41006393  G :  0.021152    pred/act E change: -0.837D-03 -0.737D-03
Maxdispl :   0.1791   ||displ|| :   0.3219   Lambda : -0.122D-02
Largest |displ|/coords:  0.1791 (   2)  0.1746 (   1)  0.1241 (   3)
................................................................................
.............................. CYCLE   11 ......................................
................................................................................
   1    -50.6408355 -0.506408E+02  0.131E-01    8.85       0.0  T
   2    -50.6408498 -0.143716E-04  0.978E-02    8.84       1.0  T
   3    -50.6408573 -0.749050E-05  0.215E-02    8.83       1.0  T
   4    -50.6408591 -0.177249E-05  0.660E-03    8.83       3.0  T
   5    -50.6408592 -0.106936E-06  0.192E-03    8.83      10.2  T
   6    -50.6408592 -0.449153E-08  0.102E-03    8.83      19.2  T
speedup  1.02
cpu  time for SCC    0.01 s
wall time for SCC    0.01 s
speedup  0.99
cpu  time for grad    0.01 s
wall time for grad    0.01 s
 E :    -50.41080502  G :  0.014658    pred/act E change: -0.872D-03 -0.741D-03
Maxdispl :   0.3720   ||displ|| :   0.5747   Lambda : -0.193D-02
Largest |displ|/coords:  0.3720 (   2)  0.2930 (   1)  0.1953 (   7)
................................................................................
.............................. CYCLE   12 ......................................
................................................................................
   1    -50.6388727 -0.506389E+02  0.261E-01    8.79       0.0  T
   2    -50.6388987 -0.260329E-04  0.196E-01    8.80       1.0  T
   3    -50.6389151 -0.164235E-04  0.264E-02    8.81       1.0  T
   4    -50.6389191 -0.398116E-05  0.102E-02    8.81       1.9  T
   5    -50.6389192 -0.131225E-06  0.327E-03    8.81       6.0  T
   6    -50.6389193 -0.171529E-07  0.187E-03    8.81      10.5  T
   7    -50.6389193 -0.651689E-08  0.520E-04    8.81      37.7  T
speedup  0.90
cpu  time for SCC    0.01 s
wall time for SCC    0.01 s
speedup  0.98
cpu  time for grad    0.01 s
wall time for grad    0.02 s
 E :    -50.41179333  G :  0.026512    pred/act E change: -0.671D-03 -0.988D-03
Maxdispl :   0.2127   ||displ|| :   0.3982   Lambda : -0.166D-02
Largest |displ|/coords:  0.2127 (   1)  0.1913 (   2)  0.1447 (   3)
................................................................................
.............................. CYCLE   13 ......................................
................................................................................
   1    -50.6415279 -0.506415E+02  0.187E-01    8.88       0.0  T
   2    -50.6415851 -0.571584E-04  0.137E-01    8.88       1.0  T
   3    -50.6416122 -0.271377E-04  0.414E-02    8.89       1.0  T
   4    -50.6416181 -0.593432E-05  0.100E-02    8.88       2.0  T
   5    -50.6416184 -0.292319E-06  0.379E-03    8.89       5.2  T
   6    -50.6416184 -0.190535E-07  0.201E-03    8.89       9.7  T
speedup  1.02
cpu  time for SCC    0.01 s
wall time for SCC    0.01 s
speedup  0.98
cpu  time for grad    0.01 s
wall time for grad    0.01 s
 E :    -50.41277491  G :  0.021898    pred/act E change: -0.128D-02 -0.982D-03
Maxdispl :   0.2140   ||displ|| :   0.4157   Lambda : -0.175D-02
Largest |displ|/coords:  0.2140 (   3)  0.2131 (   2)  0.1649 (   1)
................................................................................
.............................. CYCLE   14 ......................................
................................................................................
   1    -50.6452485 -0.506452E+02  0.204E-01    8.92       0.0  T
   2    -50.6452800 -0.314395E-04  0.151E-01    8.92       1.0  T
   3    -50.6453013 -0.213427E-04  0.387E-02    8.92       1.0  T
   4    -50.6453050 -0.374319E-05  0.123E-02    8.92       1.6  T
   5    -50.6453053 -0.234542E-06  0.366E-03    8.92       5.4  T
   6    -50.6453053 -0.260900E-07  0.190E-03    8.92      10.3  T
speedup  1.07
cpu  time for SCC    0.01 s
wall time for SCC    0.01 s
speedup  0.94
cpu  time for grad    0.01 s
wall time for grad    0.01 s
 E :    -50.41417406  G :  0.025221    pred/act E change: -0.960D-03 -0.140D-02
Maxdispl :   0.2018   ||displ|| :   0.5748   Lambda : -0.377D-02
Largest |displ|/coords:  0.2018 (   3)  0.1914 (   7)  0.1505 (   8)
................................................................................
.............................. CYCLE   15 ......................................
................................................................................
   1    -50.6576217 -0.506576E+02  0.408E-01    9.04       0.0  T
   2    -50.6578353 -0.213620E-03  0.296E-01    9.03       1.0  T
   3    -50.6579674 -0.132132E-03  0.846E-02    9.02       1.0  T
   4    -50.6579903 -0.228615E-04  0.246E-02    9.02       1.0  T
   5    -50.6579912 -0.908227E-06  0.837E-03    9.03       2.3  T
   6    -50.6579913 -0.998713E-07  0.399E-03    9.03       4.9  T
   7    -50.6579913 -0.273833E-07  0.126E-03    9.03      15.6  T
speedup  1.09
cpu  time for SCC    0.01 s
wall time for SCC    0.01 s
speedup  1.02
cpu  time for grad    0.01 s
wall time for grad    0.01 s
 E :    -50.41737026  G :  0.039225    pred/act E change: -0.103D-02 -0.320D-02
Maxdispl :   0.2721   ||displ|| :   0.7672   Lambda : -0.610D-02
Largest |displ|/coords:  0.2721 (   7)  0.2557 (   2)  0.2139 (   3)
................................................................................
.............................. CYCLE   16 ......................................
................................................................................
   1    -50.6666663 -0.506667E+02  0.536E-01    8.91       0.0  T
   2    -50.6670905 -0.424154E-03  0.394E-01    8.90       1.0  T
   3    -50.6673580 -0.267456E-03  0.111E-01    8.86       1.0  T
   4    -50.6674064 -0.484765E-04  0.265E-02    8.87       1.0  T
   5    -50.6674076 -0.120096E-05  0.112E-02    8.87       1.7  T
   6    -50.6674077 -0.107972E-06  0.450E-03    8.87       4.4  T
   7    -50.6674078 -0.416093E-07  0.119E-03    8.87      16.5  T
speedup  0.94
cpu  time for SCC    0.01 s
wall time for SCC    0.01 s
speedup  1.02
cpu  time for grad    0.01 s
wall time for grad    0.01 s
 E :    -50.42204999  G :  0.052429    pred/act E change: -0.251D-02 -0.468D-02
Maxdispl :   0.1722   ||displ|| :   0.3537   Lambda : -0.513D-02
Largest |displ|/coords:  0.1722 (  16)  0.1191 (   8)  0.1023 (  19)
................................................................................
.............................. CYCLE   17 ......................................
................................................................................
   1    -50.6797991 -0.506798E+02  0.240E-01    8.89       0.0  T
   2    -50.6798846 -0.854827E-04  0.178E-01    8.88       1.0  T
   3    -50.6799406 -0.559862E-04  0.510E-02    8.87       1.0  T
   4    -50.6799504 -0.979355E-05  0.128E-02    8.87       1.5  T
   5    -50.6799507 -0.341926E-06  0.523E-03    8.87       3.7  T
   6    -50.6799508 -0.423430E-07  0.233E-03    8.87       8.4  T
speedup  0.89
cpu  time for SCC    0.00 s
wall time for SCC    0.01 s
speedup  0.94
cpu  time for grad    0.01 s
wall time for grad    0.01 s
 E :    -50.42568572  G :  0.048909    pred/act E change: -0.485D-02 -0.364D-02
Maxdispl :   0.2235   ||displ|| :   0.5973   Lambda : -0.880D-02
Largest |displ|/coords:  0.2235 (   2)  0.1950 (   1)  0.1568 (  19)
................................................................................
.............................. CYCLE   18 ......................................
................................................................................
   1    -50.6837898 -0.506838E+02  0.404E-01    8.85       0.0  T
   2    -50.6840530 -0.263205E-03  0.298E-01    8.85       1.0  T
   3    -50.6841969 -0.143880E-03  0.927E-02    8.85       1.0  T
   4    -50.6842230 -0.261585E-04  0.265E-02    8.85       1.0  T
   5    -50.6842246 -0.158400E-05  0.893E-03    8.85       2.2  T
   6    -50.6842248 -0.128331E-06  0.505E-03    8.85       3.9  T
   7    -50.6842248 -0.408005E-07  0.133E-03    8.85      14.7  T
speedup  1.08
cpu  time for SCC    0.01 s
wall time for SCC    0.01 s
speedup  1.01
cpu  time for grad    0.01 s
wall time for grad    0.01 s
 E :    -50.43209193  G :  0.050294    pred/act E change: -0.289D-02 -0.641D-02
Maxdispl :   0.2012   ||displ|| :   0.4700   Lambda : -0.653D-02
Largest |displ|/coords:  0.2012 (   1)  0.1456 (  16)  0.1445 (   2)
................................................................................
.............................. CYCLE   19 ......................................
................................................................................
   1    -50.7044296 -0.507044E+02  0.315E-01    8.69       0.0  T
   2    -50.7046402 -0.210592E-03  0.234E-01    8.68       1.0  T
   3    -50.7047537 -0.113528E-03  0.866E-02    8.67       1.0  T
   4    -50.7047723 -0.185889E-04  0.247E-02    8.67       1.0  T
   5    -50.7047742 -0.181482E-05  0.820E-03    8.67       2.4  T
   6    -50.7047742 -0.570523E-07  0.428E-03    8.67       4.6  T
   7    -50.7047742 -0.318238E-07  0.930E-04    8.67      21.1  T
speedup  1.04
cpu  time for SCC    0.01 s
wall time for SCC    0.01 s
speedup  1.01
cpu  time for grad    0.01 s
wall time for grad    0.01 s
 E :    -50.43536687  G :  0.061188    pred/act E change: -0.597D-02 -0.327D-02
Maxdispl :   0.1153   ||displ|| :   0.3516   Lambda : -0.990D-02
Largest |displ|/coords:  0.1153 (   4)  0.1128 (  24)  0.1080 (  13)
................................................................................
.............................. CYCLE   20 ......................................
................................................................................
   1    -50.6903515 -0.506904E+02  0.310E-01    8.72       0.0  T
   2    -50.6904901 -0.138583E-03  0.224E-01    8.73       1.0  T
   3    -50.6905745 -0.843844E-04  0.610E-02    8.74       1.0  T
   4    -50.6905853 -0.107661E-04  0.186E-02    8.74       1.1  T
   5    -50.6905857 -0.479801E-06  0.649E-03    8.74       3.0  T
   6    -50.6905858 -0.738548E-07  0.344E-03    8.74       5.7  T
   7    -50.6905858 -0.149941E-07  0.980E-04    8.74      20.0  T
speedup  0.92
cpu  time for SCC    0.01 s
wall time for SCC    0.01 s
speedup  1.01
cpu  time for grad    0.01 s
wall time for grad    0.01 s
 E :    -50.43723670  G :  0.061655    pred/act E change: -0.399D-02 -0.187D-02
Maxdispl :   0.1138   ||displ|| :   0.3715   Lambda : -0.105D-01
Largest |displ|/coords:  0.1138 (  19)  0.1088 (  16)  0.1005 (  13)
................................................................................
.............................. CYCLE   21 ......................................
................................................................................
   1    -50.7160124 -0.507160E+02  0.340E-01    8.92       0.0  T
   2    -50.7162483 -0.235866E-03  0.245E-01    8.91       1.0  T
   3    -50.7164005 -0.152234E-03  0.813E-02    8.89       1.0  T
   4    -50.7164192 -0.186894E-04  0.215E-02    8.89       1.0  T
   5    -50.7164200 -0.800745E-06  0.851E-03    8.89       2.3  T
   6    -50.7164201 -0.734619E-07  0.423E-03    8.89       4.6  T
   7    -50.7164201 -0.255122E-07  0.105E-03    8.89      18.7  T
speedup  0.92
cpu  time for SCC    0.01 s
wall time for SCC    0.01 s
speedup  0.95
cpu  time for grad    0.01 s
wall time for grad    0.01 s
 E :    -50.44054402  G :  0.055056    pred/act E change: -0.556D-02 -0.331D-02
Maxdispl :   0.1570   ||displ|| :   0.3931   Lambda : -0.873D-02
Largest |displ|/coords:  0.1570 (   1)  0.1453 (   6)  0.1321 (   2)
................................................................................
.............................. CYCLE   22 ......................................
................................................................................
   1    -50.7060373 -0.507060E+02  0.354E-01    8.67       0.0  T
   2    -50.7062019 -0.164639E-03  0.254E-01    8.68       1.0  T
   3    -50.7062906 -0.887013E-04  0.735E-02    8.70       1.0  T
   4    -50.7063029 -0.123001E-04  0.241E-02    8.70       1.0  T
   5    -50.7063039 -0.943040E-06  0.642E-03    8.70       3.1  T
   6    -50.7063039 -0.675585E-07  0.386E-03    8.70       5.1  T
   7    -50.7063040 -0.227334E-07  0.110E-03    8.70      17.9  T
speedup  1.08
cpu  time for SCC    0.01 s
wall time for SCC    0.01 s
speedup  1.01
cpu  time for grad    0.01 s
wall time for grad    0.01 s
 E :    -50.44167874  G :  0.060936    pred/act E change: -0.596D-02 -0.113D-02
Maxdispl :   0.1761   ||displ|| :   0.4298   Lambda : -0.106D-01
Largest |displ|/coords:  0.1761 (   8)  0.1687 (   5)  0.1352 (   4)
................................................................................
.............................. CYCLE   23 ......................................
................................................................................
   1    -50.7158731 -0.507159E+02  0.371E-01    8.77       0.0  T
   2    -50.7159904 -0.117378E-03  0.265E-01    8.77       1.0  T
   3    -50.7160709 -0.805025E-04  0.668E-02    8.77       1.0  T
   4    -50.7160801 -0.913187E-05  0.182E-02    8.77       1.1  T
   5    -50.7160807 -0.651068E-06  0.644E-03    8.77       3.0  T
   6    -50.7160808 -0.608935E-07  0.333E-03    8.77       5.9  T
   7    -50.7160808 -0.236247E-07  0.108E-03    8.77      18.1  T
speedup  1.03
cpu  time for SCC    0.01 s
wall time for SCC    0.01 s
speedup  0.99
cpu  time for grad    0.01 s
wall time for grad    0.02 s
 E :    -50.44273204  G :  0.061217    pred/act E change: -0.504D-02 -0.105D-02
Maxdispl :   0.1546   ||displ|| :   0.3748   Lambda : -0.115D-01
Largest |displ|/coords:  0.1546 (   6)  0.1154 (  10)  0.1142 (   8)
................................................................................
.............................. CYCLE   24 ......................................
................................................................................
   1    -50.7183776 -0.507184E+02  0.342E-01    8.94       0.0  T
   2    -50.7185499 -0.172352E-03  0.247E-01    8.94       1.0  T
   3    -50.7186565 -0.106538E-03  0.718E-02    8.93       1.0  T
   4    -50.7186707 -0.142607E-04  0.263E-02    8.94       1.0  T
   5    -50.7186718 -0.111955E-05  0.746E-03    8.93       2.6  T
   6    -50.7186719 -0.736367E-07  0.452E-03    8.93       4.3  T
   7    -50.7186719 -0.284683E-07  0.122E-03    8.93      16.1  T
speedup  1.04
cpu  time for SCC    0.01 s
wall time for SCC    0.01 s
speedup  1.01
cpu  time for grad    0.01 s
wall time for grad    0.01 s
 E :    -50.44383394  G :  0.069354    pred/act E change: -0.629D-02 -0.110D-02
Maxdispl :   0.1323   ||displ|| :   0.3389   Lambda : -0.123D-01
Largest |displ|/coords:  0.1323 (  18)  0.0969 (   2)  0.0942 (   1)
................................................................................
.............................. CYCLE   25 ......................................
................................................................................
   1    -50.7168796 -0.507169E+02  0.308E-01    8.67       0.0  T
   2    -50.7170695 -0.189891E-03  0.229E-01    8.67       1.0  T
   3    -50.7172058 -0.136312E-03  0.828E-02    8.69       1.0  T
   4    -50.7172241 -0.182516E-04  0.293E-02    8.69       1.0  T
   5    -50.7172258 -0.176239E-05  0.876E-03    8.69       2.2  T
   6    -50.7172259 -0.790610E-07  0.438E-03    8.69       4.5  T
   7    -50.7172260 -0.329673E-07  0.122E-03    8.69      16.0  T
speedup  1.08
cpu  time for SCC    0.01 s
wall time for SCC    0.01 s
speedup  1.02
cpu  time for grad    0.01 s
wall time for grad    0.01 s
 E :    -50.44478535  G :  0.074600    pred/act E change: -0.658D-02 -0.951D-03
Maxdispl :   0.1145   ||displ|| :   0.3249   Lambda : -0.112D-01
Largest |displ|/coords:  0.1145 (  18)  0.0972 (  19)  0.0884 (  25)

generating ANC from model Hessian ...
 Shifting diagonal of input Hessian by   4.434581856539835E-003
 Lowest  eigenvalues of input Hessian
   -0.000000   -0.000000    0.000000    0.000000    0.000000    0.000000
    0.005000    0.005560    0.006060    0.006439    0.007759    0.008228
    0.008593    0.009388    0.010265    0.011518    0.012391    0.013432
 Highest eigenvalues
    1.391267    1.401910    1.519206    2.776820    3.284458    3.793057
 
cpu  time for ANC gen    0.03 s
wall time for ANC gen    0.03 s
................................................................................
.............................. CYCLE   26 ......................................
................................................................................
   1    -50.7214517 -0.507215E+02  0.323E-01    8.98       0.0  T
   2    -50.7216512 -0.199495E-03  0.239E-01    8.97       1.0  T
   3    -50.7217885 -0.137345E-03  0.846E-02    8.96       1.0  T
   4    -50.7218076 -0.190642E-04  0.265E-02    8.96       1.0  T
   5    -50.7218091 -0.149841E-05  0.816E-03    8.96       2.4  T
   6    -50.7218092 -0.901165E-07  0.459E-03    8.96       4.3  T
   7    -50.7218092 -0.344825E-07  0.121E-03    8.96      16.1  T
   8    -50.7218092 -0.282611E-08  0.382E-04    8.96      51.4  T
   9    -50.7218092 -0.372800E-09  0.980E-05    8.96     200.1  T
speedup  0.94
cpu  time for SCC    0.01 s
wall time for SCC    0.01 s
speedup  0.98
cpu  time for grad    0.02 s
wall time for grad    0.02 s
 E :    -50.44631640  G :  0.058207    pred/act E change:  0.000D+00 -0.153D-02
Maxdispl :   0.1242   ||displ|| :   0.3275   Lambda : -0.589D-02
Largest |displ|/coords:  0.1242 (   8)  0.0951 (   5)  0.0929 (  18)
................................................................................
.............................. CYCLE   27 ......................................
................................................................................
   1    -50.7247993 -0.507248E+02  0.182E-01    8.92       0.0  T
   2    -50.7248390 -0.396911E-04  0.136E-01    8.92       1.0  T
   3    -50.7248620 -0.230239E-04  0.356E-02    8.91       1.0  T
   4    -50.7248664 -0.442959E-05  0.118E-02    8.91       1.7  T
   5    -50.7248667 -0.335179E-06  0.370E-03    8.92       5.3  T
   6    -50.7248668 -0.137817E-07  0.209E-03    8.92       9.4  T
speedup  1.03
cpu  time for SCC    0.01 s
wall time for SCC    0.01 s
speedup  0.99
cpu  time for grad    0.01 s
wall time for grad    0.01 s
 E :    -50.45037742  G :  0.027069    pred/act E change:  0.000D+00 -0.406D-02
Maxdispl :   0.1032   ||displ|| :   0.3015   Lambda : -0.280D-02
Largest |displ|/coords:  0.1032 (   4)  0.0964 (  29)  0.0953 (  17)
................................................................................
.............................. CYCLE   28 ......................................
................................................................................
   1    -50.7275201 -0.507275E+02  0.187E-01    8.85       0.0  T
   2    -50.7275559 -0.358262E-04  0.140E-01    8.84       1.0  T
   3    -50.7275758 -0.199142E-04  0.354E-02    8.83       1.0  T
   4    -50.7275802 -0.435573E-05  0.125E-02    8.83       1.6  T
   5    -50.7275805 -0.332649E-06  0.367E-03    8.83       5.3  T
   6    -50.7275805 -0.142622E-07  0.211E-03    8.83       9.3  T
speedup  1.02
cpu  time for SCC    0.01 s
wall time for SCC    0.01 s
speedup  1.00
cpu  time for grad    0.01 s
wall time for grad    0.01 s
 E :    -50.45209363  G :  0.024862    pred/act E change: -0.326D-02 -0.172D-02
Maxdispl :   0.0868   ||displ|| :   0.2517   Lambda : -0.143D-02
Largest |displ|/coords:  0.0868 (  17)  0.0758 (  25)  0.0756 (  16)
................................................................................
.............................. CYCLE   29 ......................................
................................................................................
   1    -50.7290557 -0.507291E+02  0.146E-01    8.79       0.0  T
   2    -50.7290769 -0.211245E-04  0.110E-01    8.79       1.0  T
   3    -50.7290877 -0.108690E-04  0.292E-02    8.77       1.0  T
   4    -50.7290906 -0.283992E-05  0.103E-02    8.77       1.9  T
   5    -50.7290908 -0.190535E-06  0.294E-03    8.78       6.7  T
   6    -50.7290908 -0.110574E-07  0.175E-03    8.78      11.2  T
speedup  0.91
cpu  time for SCC    0.00 s
wall time for SCC    0.01 s
speedup  1.02
cpu  time for grad    0.01 s
wall time for grad    0.01 s
 E :    -50.45313874  G :  0.026030    pred/act E change: -0.152D-02 -0.105D-02
Maxdispl :   0.1379   ||displ|| :   0.3798   Lambda : -0.196D-02
Largest |displ|/coords:  0.1379 (   4)  0.1340 (  16)  0.1289 (  17)
................................................................................
.............................. CYCLE   30 ......................................
................................................................................
   1    -50.7317695 -0.507318E+02  0.215E-01    8.75       0.0  T
   2    -50.7318048 -0.353469E-04  0.163E-01    8.74       1.0  T
   3    -50.7318290 -0.241751E-04  0.385E-02    8.72       1.0  T
   4    -50.7318339 -0.486834E-05  0.152E-02    8.73       1.3  T
   5    -50.7318342 -0.320762E-06  0.421E-03    8.73       4.7  T
   6    -50.7318342 -0.236191E-07  0.254E-03    8.73       7.7  T
speedup  0.89
cpu  time for SCC    0.00 s
wall time for SCC    0.01 s
speedup  0.94
cpu  time for grad    0.01 s
wall time for grad    0.01 s
 E :    -50.45430762  G :  0.017486    pred/act E change: -0.763D-03 -0.117D-02
Maxdispl :   0.1074   ||displ|| :   0.2584   Lambda : -0.982D-03
Largest |displ|/coords:  0.1074 (   8)  0.0893 (  17)  0.0746 (  10)
................................................................................
.............................. CYCLE   31 ......................................
................................................................................
   1    -50.7359842 -0.507360E+02  0.160E-01    8.74       0.0  T
   2    -50.7359947 -0.105366E-04  0.122E-01    8.74       1.0  T
   3    -50.7360058 -0.111293E-04  0.191E-02    8.73       1.0  T
   4    -50.7360070 -0.113583E-05  0.699E-03    8.73       2.8  T
   5    -50.7360070 -0.730932E-07  0.257E-03    8.73       7.6  T
   6    -50.7360071 -0.100855E-07  0.157E-03    8.73      12.5  T
speedup  1.07
cpu  time for SCC    0.01 s
wall time for SCC    0.01 s
speedup  1.02
cpu  time for grad    0.01 s
wall time for grad    0.01 s
 E :    -50.45491294  G :  0.014052    pred/act E change: -0.112D-02 -0.605D-03
Maxdispl :   0.0797   ||displ|| :   0.2204   Lambda : -0.644D-03
Largest |displ|/coords:  0.0797 (  12)  0.0741 (   7)  0.0694 (  22)
................................................................................
.............................. CYCLE   32 ......................................
................................................................................
   1    -50.7377176 -0.507377E+02  0.142E-01    8.76       0.0  T
   2    -50.7377224 -0.482611E-05  0.106E-01    8.76       1.0  T
   3    -50.7377269 -0.453563E-05  0.141E-02    8.76       1.4  T
   4    -50.7377275 -0.544396E-06  0.393E-03    8.76       5.0  T
   5    -50.7377275 -0.292295E-07  0.182E-03    8.76      10.8  T
   6    -50.7377275 -0.463942E-08  0.916E-04    8.76      21.4  T
speedup  0.89
cpu  time for SCC    0.00 s
wall time for SCC    0.01 s
speedup  1.01
cpu  time for grad    0.01 s
wall time for grad    0.01 s
 E :    -50.45532735  G :  0.009533    pred/act E change: -0.524D-03 -0.414D-03
Maxdispl :   0.0840   ||displ|| :   0.2009   Lambda : -0.323D-03
Largest |displ|/coords:  0.0840 (   5)  0.0749 (   7)  0.0681 (   8)
................................................................................
.............................. CYCLE   33 ......................................
................................................................................
   1    -50.7380994 -0.507381E+02  0.111E-01    8.78       0.0  T
   2    -50.7381026 -0.312533E-05  0.832E-02    8.78       1.0  T
   3    -50.7381061 -0.354352E-05  0.108E-02    8.78       1.8  T
   4    -50.7381064 -0.302972E-06  0.326E-03    8.78       6.0  T
   5    -50.7381064 -0.232464E-07  0.138E-03    8.78      14.2  T
   6    -50.7381064 -0.338520E-08  0.696E-04    8.78      28.2  T
speedup  0.89
cpu  time for SCC    0.00 s
wall time for SCC    0.01 s
speedup  0.95
cpu  time for grad    0.01 s
wall time for grad    0.01 s
 E :    -50.45554096  G :  0.006910    pred/act E change: -0.338D-03 -0.214D-03
Maxdispl :   0.0949   ||displ|| :   0.1800   Lambda : -0.228D-03
Largest |displ|/coords:  0.0949 (   7)  0.0730 (  22)  0.0527 (  12)
................................................................................
.............................. CYCLE   34 ......................................
................................................................................
   1    -50.7397513 -0.507398E+02  0.851E-02    8.81       0.0  T
   2    -50.7397540 -0.269389E-05  0.634E-02    8.81       1.0  T
   3    -50.7397560 -0.202598E-05  0.111E-02    8.81       1.8  T
   4    -50.7397564 -0.367232E-06  0.303E-03    8.81       6.5  T
   5    -50.7397564 -0.180830E-07  0.108E-03    8.81      18.2  T
   6    -50.7397564 -0.191625E-08  0.631E-04    8.81      31.1  T
speedup  1.07
cpu  time for SCC    0.01 s
wall time for SCC    0.01 s
speedup  1.01
cpu  time for grad    0.01 s
wall time for grad    0.01 s
 E :    -50.45567042  G :  0.005544    pred/act E change: -0.168D-03 -0.129D-03
Maxdispl :   0.0632   ||displ|| :   0.1202   Lambda : -0.114D-03
Largest |displ|/coords:  0.0632 (   7)  0.0415 (   5)  0.0352 (  22)
................................................................................
.............................. CYCLE   35 ......................................
................................................................................
   1    -50.7388526 -0.507389E+02  0.674E-02    8.82       0.0  T
   2    -50.7388544 -0.174385E-05  0.506E-02    8.82       1.0  T
   3    -50.7388558 -0.143961E-05  0.906E-03    8.82       2.2  T
   4    -50.7388561 -0.238177E-06  0.293E-03    8.82       6.7  T
   5    -50.7388561 -0.136069E-07  0.823E-04    8.82      23.8  T
speedup  1.09
cpu  time for SCC    0.00 s
wall time for SCC    0.00 s
speedup  1.01
cpu  time for grad    0.01 s
wall time for grad    0.01 s
 E :    -50.45573948  G :  0.004582    pred/act E change: -0.118D-03 -0.691D-04
Maxdispl :   0.0345   ||displ|| :   0.0889   Lambda : -0.901D-04
Largest |displ|/coords:  0.0345 (   7)  0.0291 (  22)  0.0278 (   4)
................................................................................
.............................. CYCLE   36 ......................................
................................................................................
   1    -50.7391712 -0.507392E+02  0.573E-02    8.84       0.0  T
   2    -50.7391727 -0.149076E-05  0.429E-02    8.84       1.0  T
   3    -50.7391735 -0.807778E-06  0.877E-03    8.83       2.2  T
   4    -50.7391737 -0.229063E-06  0.258E-03    8.83       7.6  T
   5    -50.7391737 -0.860246E-08  0.564E-04    8.83      34.7  T
speedup  1.06
cpu  time for SCC    0.00 s
wall time for SCC    0.00 s
speedup  1.00
cpu  time for grad    0.01 s
wall time for grad    0.01 s
 E :    -50.45579889  G :  0.003936    pred/act E change: -0.577D-04 -0.594D-04
Maxdispl :   0.0544   ||displ|| :   0.1029   Lambda : -0.868D-04
Largest |displ|/coords:  0.0544 (   7)  0.0349 (  19)  0.0329 (  22)
................................................................................
.............................. CYCLE   37 ......................................
................................................................................
   1    -50.7389016 -0.507389E+02  0.708E-02    8.85       0.0  T
   2    -50.7389037 -0.214009E-05  0.529E-02    8.84       1.0  T
   3    -50.7389047 -0.960682E-06  0.105E-02    8.84       1.9  T
   4    -50.7389050 -0.355799E-06  0.336E-03    8.84       5.8  T
   5    -50.7389050 -0.989217E-08  0.600E-04    8.84      32.7  T
   6    -50.7389050 -0.424400E-09  0.353E-04    8.84      55.6  T
speedup  1.09
cpu  time for SCC    0.01 s
wall time for SCC    0.01 s
speedup  1.05
cpu  time for grad    0.01 s
wall time for grad    0.01 s
 E :    -50.45585872  G :  0.003025    pred/act E change: -0.454D-04 -0.598D-04
Maxdispl :   0.0417   ||displ|| :   0.1119   Lambda : -0.739D-04
Largest |displ|/coords:  0.0417 (   7)  0.0342 (  22)  0.0331 (  19)
................................................................................
.............................. CYCLE   38 ......................................
................................................................................
   1    -50.7385797 -0.507386E+02  0.818E-02    8.84       0.0  T
   2    -50.7385820 -0.226668E-05  0.609E-02    8.84       1.0  T
   3    -50.7385834 -0.138453E-05  0.111E-02    8.83       1.8  T
   4    -50.7385837 -0.329975E-06  0.405E-03    8.83       4.8  T
   5    -50.7385837 -0.119075E-07  0.547E-04    8.83      35.8  T
   6    -50.7385837 -0.362355E-09  0.352E-04    8.83      55.7  T
speedup  1.03
cpu  time for SCC    0.01 s
wall time for SCC    0.01 s
speedup  0.95
cpu  time for grad    0.01 s
wall time for grad    0.01 s
 E :    -50.45591362  G :  0.003896    pred/act E change: -0.439D-04 -0.549D-04
Maxdispl :   0.0579   ||displ|| :   0.1527   Lambda : -0.919D-04
Largest |displ|/coords:  0.0579 (   6)  0.0548 (   7)  0.0430 (  10)
................................................................................
.............................. CYCLE   39 ......................................
................................................................................
   1    -50.7382774 -0.507383E+02  0.116E-01    8.82       0.0  T
   2    -50.7382808 -0.347488E-05  0.864E-02    8.82       1.0  T
   3    -50.7382836 -0.275366E-05  0.144E-02    8.81       1.4  T
   4    -50.7382840 -0.410264E-06  0.515E-03    8.82       3.8  T
   5    -50.7382840 -0.239082E-07  0.752E-04    8.82      26.1  T
   6    -50.7382840 -0.805116E-09  0.493E-04    8.82      39.8  T
speedup  1.02
cpu  time for SCC    0.01 s
wall time for SCC    0.01 s
speedup  0.95
cpu  time for grad    0.01 s
wall time for grad    0.01 s
 E :    -50.45598105  G :  0.006410    pred/act E change: -0.374D-04 -0.674D-04
Maxdispl :   0.0750   ||displ|| :   0.1707   Lambda : -0.110D-03
Largest |displ|/coords:  0.0750 (   6)  0.0559 (  10)  0.0519 (  12)
................................................................................
.............................. CYCLE   40 ......................................
................................................................................
   1    -50.7378321 -0.507378E+02  0.133E-01    8.79       0.0  T
   2    -50.7378359 -0.378948E-05  0.989E-02    8.79       1.0  T
   3    -50.7378397 -0.381345E-05  0.160E-02    8.79       1.2  T
   4    -50.7378400 -0.305631E-06  0.467E-03    8.79       4.2  T
   5    -50.7378400 -0.329843E-07  0.918E-04    8.79      21.4  T
   6    -50.7378400 -0.151181E-08  0.614E-04    8.79      31.9  T
speedup  1.09
cpu  time for SCC    0.01 s
wall time for SCC    0.01 s
speedup  1.03
cpu  time for grad    0.01 s
wall time for grad    0.01 s
 E :    -50.45606372  G :  0.008525    pred/act E change: -0.470D-04 -0.827D-04
Maxdispl :   0.0981   ||displ|| :   0.1918   Lambda : -0.155D-03
Largest |displ|/coords:  0.0981 (   6)  0.0582 (  10)  0.0506 (  12)
................................................................................
.............................. CYCLE   41 ......................................
................................................................................
   1    -50.7383075 -0.507383E+02  0.147E-01    8.78       0.0  T
   2    -50.7383116 -0.406443E-05  0.109E-01    8.78       1.0  T
   3    -50.7383164 -0.476845E-05  0.170E-02    8.77       1.2  T
   4    -50.7383166 -0.228455E-06  0.248E-03    8.77       7.9  T
   5    -50.7383166 -0.178883E-07  0.115E-03    8.77      17.1  T
speedup  1.06
cpu  time for SCC    0.00 s
wall time for SCC    0.00 s
speedup  1.01
cpu  time for grad    0.01 s
wall time for grad    0.01 s
 E :    -50.45617560  G :  0.008639    pred/act E change: -0.568D-04 -0.112D-03
Maxdispl :   0.0916   ||displ|| :   0.1909   Lambda : -0.163D-03
Largest |displ|/coords:  0.0916 (   6)  0.0604 (  12)  0.0535 (  13)
................................................................................
.............................. CYCLE   42 ......................................
................................................................................
   1    -50.7378073 -0.507378E+02  0.144E-01    8.76       0.0  T
   2    -50.7378115 -0.419149E-05  0.107E-01    8.76       1.0  T
   3    -50.7378165 -0.493606E-05  0.166E-02    8.76       1.2  T
   4    -50.7378167 -0.256856E-06  0.237E-03    8.76       8.3  T
   5    -50.7378167 -0.145302E-07  0.136E-03    8.76      14.5  T
speedup  1.04
cpu  time for SCC    0.00 s
wall time for SCC    0.00 s
speedup  1.00
cpu  time for grad    0.01 s
wall time for grad    0.01 s
 E :    -50.45629021  G :  0.007602    pred/act E change: -0.803D-04 -0.115D-03
Maxdispl :   0.0986   ||displ|| :   0.1800   Lambda : -0.180D-03
Largest |displ|/coords:  0.0986 (   6)  0.0549 (  13)  0.0519 (  12)
................................................................................
.............................. CYCLE   43 ......................................
................................................................................
   1    -50.7399578 -0.507400E+02  0.130E-01    8.79       0.0  T
   2    -50.7399614 -0.355598E-05  0.965E-02    8.80       1.0  T
   3    -50.7399652 -0.384408E-05  0.148E-02    8.80       1.3  T
   4    -50.7399655 -0.253452E-06  0.471E-03    8.80       4.2  T
   5    -50.7399655 -0.329176E-07  0.106E-03    8.80      18.4  T
   6    -50.7399655 -0.143586E-08  0.716E-04    8.80      27.4  T
speedup  0.91
cpu  time for SCC    0.01 s
wall time for SCC    0.01 s
speedup  1.02
cpu  time for grad    0.01 s
wall time for grad    0.01 s
 E :    -50.45639862  G :  0.007448    pred/act E change: -0.845D-04 -0.108D-03
Maxdispl :   0.1379   ||displ|| :   0.2858   Lambda : -0.176D-03
Largest |displ|/coords:  0.1379 (   6)  0.0984 (  13)  0.0888 (  12)
................................................................................
.............................. CYCLE   44 ......................................
................................................................................
   1    -50.7367911 -0.507368E+02  0.229E-01    8.72       0.0  T
   2    -50.7368022 -0.111560E-04  0.168E-01    8.72       1.0  T
   3    -50.7368126 -0.104002E-04  0.308E-02    8.72       1.0  T
   4    -50.7368136 -0.988968E-06  0.831E-03    8.73       2.4  T
   5    -50.7368137 -0.109838E-06  0.174E-03    8.72      11.2  T
   6    -50.7368137 -0.481300E-08  0.114E-03    8.72      17.2  T
speedup  1.07
cpu  time for SCC    0.01 s
wall time for SCC    0.01 s
speedup  1.02
cpu  time for grad    0.01 s
wall time for grad    0.01 s
 E :    -50.45645383  G :  0.011075    pred/act E change: -0.930D-04 -0.552D-04
Maxdispl :   0.0775   ||displ|| :   0.1423   Lambda : -0.330D-03
Largest |displ|/coords:  0.0775 (   3)  0.0440 (  24)  0.0417 (  22)
................................................................................
.............................. CYCLE   45 ......................................
................................................................................
   1    -50.7396543 -0.507397E+02  0.886E-02    8.87       0.0  T
   2    -50.7396584 -0.412322E-05  0.643E-02    8.87       1.0  T
   3    -50.7396606 -0.219719E-05  0.168E-02    8.87       1.2  T
   4    -50.7396610 -0.422586E-06  0.438E-03    8.87       4.5  T
   5    -50.7396610 -0.299989E-07  0.107E-03    8.87      18.4  T
   6    -50.7396610 -0.140959E-08  0.675E-04    8.87      29.1  T
speedup  1.07
cpu  time for SCC    0.01 s
wall time for SCC    0.01 s
speedup  1.01
cpu  time for grad    0.01 s
wall time for grad    0.01 s
 E :    -50.45650412  G :  0.013813    pred/act E change: -0.953D-04 -0.503D-04
Maxdispl :   0.0412   ||displ|| :   0.0893   Lambda : -0.246D-03
Largest |displ|/coords:  0.0412 (  12)  0.0365 (   6)  0.0286 (  14)
................................................................................
.............................. CYCLE   46 ......................................
................................................................................
   1    -50.7405094 -0.507405E+02  0.770E-02    8.84       0.0  T
   2    -50.7405120 -0.259166E-05  0.563E-02    8.83       1.0  T
   3    -50.7405135 -0.154876E-05  0.119E-02    8.83       1.6  T
   4    -50.7405138 -0.276343E-06  0.364E-03    8.83       5.4  T
   5    -50.7405138 -0.190337E-07  0.850E-04    8.83      23.1  T
   6    -50.7405138 -0.905274E-09  0.538E-04    8.83      36.5  T
speedup  0.86
cpu  time for SCC    0.00 s
wall time for SCC    0.01 s
speedup  0.99
cpu  time for grad    0.01 s
wall time for grad    0.01 s
 E :    -50.45663962  G :  0.006055    pred/act E change: -0.168D-03 -0.135D-03
Maxdispl :   0.0889   ||displ|| :   0.1403   Lambda : -0.958D-04
Largest |displ|/coords:  0.0889 (   6)  0.0397 (  10)  0.0341 (  13)
................................................................................
.............................. CYCLE   47 ......................................
................................................................................
   1    -50.7394111 -0.507394E+02  0.113E-01    8.81       0.0  T
   2    -50.7394137 -0.262504E-05  0.832E-02    8.81       1.0  T
   3    -50.7394160 -0.232308E-05  0.149E-02    8.81       1.3  T
   4    -50.7394163 -0.237556E-06  0.369E-03    8.81       5.3  T
   5    -50.7394163 -0.241022E-07  0.837E-04    8.81      23.4  T
   6    -50.7394163 -0.119737E-08  0.530E-04    8.81      37.0  T
speedup  0.98
cpu  time for SCC    0.01 s
wall time for SCC    0.01 s
speedup  0.98
cpu  time for grad    0.01 s
wall time for grad    0.01 s
 E :    -50.45669797  G :  0.005700    pred/act E change: -0.124D-03 -0.584D-04
Maxdispl :   0.0774   ||displ|| :   0.1305   Lambda : -0.737D-04
Largest |displ|/coords:  0.0774 (   6)  0.0376 (  14)  0.0332 (  12)
................................................................................
.............................. CYCLE   48 ......................................
................................................................................
   1    -50.7393412 -0.507393E+02  0.932E-02    8.80       0.0  T
   2    -50.7393432 -0.198297E-05  0.689E-02    8.80       1.0  T
   3    -50.7393447 -0.152651E-05  0.124E-02    8.80       1.6  T
   4    -50.7393449 -0.238256E-06  0.336E-03    8.80       5.8  T
   5    -50.7393449 -0.152648E-07  0.706E-04    8.80      27.8  T
   6    -50.7393449 -0.855728E-09  0.441E-04    8.80      44.4  T
speedup  1.03
cpu  time for SCC    0.01 s
wall time for SCC    0.01 s
speedup  0.99
cpu  time for grad    0.01 s
wall time for grad    0.01 s
 E :    -50.45675539  G :  0.004852    pred/act E change: -0.488D-04 -0.574D-04
Maxdispl :   0.0927   ||displ|| :   0.1794   Lambda : -0.115D-03
Largest |displ|/coords:  0.0927 (   6)  0.0560 (  10)  0.0539 (   3)
................................................................................
.............................. CYCLE   49 ......................................
................................................................................
   1    -50.7399115 -0.507399E+02  0.113E-01    8.84       0.0  T
   2    -50.7399161 -0.454542E-05  0.843E-02    8.84       1.0  T
   3    -50.7399184 -0.231364E-05  0.174E-02    8.83       1.1  T
   4    -50.7399191 -0.712693E-06  0.391E-03    8.84       5.0  T
   5    -50.7399191 -0.232570E-07  0.118E-03    8.84      16.7  T
   6    -50.7399191 -0.181571E-08  0.667E-04    8.84      29.4  T
speedup  1.07
cpu  time for SCC    0.01 s
wall time for SCC    0.01 s
speedup  1.01
cpu  time for grad    0.01 s
wall time for grad    0.01 s
 E :    -50.45682068  G :  0.004844    pred/act E change: -0.375D-04 -0.653D-04
Maxdispl :   0.1677   ||displ|| :   0.2961   Lambda : -0.954D-04
Largest |displ|/coords:  0.1677 (   6)  0.0907 (  12)  0.0846 (  14)
................................................................................
.............................. CYCLE   50 ......................................
................................................................................
   1    -50.7376884 -0.507377E+02  0.217E-01    8.78       0.0  T
   2    -50.7376962 -0.777764E-05  0.160E-01    8.78       1.0  T
   3    -50.7377047 -0.847432E-05  0.253E-02    8.78       1.0  T
   4    -50.7377052 -0.492823E-06  0.407E-03    8.78       4.8  T
   5    -50.7377052 -0.480747E-07  0.157E-03    8.78      12.5  T
   6    -50.7377052 -0.691853E-08  0.927E-04    8.78      21.2  T
speedup  0.89
cpu  time for SCC    0.00 s
wall time for SCC    0.01 s
speedup  1.01
cpu  time for grad    0.01 s
wall time for grad    0.01 s
 E :    -50.45681977  G :  0.007051    pred/act E change: -0.594D-04  0.908D-06
Maxdispl :   0.0697   ||displ|| :   0.1233   Lambda : -0.115D-03
Largest |displ|/coords:  0.0697 (   6)  0.0390 (  13)  0.0310 (  12)
................................................................................
.............................. CYCLE   51 ......................................
................................................................................
   1    -50.7399029 -0.507399E+02  0.105E-01    8.84       0.0  T
   2    -50.7399050 -0.216211E-05  0.759E-02    8.84       1.0  T
   3    -50.7399069 -0.186041E-05  0.143E-02    8.84       1.4  T
   4    -50.7399070 -0.145922E-06  0.326E-03    8.84       6.0  T
   5    -50.7399070 -0.218041E-07  0.624E-04    8.84      31.4  T
   6    -50.7399070 -0.778627E-09  0.386E-04    8.84      50.7  T
speedup  1.02
cpu  time for SCC    0.01 s
wall time for SCC    0.01 s
speedup  1.06
cpu  time for grad    0.01 s
wall time for grad    0.01 s
 E :    -50.45687397  G :  0.003353    pred/act E change: -0.519D-04 -0.542D-04
Maxdispl :   0.0344   ||displ|| :   0.0620   Lambda : -0.314D-04
Largest |displ|/coords:  0.0344 (  10)  0.0236 (  12)  0.0170 (   1)
................................................................................
.............................. CYCLE   52 ......................................
................................................................................
   1    -50.7395853 -0.507396E+02  0.476E-02    8.84       0.0  T
   2    -50.7395859 -0.573533E-06  0.356E-02    8.84       1.0  T
   3    -50.7395864 -0.459984E-06  0.569E-03    8.83       3.4  T
   4    -50.7395864 -0.745728E-07  0.148E-03    8.84      13.3  T
   5    -50.7395864 -0.413507E-08  0.493E-04    8.84      39.8  T
   6    -50.7395864 -0.301235E-09  0.288E-04    8.84      68.1  T
speedup  0.89
cpu  time for SCC    0.00 s
wall time for SCC    0.01 s
speedup  0.98
cpu  time for grad    0.01 s
wall time for grad    0.01 s
 E :    -50.45689298  G :  0.003685    pred/act E change: -0.582D-04 -0.190D-04
Maxdispl :   0.0568   ||displ|| :   0.1366   Lambda : -0.445D-04
Largest |displ|/coords:  0.0568 (   1)  0.0511 (   6)  0.0497 (  12)

generating ANC from model Hessian ...
 Shifting diagonal of input Hessian by   4.582062970647780E-003
 Lowest  eigenvalues of input Hessian
   -0.000000   -0.000000    0.000000    0.000000    0.000000    0.000000
    0.005000    0.005171    0.005961    0.006816    0.007180    0.008537
    0.008826    0.009217    0.010290    0.011104    0.011706    0.012601
 Highest eigenvalues
    1.391429    1.395901    1.460230    2.666879    3.233310    3.750262
 
cpu  time for ANC gen    0.03 s
wall time for ANC gen    0.03 s
................................................................................
.............................. CYCLE   53 ......................................
................................................................................
   1    -50.7395350 -0.507395E+02  0.827E-02    8.84       0.0  T
   2    -50.7395362 -0.122433E-05  0.620E-02    8.84       1.0  T
   3    -50.7395375 -0.120860E-05  0.841E-03    8.84       2.3  T
   4    -50.7395376 -0.128661E-06  0.232E-03    8.84       8.4  T
   5    -50.7395376 -0.823554E-08  0.676E-04    8.84      29.0  T
   6    -50.7395376 -0.661771E-09  0.423E-04    8.84      46.4  T
speedup  0.86
cpu  time for SCC    0.00 s
wall time for SCC    0.01 s
speedup  0.95
cpu  time for grad    0.01 s
wall time for grad    0.01 s
 E :    -50.45692572  G :  0.003185    pred/act E change:  0.000D+00 -0.327D-04
Maxdispl :   0.0225   ||displ|| :   0.0418   Lambda : -0.331D-04
Largest |displ|/coords:  0.0225 (   2)  0.0118 (   5)  0.0117 (   4)
................................................................................
.............................. CYCLE   54 ......................................
................................................................................
   1    -50.7398904 -0.507399E+02  0.307E-02    8.84       0.0  T
   2    -50.7398906 -0.216851E-06  0.232E-02    8.84       1.0  T
   3    -50.7398908 -0.198308E-06  0.275E-03    8.84       7.1  T
   4    -50.7398908 -0.260829E-07  0.943E-04    8.84      20.8  T
   5    -50.7398908 -0.131254E-08  0.270E-04    8.84      72.5  T
speedup  0.82
cpu  time for SCC    0.00 s
wall time for SCC    0.00 s
speedup  0.94
cpu  time for grad    0.01 s
wall time for grad    0.01 s
 E :    -50.45695079  G :  0.001829    pred/act E change:  0.000D+00 -0.251D-04
Maxdispl :   0.0514   ||displ|| :   0.1122   Lambda : -0.644D-04
Largest |displ|/coords:  0.0514 (   6)  0.0488 (   1)  0.0393 (   2)
................................................................................
.............................. CYCLE   55 ......................................
................................................................................
   1    -50.7404904 -0.507405E+02  0.795E-02    8.85       0.0  T
   2    -50.7404913 -0.903785E-06  0.598E-02    8.85       1.0  T
   3    -50.7404922 -0.914998E-06  0.603E-03    8.85       3.3  T
   4    -50.7404923 -0.861509E-07  0.196E-03    8.85      10.0  T
   5    -50.7404923 -0.537715E-08  0.598E-04    8.85      32.8  T
   6    -50.7404923 -0.520380E-09  0.365E-04    8.85      53.7  T
speedup  0.88
cpu  time for SCC    0.00 s
wall time for SCC    0.01 s
speedup  0.97
cpu  time for grad    0.01 s
wall time for grad    0.01 s
 E :    -50.45698254  G :  0.003006    pred/act E change: -0.166D-04 -0.317D-04
Maxdispl :   0.0490   ||displ|| :   0.0897   Lambda : -0.395D-04
Largest |displ|/coords:  0.0490 (   2)  0.0393 (   1)  0.0274 (  16)
................................................................................
.............................. CYCLE   56 ......................................
................................................................................
   1    -50.7404194 -0.507404E+02  0.575E-02    8.85       0.0  T
   2    -50.7404200 -0.573310E-06  0.433E-02    8.85       1.0  T
   3    -50.7404206 -0.649655E-06  0.495E-03    8.85       4.0  T
   4    -50.7404207 -0.407465E-07  0.115E-03    8.85      17.0  T
   5    -50.7404207 -0.317624E-08  0.488E-04    8.85      40.2  T
   6    -50.7404207 -0.442867E-09  0.263E-04    8.85      74.6  T
speedup  1.09
cpu  time for SCC    0.01 s
wall time for SCC    0.01 s
speedup  1.05
cpu  time for grad    0.01 s
wall time for grad    0.01 s
 E :    -50.45700634  G :  0.002871    pred/act E change: -0.326D-04 -0.238D-04
Maxdispl :   0.0529   ||displ|| :   0.1092   Lambda : -0.342D-04
Largest |displ|/coords:  0.0529 (   2)  0.0517 (   1)  0.0356 (  10)
................................................................................
.............................. CYCLE   57 ......................................
................................................................................
   1    -50.7400515 -0.507401E+02  0.601E-02    8.84       0.0  T
   2    -50.7400522 -0.697382E-06  0.448E-02    8.84       1.0  T
   3    -50.7400529 -0.702617E-06  0.651E-03    8.84       3.0  T
   4    -50.7400529 -0.619354E-07  0.162E-03    8.84      12.1  T
   5    -50.7400529 -0.553372E-08  0.555E-04    8.84      35.4  T
   6    -50.7400529 -0.461043E-09  0.331E-04    8.84      59.2  T
speedup  1.02
cpu  time for SCC    0.01 s
wall time for SCC    0.01 s
speedup  1.02
cpu  time for grad    0.01 s
wall time for grad    0.01 s
 E :    -50.45703281  G :  0.001855    pred/act E change: -0.199D-04 -0.265D-04
Maxdispl :   0.0958   ||displ|| :   0.1902   Lambda : -0.464D-04
Largest |displ|/coords:  0.0958 (   1)  0.0761 (   2)  0.0637 (  10)
................................................................................
.............................. CYCLE   58 ......................................
................................................................................
   1    -50.7395835 -0.507396E+02  0.955E-02    8.84       0.0  T
   2    -50.7395854 -0.196421E-05  0.705E-02    8.84       1.0  T
   3    -50.7395870 -0.159781E-05  0.121E-02    8.83       1.6  T
   4    -50.7395872 -0.213369E-06  0.317E-03    8.83       6.2  T
   5    -50.7395873 -0.183518E-07  0.875E-04    8.83      22.4  T
   6    -50.7395873 -0.107745E-08  0.545E-04    8.83      36.0  T
speedup  1.02
cpu  time for SCC    0.01 s
wall time for SCC    0.01 s
speedup  1.01
cpu  time for grad    0.01 s
wall time for grad    0.01 s
 E :    -50.45706287  G :  0.002915    pred/act E change: -0.173D-04 -0.301D-04
Maxdispl :   0.0646   ||displ|| :   0.1302   Lambda : -0.252D-04
Largest |displ|/coords:  0.0646 (   1)  0.0568 (  10)  0.0458 (   2)
................................................................................
.............................. CYCLE   59 ......................................
................................................................................
   1    -50.7394994 -0.507395E+02  0.651E-02    8.83       0.0  T
   2    -50.7395003 -0.897950E-06  0.477E-02    8.83       1.0  T
   3    -50.7395009 -0.652412E-06  0.894E-03    8.83       2.2  T
   4    -50.7395010 -0.107312E-06  0.241E-03    8.83       8.2  T
   5    -50.7395010 -0.911862E-08  0.555E-04    8.83      35.3  T
   6    -50.7395010 -0.400320E-09  0.371E-04    8.83      52.8  T
speedup  1.03
cpu  time for SCC    0.01 s
wall time for SCC    0.01 s
speedup  1.02
cpu  time for grad    0.01 s
wall time for grad    0.01 s
 E :    -50.45708251  G :  0.003251    pred/act E change: -0.240D-04 -0.196D-04
Maxdispl :   0.1192   ||displ|| :   0.2500   Lambda : -0.520D-04
Largest |displ|/coords:  0.1192 (   1)  0.1137 (  10)  0.0749 (   3)
................................................................................
.............................. CYCLE   60 ......................................
................................................................................
   1    -50.7395059 -0.507395E+02  0.122E-01    8.84       0.0  T
   2    -50.7395090 -0.315818E-05  0.889E-02    8.83       1.0  T
   3    -50.7395111 -0.204433E-05  0.169E-02    8.83       1.2  T
   4    -50.7395115 -0.393262E-06  0.475E-03    8.83       4.1  T
   5    -50.7395115 -0.302856E-07  0.990E-04    8.83      19.8  T
   6    -50.7395115 -0.128311E-08  0.652E-04    8.83      30.1  T
speedup  1.03
cpu  time for SCC    0.01 s
wall time for SCC    0.01 s
speedup  1.02
cpu  time for grad    0.01 s
wall time for grad    0.01 s
 E :    -50.45711623  G :  0.003604    pred/act E change: -0.128D-04 -0.337D-04
Maxdispl :   0.0885   ||displ|| :   0.1675   Lambda : -0.440D-04
Largest |displ|/coords:  0.0885 (  10)  0.0726 (   1)  0.0584 (   3)
................................................................................
.............................. CYCLE   61 ......................................
................................................................................
   1    -50.7399409 -0.507399E+02  0.892E-02    8.85       0.0  T
   2    -50.7399429 -0.194490E-05  0.650E-02    8.84       1.0  T
   3    -50.7399439 -0.108965E-05  0.127E-02    8.84       1.5  T
   4    -50.7399442 -0.262899E-06  0.382E-03    8.84       5.1  T
   5    -50.7399442 -0.168806E-07  0.765E-04    8.84      25.6  T
   6    -50.7399442 -0.946621E-09  0.508E-04    8.84      38.6  T
speedup  1.09
cpu  time for SCC    0.01 s
wall time for SCC    0.01 s
speedup  0.98
cpu  time for grad    0.01 s
wall time for grad    0.01 s
 E :    -50.45714700  G :  0.003621    pred/act E change: -0.276D-04 -0.308D-04
Maxdispl :   0.1228   ||displ|| :   0.2281   Lambda : -0.512D-04
Largest |displ|/coords:  0.1228 (  10)  0.0944 (   1)  0.0695 (   3)
................................................................................
.............................. CYCLE   62 ......................................
................................................................................
   1    -50.7398286 -0.507398E+02  0.126E-01    8.85       0.0  T
   2    -50.7398319 -0.337143E-05  0.925E-02    8.85       1.0  T
   3    -50.7398342 -0.225619E-05  0.165E-02    8.85       1.2  T
   4    -50.7398346 -0.426653E-06  0.500E-03    8.85       3.9  T
   5    -50.7398347 -0.310176E-07  0.104E-03    8.85      18.8  T
   6    -50.7398347 -0.178091E-08  0.680E-04    8.85      28.8  T
   7    -50.7398347 -0.764338E-09  0.236E-04    8.85      83.1  T
speedup  1.08
cpu  time for SCC    0.01 s
wall time for SCC    0.01 s
speedup  1.04
cpu  time for grad    0.02 s
wall time for grad    0.02 s
 E :    -50.45718625  G :  0.004388    pred/act E change: -0.226D-04 -0.393D-04
Maxdispl :   0.1344   ||displ|| :   0.2535   Lambda : -0.793D-04
Largest |displ|/coords:  0.1344 (  10)  0.0860 (   3)  0.0859 (   1)
................................................................................
.............................. CYCLE   63 ......................................
................................................................................
   1    -50.7406388 -0.507406E+02  0.143E-01    8.88       0.0  T
   2    -50.7406442 -0.539496E-05  0.105E-01    8.88       1.0  T
   3    -50.7406474 -0.323119E-05  0.193E-02    8.88       1.0  T
   4    -50.7406482 -0.715307E-06  0.643E-03    8.88       3.1  T
   5    -50.7406482 -0.429055E-07  0.130E-03    8.88      15.1  T
   6    -50.7406482 -0.292025E-08  0.806E-04    8.88      24.3  T
speedup  1.03
cpu  time for SCC    0.01 s
wall time for SCC    0.01 s
speedup  0.99
cpu  time for grad    0.01 s
wall time for grad    0.01 s
 E :    -50.45723866  G :  0.004006    pred/act E change: -0.269D-04 -0.524D-04
Maxdispl :   0.2327   ||displ|| :   0.4491   Lambda : -0.802D-04
Largest |displ|/coords:  0.2327 (  10)  0.1849 (   1)  0.1298 (   6)
................................................................................
.............................. CYCLE   64 ......................................
................................................................................
   1    -50.7374333 -0.507374E+02  0.260E-01    8.80       0.0  T
   2    -50.7374463 -0.130008E-04  0.191E-01    8.80       1.0  T
   3    -50.7374572 -0.108663E-04  0.327E-02    8.80       1.0  T
   4    -50.7374585 -0.135827E-05  0.968E-03    8.80       2.0  T
   5    -50.7374587 -0.144764E-06  0.214E-03    8.80       9.1  T
   6    -50.7374587 -0.609382E-08  0.144E-03    8.80      13.7  T
speedup  1.00
cpu  time for SCC    0.01 s
wall time for SCC    0.01 s
speedup  0.97
cpu  time for grad    0.01 s
wall time for grad    0.01 s
 E :    -50.45722552  G :  0.010426    pred/act E change: -0.422D-04  0.131D-04
Maxdispl :   0.0734   ||displ|| :   0.1658   Lambda : -0.192D-03
Largest |displ|/coords:  0.0734 (   1)  0.0654 (  10)  0.0548 (   2)
[...]
.............................. CYCLE  149 ......................................
................................................................................
   1    -50.7515707 -0.507516E+02  0.155E-02    9.31       0.0  T
   2    -50.7515708 -0.538169E-07  0.117E-02    9.31       1.7  T
   3    -50.7515708 -0.568276E-07  0.127E-03    9.31      15.4  T
   4    -50.7515708 -0.477625E-08  0.477E-04    9.31      41.1  T
   5    -50.7515708 -0.313527E-09  0.159E-04    9.31     123.0  T
speedup  1.02
cpu  time for SCC    0.00 s
wall time for SCC    0.00 s
speedup  0.99
cpu  time for grad    0.01 s
wall time for grad    0.01 s
 E :    -50.46845538  G :  0.000735    pred/act E change: -0.198D-05 -0.389D-05
Maxdispl :   0.0304   ||displ|| :   0.0417   Lambda : -0.469D-05
Largest |displ|/coords:  0.0304 (   2)  0.0173 (   1)  0.0155 (  12)
................................................................................
.............................. CYCLE  150 ......................................
................................................................................
   1    -50.7514979 -0.507515E+02  0.205E-02    9.30       0.0  T
   2    -50.7514980 -0.700576E-07  0.154E-02    9.30       1.3  T
   3    -50.7514981 -0.693743E-07  0.152E-03    9.30      12.9  T
   4    -50.7514981 -0.685778E-08  0.603E-04    9.30      32.5  T
   5    -50.7514981 -0.425644E-09  0.163E-04    9.30     120.6  T
speedup  1.02
cpu  time for SCC    0.00 s
wall time for SCC    0.00 s
speedup  1.01
cpu  time for grad    0.01 s
wall time for grad    0.01 s
 E :    -50.46845841  G :  0.001049    pred/act E change: -0.282D-05 -0.303D-05
Maxdispl :   0.0517   ||displ|| :   0.0675   Lambda : -0.661D-05
Largest |displ|/coords:  0.0517 (   2)  0.0262 (  12)  0.0198 (   1)
................................................................................
.............................. CYCLE  151 ......................................
................................................................................
   1    -50.7513710 -0.507514E+02  0.327E-02    9.30       0.0  T
   2    -50.7513711 -0.168322E-06  0.247E-02    9.30       1.0  T
   3    -50.7513713 -0.175349E-06  0.234E-03    9.30       8.4  T
   4    -50.7513713 -0.153382E-07  0.915E-04    9.30      21.4  T
   5    -50.7513713 -0.873470E-09  0.263E-04    9.30      74.6  T
speedup  0.98
cpu  time for SCC    0.00 s
wall time for SCC    0.01 s
speedup  0.99
cpu  time for grad    0.01 s
wall time for grad    0.01 s
 E :    -50.46846091  G :  0.001240    pred/act E change: -0.235D-05 -0.250D-05
Maxdispl :   0.0096   ||displ|| :   0.0160   Lambda : -0.386D-05
Largest |displ|/coords:  0.0096 (   2)  0.0060 (   4)  0.0045 (  14)
................................................................................
.............................. CYCLE  152 ......................................
................................................................................
   1    -50.7514386 -0.507514E+02  0.782E-03    9.30       0.0  T
   2    -50.7514387 -0.177291E-07  0.585E-03    9.30       3.3  T
   3    -50.7514387 -0.995150E-08  0.907E-04    9.30      21.6  T
   4    -50.7514387 -0.280527E-08  0.274E-04    9.30      71.5  T
speedup  1.00
cpu  time for SCC    0.00 s
wall time for SCC    0.00 s
speedup  0.99
cpu  time for grad    0.01 s
wall time for grad    0.01 s
 E :    -50.46846366  G :  0.000845    pred/act E change: -0.332D-05 -0.276D-05
Maxdispl :   0.0121   ||displ|| :   0.0209   Lambda : -0.304D-05
Largest |displ|/coords:  0.0121 (   2)  0.0068 (   4)  0.0058 (  10)
................................................................................
.............................. CYCLE  153 ......................................
................................................................................
   1    -50.7515536 -0.507516E+02  0.954E-03    9.30       0.0  T
   2    -50.7515536 -0.319334E-07  0.709E-03    9.30       2.8  T
   3    -50.7515536 -0.163517E-07  0.127E-03    9.31      15.4  T
   4    -50.7515536 -0.445775E-08  0.389E-04    9.30      50.4  T
   5    -50.7515536 -0.232248E-09  0.832E-05    9.30     235.8  T
speedup  1.06
cpu  time for SCC    0.00 s
wall time for SCC    0.00 s
speedup  1.03
cpu  time for grad    0.01 s
wall time for grad    0.01 s
 E :    -50.46846561  G :  0.000484    pred/act E change: -0.193D-05 -0.195D-05
Maxdispl :   0.0145   ||displ|| :   0.0221   Lambda : -0.157D-05
Largest |displ|/coords:  0.0145 (   2)  0.0062 (  37)  0.0061 (   4)
................................................................................
.............................. CYCLE  154 ......................................
................................................................................
   1    -50.7516016 -0.507516E+02  0.108E-02    9.31       0.0  T
   2    -50.7516016 -0.273214E-07  0.809E-03    9.31       2.4  T
   3    -50.7516016 -0.222670E-07  0.121E-03    9.31      16.2  T
   4    -50.7516016 -0.344556E-08  0.422E-04    9.31      46.5  T
   5    -50.7516016 -0.192124E-09  0.858E-05    9.31     228.6  T
speedup  1.06
cpu  time for SCC    0.00 s
wall time for SCC    0.00 s
speedup  1.03
cpu  time for grad    0.01 s
wall time for grad    0.01 s
 E :    -50.46846650  G :  0.000438    pred/act E change: -0.152D-05 -0.892D-06
Maxdispl :   0.0097   ||displ|| :   0.0171   Lambda : -0.108D-05
Largest |displ|/coords:  0.0097 (   2)  0.0052 (  12)  0.0052 (  37)
................................................................................
.............................. CYCLE  155 ......................................
................................................................................
   1    -50.7516081 -0.507516E+02  0.914E-03    9.31       0.0  T
   2    -50.7516081 -0.141199E-07  0.685E-03    9.31       2.9  T
   3    -50.7516081 -0.129177E-07  0.868E-04    9.31      22.6  T
   4    -50.7516081 -0.151093E-08  0.301E-04    9.31      65.2  T
speedup  1.05
cpu  time for SCC    0.00 s
wall time for SCC    0.00 s
speedup  1.02
cpu  time for grad    0.01 s
wall time for grad    0.01 s
 E :    -50.46846715  G :  0.000408    pred/act E change: -0.784D-06 -0.647D-06
Maxdispl :   0.0041   ||displ|| :   0.0076   Lambda : -0.524D-06
Largest |displ|/coords:  0.0041 (   1)  0.0026 (  13)  0.0022 (   4)
................................................................................
.............................. CYCLE  156 ......................................
................................................................................
   1    -50.7515872 -0.507516E+02  0.476E-03    9.31       0.0  T
   2    -50.7515872 -0.510049E-08  0.354E-03    9.31       5.5  T
   3    -50.7515872 -0.365311E-08  0.501E-04    9.31      39.1  T
   4    -50.7515872 -0.677190E-09  0.156E-04    9.31     125.3  T
speedup  1.03
cpu  time for SCC    0.00 s
wall time for SCC    0.00 s
speedup  0.99
cpu  time for grad    0.01 s
wall time for grad    0.01 s
 E :    -50.46846751  G :  0.000281    pred/act E change: -0.540D-06 -0.358D-06
Maxdispl :   0.0047   ||displ|| :   0.0071   Lambda : -0.311D-06
Largest |displ|/coords:  0.0047 (   1)  0.0022 (   4)  0.0020 (  10)
................................................................................
.............................. CYCLE  157 ......................................
................................................................................
   1    -50.7515623 -0.507516E+02  0.438E-03    9.31       0.0  T
   2    -50.7515623 -0.456826E-08  0.325E-03    9.31       6.0  T
   3    -50.7515623 -0.262253E-08  0.465E-04    9.31      42.1  T
   4    -50.7515623 -0.701689E-09  0.142E-04    9.31     137.8  T
speedup  1.05
cpu  time for SCC    0.00 s
wall time for SCC    0.00 s
speedup  1.02
cpu  time for grad    0.01 s
wall time for grad    0.01 s
 E :    -50.46846769  G :  0.000196    pred/act E change: -0.262D-06 -0.177D-06
Maxdispl :   0.0019   ||displ|| :   0.0039   Lambda : -0.104D-06
Largest |displ|/coords:  0.0019 (   1)  0.0016 (   5)  0.0012 (   3)
................................................................................
.............................. CYCLE  158 ......................................
................................................................................
   1    -50.7515541 -0.507516E+02  0.248E-03    9.31       0.0  T
   2    -50.7515541 -0.116228E-08  0.187E-03    9.31      10.5  T
   3    -50.7515541 -0.116155E-08  0.212E-04    9.31      92.4  T
   4    -50.7515541 -0.129930E-09  0.850E-05    9.31     230.6  T
speedup  0.98
cpu  time for SCC    0.00 s
wall time for SCC    0.00 s
speedup  0.98
cpu  time for grad    0.01 s
wall time for grad    0.01 s
 E :    -50.46846776  G :  0.000128    pred/act E change: -0.156D-06 -0.705D-07
Maxdispl :   0.0014   ||displ|| :   0.0028   Lambda : -0.485D-07
Largest |displ|/coords:  0.0014 (   5)  0.0013 (   1)  0.0009 (  10)

   *** GEOMETRY OPTIMIZATION CONVERGED AFTER 158 ITERATIONS ***

------------------------------------------------------------------------
 total energy gain (kcal):     -0.0120
------------------------------------------------------------------------
================
 final structure:
================
$coord
       -2.90528656223396       -1.56318641227921        0.97093457272633      S 
       -1.73441150507734        0.16658675604927        2.84001646812913      O 
       -3.74243102170890       -3.87903290708129        2.11956675822187      O 
       -5.22973602760484       -0.13382934762081       -0.13742591746905      O 
       -1.12999693842188       -1.99534603494258       -1.09254325388723      O 
        0.60866603464938       -6.15844632706197       -0.42993610279750      H 
       -4.53352272658570        1.28432441329595       -1.13033358917735      H 
        0.66820394853947       -6.12972674431240        1.38670541024381      O 
       -1.05113478545058       -5.60214475456144        1.87121215629779      H 
       -3.21107297953977        3.83801421137755       -2.47738772126481      O 
       -4.45404478094426        5.15622495048461       -2.46710918576573      H 
        4.32318875193636        1.66107570132716       -0.88024230740337      O 
        5.94245764275564        1.90763547318104       -1.65093775857275      H 
        0.94892690549631        1.00774501520415       -4.38817681781813      O 
        0.11722537999785       -0.32333457386583       -3.38974444657478      H 
       -0.30565644564596        2.32641386114283       -4.47894023348374      H 
        3.09670299619132        1.43052017136258       -2.30974977801957      H 
        0.12312716011205        4.46187815783754        1.10563187986022      O 
       -0.62484708619244        3.02561920418814        2.01279153808260      H 
        1.76672926938480        3.88538244173928        0.55236512467401      H 
       -1.93647025821129        4.29516940461318       -1.16355895276624      H 
        2.72730033262679       -1.74093698769410        2.64883802171087      N 
        3.57896638666002       -0.69691816477585        1.21214515633017      H 
        3.80886307127451       -1.77340645235035        4.23188473908430      H 
        0.92882221975498       -0.85806860734674        2.98622555627904      H 
        2.21943099934450       -3.59221242901321        2.05776864556294      H 
$end
 
 Bond Distances (Angstroems)
 ---------------------------
S1-O2=1.4833         S1-O3=1.4379         S1-O4=1.5586         S1-O5=1.4585         O2-S1=1.4833         O3-S1=1.4379         
O4-S1=1.5586         O4-H7=0.9874         O5-S1=1.4585         H6-O8=0.9620         H7-O4=0.9874         O8-H6=0.9620         
O8-H9=0.9856         H9-O8=0.9856         O10-H11=0.9588       O10-H21=0.9984       H11-O10=0.9588       O12-H13=0.9579       
O12-H17=1.0042       H13-O12=0.9579       O14-H15=0.9844       O14-H16=0.9644       H15-O14=0.9844       H16-O14=0.9644       
H17-O12=1.0042       O18-H19=0.9822       O18-H20=0.9671       H19-O18=0.9822       H20-O18=0.9671       H21-O10=0.9984       
N22-H23=1.0423       N22-H24=1.0147       N22-H25=1.0751       N22-H26=1.0629       H23-N22=1.0423       H24-N22=1.0147       
H25-N22=1.0751       H26-N22=1.0629       
 N  H  Rav=1.0488 sigma=0.0229  Rmin=1.0147  Rmax=1.0751     4
 O  H  Rav=0.9775 sigma=0.0155  Rmin=0.9579  Rmax=1.0042    11
 S  O  Rav=1.4846 sigma=0.0457  Rmin=1.4379  Rmax=1.5586     4
 
 selected bond angles (degree)
 --------------------
O3-S1-O2=111.89                O4-S1-O2=106.33                O4-S1-O3=109.24                O5-S1-O2=109.08                
O5-S1-O3=112.41                O5-S1-O4=107.62                H7-O4-S1=105.94                H9-O8-H6=103.54                
H21-O10-H11=106.45             
 
 selected dihedral angles (degree)
 ---------------------------------
H7-O4-S1-O2= 67.89            H7-O4-S1-O3=188.80            H7-O4-S1-O5=311.12            
 
 CMA Distance (Angstroems)
 ---------------------------
R(CMA):  2.4174

========================================================================
 FINAL SINGLEPOINT CALCULATION ON OPTIMIZED GEOMETRY
========================================================================

 Ncao       : 65
 Nao        : 64
 Nshell     : 38
 Nel        : 80
 T(el)      :   300.0
 intcut     :    25.0
 scfconv/Eh :  0.100E-05
   qconv/e  :  0.100E-03
 intneglect :  0.100E-07
 broydamp   :      0.250
 iter      E             dE          RMSdq      gap      omega  full diag
   1    -50.7515541 -0.507516E+02  0.219E-05    9.31       0.0  T
   2    -50.7515541 -0.589750E-12  0.146E-05    9.31    1346.7  T
   3    -50.7515541 -0.170530E-12  0.372E-06    9.31    5264.9  T
speedup  0.97
cpu  time for SCC    0.00 s
wall time for SCC    0.00 s

   *** convergence criteria satisfied after 3 iterations ***

          eigenvalues
 #    :          28         29         30         31         32         33         34         35
 occ. :        2.000      2.000      2.000      2.000      2.000      2.000      2.000      2.000
 eps  :       -13.576    -12.928    -12.658    -12.547    -12.346    -12.206    -12.131    -11.995
 #    :          36         37         38         39         40         41         42         43
 occ. :        2.000      2.000      2.000      2.000      2.000      0.000      0.000      0.000
 eps  :       -11.964    -11.907    -11.789    -11.682    -11.449     -2.142     -0.916      0.091
 #    :          44         45         46         47         48         49         50         51
 occ. :        0.000      0.000      0.000      0.000      0.000      0.000      0.000      0.000
 eps  :         0.554      1.123      1.386      1.983      2.724      3.484      4.458      5.353


   #   Z            q   n(s)   n(p)   n(d)      C6AA      α(0)
   1  16 S      1.675  1.587  1.786  0.952    89.345    15.909
   2   8 O     -0.765  1.779  4.986  0.000    30.523     7.408
   3   8 O     -0.712  1.767  4.944  0.000    29.024     7.223
   4   8 O     -0.609  1.758  4.852  0.000    25.376     6.800
   5   8 O     -0.771  1.766  5.006  0.000    30.728     7.432
   6   1 H      0.305  0.695  0.000  0.000     0.706     1.320
   7   1 H      0.375  0.625  0.000  0.000     0.528     1.139
   8   8 O     -0.596  1.739  4.856  0.000    25.085     6.760
   9   1 H      0.328  0.672  0.000  0.000     0.643     1.259
  10   8 O     -0.632  1.758  4.874  0.000    25.959     6.876
  11   1 H      0.291  0.709  0.000  0.000     0.749     1.359
  12   8 O     -0.636  1.750  4.886  0.000    26.066     6.891
  13   1 H      0.283  0.717  0.000  0.000     0.774     1.382
  14   8 O     -0.622  1.754  4.867  0.000    25.710     6.843
  15   1 H      0.334  0.666  0.000  0.000     0.628     1.244
  16   1 H      0.310  0.690  0.000  0.000     0.691     1.306
  17   1 H      0.345  0.655  0.000  0.000     0.600     1.217
  18   8 O     -0.629  1.759  4.870  0.000    25.883     6.866
  19   1 H      0.324  0.676  0.000  0.000     0.653     1.270
  20   1 H      0.314  0.686  0.000  0.000     0.680     1.295
  21   1 H      0.341  0.659  0.000  0.000     0.609     1.227
  22   7 N     -0.354  1.276  4.078  0.000    29.104     8.012
  23   1 H      0.285  0.715  0.000  0.000     0.758     1.364
  24   1 H      0.230  0.770  0.000  0.000     0.963     1.538
  25   1 H      0.293  0.707  0.000  0.000     0.733     1.341
  26   1 H      0.290  0.710  0.000  0.000     0.746     1.353

 Mol. C6AA /au·bohr⁶  :       5455.848614
 Mol. C8AA /au·bohr⁸  :     118134.513124
 Mol. α(0) /au        :        106.634089

 
 Wiberg/Mayer (AO) data. WBOs > 0.1 written file <wbo>
 largest (>0.05) Wiberg bond orders for each atom
           total WBO             WBO to atom ...
     1  S   4.854    O    3 1.380    O    5 1.291    O    2 1.182    O    4 0.958
     2  O   1.740    S    1 1.182    H   25 0.136    O    5 0.103    O    3 0.102    O    4 0.073    H   19 0.060    N   22 0.058
     3  O   1.759    S    1 1.380    O    5 0.106    O    2 0.102    O    4 0.068    H    9 0.059
     4  O   1.975    S    1 0.958    H    7 0.755    O    5 0.082    O    2 0.073    O    3 0.068
     5  O   1.679    S    1 1.291    O    3 0.106    O    2 0.103    O    4 0.082    H   15 0.062
     6  H   0.907    O    8 0.901
     7  H   0.859    O    4 0.755    O   10 0.087
     8  O   1.934    H    6 0.901    H    9 0.827    H   26 0.114    N   22 0.057
     9  H   0.892    O    8 0.827    O    3 0.059
    10  O   1.884    H   11 0.910    H   21 0.785    H    7 0.087
    11  H   0.915    O   10 0.910
    12  O   1.873    H   13 0.912    H   17 0.773    H   23 0.072
    13  H   0.920    O   12 0.912
    14  O   1.902    H   16 0.884    H   15 0.821    H   17 0.104
    15  H   0.888    O   14 0.821    O    5 0.062
    16  H   0.904    O   14 0.884
    17  H   0.881    O   12 0.773    O   14 0.104
    18  O   1.893    H   20 0.874    H   19 0.831    H   21 0.096
    19  H   0.895    O   18 0.831    O    2 0.060
    20  H   0.901    O   18 0.874
    21  H   0.883    O   10 0.785    O   18 0.096
    22  N   3.517    H   24 0.944    H   23 0.843    H   26 0.796    H   25 0.768    O    2 0.058    O    8 0.057
    23  H   0.919    N   22 0.843    O   12 0.072
    24  H   0.947    N   22 0.944
    25  H   0.914    N   22 0.768    O    2 0.136
    26  H   0.916    N   22 0.796    O    8 0.114
 MOs/occ written to file <molden.input>
 
molecular dipole:
                 x           y           z       tot (Debye)
 q only:        2.475       0.672       0.041
   full:        2.015       0.918      -0.133       5.639
molecular quadrupole (traceless):
                xx          xy          yy          xz          yz          zz
 q only:        4.691     -11.924      -3.707      10.920      -1.747      -0.984
  q+dip:        8.311     -11.391      -5.873      10.353      -0.951      -2.438
   full:        8.763     -11.725      -6.073      10.485      -1.297      -2.690

SCC energy    :     -50.7515541
rep           :       0.2827542
ES            :       0.2674057
AES           :      -0.0752981
AXC           :      -0.0089811
disp          :      -0.0204677
XB            :       0.0000000
fix           :       0.0000000
total E       :     -50.4684678
atomizationE  :       4.9987719     3136.78
(atE without considering molecular charge,
 total energy contains solvation terms)
H-L gap (eV)  :          9.3064
optimized geometry written to: xtbopt.xyz


------------------------------------------------------------------------
 * finished run on 2019/09/16 at 11:17:54.279     
------------------------------------------------------------------------
 total:
 * wall-time:     0 d,  0 h,  0 min,  3.693 sec
 *  cpu-time:     0 d,  0 h,  0 min,  3.641 sec
 * ratio c/w:     0.986 speedup
 SCF:
 * wall-time:     0 d,  0 h,  0 min,  0.142 sec
 *  cpu-time:     0 d,  0 h,  0 min,  0.139 sec
 * ratio c/w:     0.981 speedup
 ANC optimizer:
 * wall-time:     0 d,  0 h,  0 min,  3.514 sec
 *  cpu-time:     0 d,  0 h,  0 min,  3.479 sec
 * ratio c/w:     0.990 speedup

