      -----------------------------------------------------------      
     |                   =====================                   |     
     |                           x T B                           |     
     |                   =====================                   |     
     |                         S. Grimme                         |     
     |          Mulliken Center for Theoretical Chemistry        |     
     |                    University of Bonn                     |     
     |                 Version 6.0.1 (SAW181210)                 |     
      -----------------------------------------------------------      

   This program is distributed in the hope that it will be useful,
   but WITHOUT ANY WARRANTY; without even the implied warranty of
   MERCHANTABILITY or FITNESS FOR A PARTICULAR PURPOSE.
   
   FOR NON-COMMERCIAL, ACADEMIA USE ONLY.
   
   Cite this work as:
   S. Grimme, C. Bannwarth, P. Shushkov, J. Comput. Theory Chem., 2017,
   13, 1989-2009.
   C. Bannwarth, S. Ehlert and S. Grimme., ChemRxiv, 2018, preprint.
   http://doi.org/10.26434/chemrxiv.7246238.v1
   
   for sTDA-xTB:
   S. Grimme and C. Bannwarth, J. Chem. Phys., 2016, 145, 054103.
   
   in the mass-spec context:
   V. Asgeirsson, C. Bauer and S. Grimme, Chem. Sci., 2017, 8, 4879.
   
   if GBSA is used:
   P. Shushkov, F. März and S. Grimme, unpublished.
   
   for ANC optimizer:
   S. Grimme, unpublished.
   Rational Function algorithm used in ANCopt:
   F. Eckert, P. Pulay, H.-J. Werner, J. Comput. Chem., 1997, 18, 1473.
   
   with help from (in alphabetical order)
   C. Bannwarth, F. Bohle, G. Brandenburg, E. Caldeweyher, M. Checinski,
   S. Dohm, S. Ehlert, S. Ehrlich, F. März, H. Neugebauer, J. Pisarek,
   P. Pracht, P. Shushkov, and S. Spicher.
   
 * started run on 2019/09/16 at 11:11:52.430     
========================================================================
 # omp threads = 1
========================================================================
number of atoms            : 23
number of electrons        : 72
charge                     : 0
spin                       : .0
first test random number   : .6665

########################################################################
# WARNING! Please study the warnings concerning your input carefully
#  - XTBPATH is not set, using XTBHOME instead
#  - the use of '-opt' is discouraged, please use '--opt' next time
#  - the use of '-chrg' is discouraged, please use '--chrg' next time
#  - the use of '-uhf' is discouraged, please use '--uhf' next time
########################################################################

           ------------------------------------------------- 
          |                 G F N 2 - x T B                 |
          | Geometry, Frequencies, Noncovalent interactions |
          |            JCTC 2018 parametrisation            |
           ------------------------------------------------- 
      method parameters     
 k(s)        :  1.8500
 k(p)        :  2.2300
 k(d)        :  2.2300
 k(f)        :  2.0000
 kEN (H0ij)  : -2.0000
 D4 a1       :  0.5200
 D4 a2       :  5.0000
 D4 s6       :  1.0000
 D4 s8       :  2.7000
 D4 s9       :  5.0000
 alphaj      :  2.0000


            Z     q(EN)     CN     RAES       Cart. coordinates
     1  S   6.0    0.60    4.50    4.56    -1.15455     3.43283    -0.26714
     2  O   6.0   -0.31    1.18    1.80     1.11339     3.47505    -1.93532
     3  O   6.0   -0.33    1.23    1.80    -0.60455     1.89406     2.02585
     4  O   6.0   -0.27    2.11    1.84    -3.29356     2.31494    -1.64099
     5  O   6.0   -0.25    2.08    1.84    -1.79489     6.02677     0.49044
     6  H   1.0    0.14    1.22    1.47    -3.47097     6.42700    -0.07673
     7  H   1.0    0.16    1.28    1.49    -2.87608     0.62038    -2.13627
     8  O   6.0   -0.30    2.04    1.83    -2.02592    -2.40358    -2.87896
     9  H   1.0    0.16    1.05    1.44    -0.34263    -2.81932    -2.32371
    10  H   1.0    0.15    0.97    1.43    -2.45908    -3.68149    -4.10123
    11  O   6.0   -0.30    2.02    1.83     3.59443    -0.76274     2.95680
    12  H   1.0    0.15    0.97    1.43     3.99435    -0.66880     4.73045
    13  H   1.0    0.17    1.05    1.44     2.05070     0.18225     2.76063
    14  O   6.0   -0.27    1.98    1.82     5.50253     0.85310    -1.73687
    15  H   1.0    0.18    1.02    1.43     4.14892     2.00769    -2.12319
    16  H   1.0    0.16    1.00    1.43     5.33684     0.49433     0.04034
    17  O   6.0   -0.29    2.04    1.83     2.62766    -3.36337    -1.38944
    18  H   1.0    0.16    1.00    1.43     3.82556    -2.31433    -2.27215
    19  H   1.0    0.16    1.01    1.43     2.91319    -3.03710     0.37879
    20  N   5.0   -0.20    2.92    1.92    -4.74782    -1.87500     2.30994
    21  H   1.0    0.10    0.99    1.43    -4.89730    -3.26526     3.63504
    22  H   1.0    0.12    1.01    1.43    -3.25912    -0.78407     2.86194
    23  H   1.0    0.11    1.00    1.43    -4.18108    -2.75336     0.69181

  Z AO/shell   Hii/eV     exponent
  1     Wed Apr 25 08:07:45 CEST 2018   EN: 2.200 GM2: 0.406  GM3: 0.0800  RAES: 1.40
     1s    -10.707211    1.230000
  7     Wed Apr 25 08:07:45 CEST 2018   EN: 3.040 GM2: 0.461  GM3:-0.0640  RAES: 1.90
     2s    -16.686243    2.339881
     2p    -12.523956    2.014332
  8     Wed Apr 25 08:07:45 CEST 2018   EN: 3.440 GM2: 0.452  GM3:-0.0517  RAES: 1.80
     2s    -20.229985    2.439742
     2p    -15.503117    2.137023
 16     Tue Apr 24 11:44:34 CEST 2018   EN: 2.580 GM2: 0.340  GM3:-0.0502  RAES: 3.10
     3s    -20.029654    1.981333
     3p    -11.377694    2.025643
     3d     -0.420282    1.702555
 no old-style atom pair restraining (fixing) potential

molecular fragmentation (1/2 indicates fragments):
11111112222222222222222
# atoms in fragment 1/2:     7    16
 fragment masses (1/2) :       98.07       89.09
CMA distance (Bohr)    :   5.431
constraining FC (au)   :  0.0500
           ------------------------------------------------- 
          |        Self-Consistent Charge Iterations        |
           ------------------------------------------------- 

 Ncao       : 59
 Nao        : 58
 Nshell     : 34
 Nel        : 72
 T(el)      :   300.0
 intcut     :    25.0
 scfconv/Eh :  0.100E-05
   qconv/e  :  0.100E-03
 intneglect :  0.100E-07
 broydamp   :      0.250
 iter      E             dE          RMSdq      gap      omega  full diag
   1    -45.4993097 -0.454993E+02  0.717E+00   10.18       0.0  T
   2    -45.5560118 -0.567020E-01  0.517E+00    8.94       1.0  T
   3    -45.5924570 -0.364453E-01  0.157E+00    6.63       1.0  T
   4    -45.5990673 -0.661031E-02  0.597E-01    6.96       1.0  T
   5    -45.5996481 -0.580777E-03  0.386E-01    6.81       1.0  T
   6    -45.6003300 -0.681920E-03  0.169E-01    6.82       1.0  T
   7    -45.6004926 -0.162599E-03  0.691E-02    6.82       1.0  T
   8    -45.6005179 -0.252660E-04  0.387E-02    6.82       1.0  T
   9    -45.6005265 -0.860785E-05  0.150E-02    6.84       1.4  T
  10    -45.6005279 -0.138180E-05  0.301E-03    6.85       6.9  T
  11    -45.6005279 -0.282065E-07  0.140E-03    6.84      14.9  T
  12    -45.6005279 -0.696995E-08  0.599E-04    6.84      34.8  T
  13    -45.6005279 -0.140161E-08  0.165E-04    6.84     126.0  T
speedup  0.96
cpu  time for SCC    0.01 s
wall time for SCC    0.01 s

   *** convergence criteria satisfied after 13 iterations ***

          eigenvalues
 #    :          24         25         26         27         28         29         30         31
 occ. :        2.000      2.000      2.000      2.000      2.000      2.000      2.000      2.000
 eps  :       -13.242    -13.222    -13.129    -13.070    -12.806    -12.574    -12.420    -12.243
 #    :          32         33         34         35         36         37         38         39
 occ. :        2.000      2.000      2.000      2.000      2.000      0.000      0.000      0.000
 eps  :       -12.126    -11.952    -11.520    -10.869    -10.100     -3.257     -2.117     -0.852
 #    :          40         41         42         43         44         45         46         47
 occ. :        0.000      0.000      0.000      0.000      0.000      0.000      0.000      0.000
 eps  :        -0.049      0.956      1.644      2.811      3.458      4.492      5.173      5.759


   #   Z            q   n(s)   n(p)   n(d)      C6AA      α(0)
   1  16 S      1.721  1.570  1.770  0.939    88.287    15.814
   2   8 O     -0.703  1.773  4.929  0.000    28.785     7.193
   3   8 O     -0.718  1.770  4.947  0.000    29.190     7.244
   4   8 O     -0.572  1.716  4.857  0.000    24.504     6.683
   5   8 O     -0.530  1.716  4.814  0.000    23.532     6.549
   6   1 H      0.385  0.615  0.000  0.000     0.505     1.112
   7   1 H      0.430  0.570  0.000  0.000     0.426     1.022
   8   8 O     -0.640  1.745  4.895  0.000    26.156     6.903
   9   1 H      0.343  0.657  0.000  0.000     0.605     1.222
  10   1 H      0.297  0.703  0.000  0.000     0.729     1.341
  11   8 O     -0.609  1.737  4.872  0.000    25.400     6.802
  12   1 H      0.285  0.715  0.000  0.000     0.769     1.377
  13   1 H      0.327  0.673  0.000  0.000     0.646     1.263
  14   8 O     -0.622  1.745  4.877  0.000    25.725     6.846
  15   1 H      0.308  0.692  0.000  0.000     0.697     1.311
  16   1 H      0.304  0.696  0.000  0.000     0.710     1.324
  17   8 O     -0.628  1.744  4.883  0.000    25.858     6.863
  18   1 H      0.321  0.679  0.000  0.000     0.662     1.278
  19   1 H      0.317  0.683  0.000  0.000     0.672     1.287
  20   7 N     -0.464  1.410  4.054  0.000    32.248     8.434
  21   1 H      0.137  0.863  0.000  0.000     1.495     1.915
  22   1 H      0.156  0.844  0.000  0.000     1.359     1.826
  23   1 H      0.154  0.846  0.000  0.000     1.372     1.835

 Mol. C6AA /au·bohr⁶  :       4513.838630
 Mol. C8AA /au·bohr⁸  :      98969.195895
 Mol. α(0) /au        :         97.442337

 
 Wiberg/Mayer (AO) data. WBOs > 0.1 written file <wbo>
 largest (>0.05) Wiberg bond orders for each atom
           total WBO             WBO to atom ...
     1  S   4.809    O    2 1.361    O    3 1.322    O    4 1.053    O    5 1.030
     2  O   1.715    S    1 1.361    O    3 0.137    O    4 0.091    O    5 0.076
     3  O   1.712    S    1 1.322    O    2 0.137    O    4 0.089    O    5 0.073
     4  O   2.034    S    1 1.053    H    7 0.723    O    2 0.091    O    3 0.089
     5  O   2.065    S    1 1.030    H    6 0.827    O    2 0.076    O    3 0.073
     6  H   0.851    O    5 0.827
     7  H   0.815    O    4 0.723    O    8 0.067
     8  O   1.848    H   10 0.903    H    9 0.807    H    7 0.067
     9  H   0.882    O    8 0.807    O   17 0.073
    10  H   0.911    O    8 0.903
    11  O   1.854    H   12 0.909    H   13 0.844
    12  H   0.919    O   11 0.909
    13  H   0.893    O   11 0.844
    14  O   1.842    H   16 0.880    H   15 0.873
    15  H   0.905    O   14 0.873
    16  H   0.908    O   14 0.880
    17  O   1.871    H   19 0.867    H   18 0.860    H    9 0.073
    18  H   0.897    O   17 0.860
    19  H   0.899    O   17 0.867
    20  N   2.924    H   21 0.980    H   23 0.964    H   22 0.959
    21  H   0.981    N   20 0.980
    22  H   0.976    N   20 0.959
    23  H   0.976    N   20 0.964
 MOs/occ written to file <molden.input>
 
molecular dipole:
                 x           y           z       tot (Debye)
 q only:       -1.654       0.665       0.132
   full:       -1.858       0.832       0.417       5.283
molecular quadrupole (traceless):
                xx          xy          yy          xz          yz          zz
 q only:       -8.944      -9.713       8.020      10.873       1.406       0.924
  q+dip:      -15.537     -11.122      11.830      14.411       0.711       3.707
   full:      -15.606     -11.271      11.853      14.844       1.048       3.753

SCC energy    :     -45.6005279
rep           :       0.2826162
ES            :       0.2161241
AES           :      -0.0425032
AXC           :      -0.0057969
disp          :      -0.0159362
XB            :       0.0000000
fix           :       0.0000000
total E       :     -45.3176487
atomizationE  :       4.4007112     2761.49
(atE without considering molecular charge,
 total energy contains solvation terms)
H-L gap (eV)  :          6.8429
           ------------------------------------------------- 
          |                 ===============                 |
          |                   A N C O P T                   |
          |                 ===============                 |
          |          Approximate Normal Coordinate          |
          |           Rational Function Optimizer           |
           ------------------------------------------------- 
dumping coords to <xtbopt.coord> and <xtbopt.log>
 optlevel               2
 Maxcycle             460
 Maxmicro              25
 Econv         1.000000000000000E-007
 Gconv         2.000000000000000E-004
 Maxdispl       1.00000000000000     
 Hlow          5.000000000000000E-003
 S6             20.0000000000000     
 Nvar               63

generating ANC from model Hessian ...
 Shifting diagonal of input Hessian by   5.144828976971026E-003
 Lowest  eigenvalues of input Hessian
    0.005000   -0.000000   -0.000000   -0.000000    0.000000    0.000000
    0.000000    0.005268    0.005462    0.005938    0.006344    0.006760
    0.006900    0.007162    0.007359    0.007894    0.008307    0.009594
 Highest eigenvalues
    1.425359    1.443958    1.554575    3.215380    3.412281    3.463482
 
cpu  time for ANC gen    0.01 s
wall time for ANC gen    0.01 s
................................................................................
.............................. CYCLE    1 ......................................
................................................................................
   1    -45.6005279 -0.456005E+02  0.597E-05    6.84       0.0  T
   2    -45.6005279 -0.671463E-11  0.462E-05    6.84     451.0  T
   3    -45.6005279 -0.521538E-11  0.260E-05    6.84     802.7  T
speedup  1.20
cpu  time for SCC    0.00 s
wall time for SCC    0.00 s
speedup  1.05
cpu  time for grad    0.01 s
wall time for grad    0.01 s
 E :    -45.31764872  G :  0.200580    pred/act E change:  0.000D+00  0.234D-07
Maxdispl :   0.1114   ||displ|| :   0.2427   Lambda : -0.160D-01
Largest |displ|/coords:  0.1114 (  23)  0.0807 (  22)  0.0705 (  24)
................................................................................
.............................. CYCLE    2 ......................................
................................................................................
   1    -45.6059093 -0.456059E+02  0.307E-01    6.81       0.0  T
   2    -45.6060827 -0.173336E-03  0.238E-01    6.80       1.0  T
   3    -45.6061348 -0.521493E-04  0.113E-01    6.79       1.0  T
   4    -45.6061449 -0.101327E-04  0.246E-02    6.79       1.0  T
   5    -45.6061457 -0.718945E-06  0.461E-03    6.79       4.5  T
   6    -45.6061457 -0.226612E-07  0.263E-03    6.79       7.9  T
speedup  1.09
cpu  time for SCC    0.01 s
wall time for SCC    0.00 s
speedup  0.98
cpu  time for grad    0.01 s
wall time for grad    0.01 s
 E :    -45.33054881  G :  0.132712    pred/act E change:  0.000D+00 -0.129D-01
Maxdispl :   0.1061   ||displ|| :   0.2216   Lambda : -0.107D-01
Largest |displ|/coords:  0.1061 (  23)  0.0640 (   7)  0.0619 (  22)
................................................................................
.............................. CYCLE    3 ......................................
................................................................................
   1    -45.6135835 -0.456136E+02  0.248E-01    6.72       0.0  T
   2    -45.6138085 -0.225064E-03  0.198E-01    6.71       1.0  T
   3    -45.6138688 -0.602908E-04  0.131E-01    6.71       1.0  T
   4    -45.6138732 -0.435661E-05  0.233E-02    6.72       1.0  T
   5    -45.6138736 -0.391408E-06  0.448E-03    6.72       4.7  T
   6    -45.6138736 -0.227261E-07  0.200E-03    6.72      10.4  T
speedup  1.09
cpu  time for SCC    0.00 s
wall time for SCC    0.00 s
speedup  0.98
cpu  time for grad    0.01 s
wall time for grad    0.01 s
 E :    -45.33865434  G :  0.064895    pred/act E change: -0.848D-02 -0.811D-02
Maxdispl :   0.1022   ||displ|| :   0.2399   Lambda : -0.443D-02
Largest |displ|/coords:  0.1022 (  23)  0.0880 (   7)  0.0682 (  18)
................................................................................
.............................. CYCLE    4 ......................................
................................................................................
   1    -45.6163968 -0.456164E+02  0.220E-01    6.58       0.0  T
   2    -45.6165232 -0.126350E-03  0.172E-01    6.58       1.0  T
   3    -45.6165578 -0.345791E-04  0.953E-02    6.59       1.0  T
   4    -45.6165613 -0.353373E-05  0.181E-02    6.60       1.2  T
   5    -45.6165615 -0.216465E-06  0.343E-03    6.59       6.1  T
   6    -45.6165615 -0.124258E-07  0.164E-03    6.59      12.7  T
speedup  1.09
cpu  time for SCC    0.01 s
wall time for SCC    0.00 s
speedup  0.99
cpu  time for grad    0.01 s
wall time for grad    0.01 s
 E :    -45.34182500  G :  0.025644    pred/act E change: -0.561D-02 -0.317D-02
Maxdispl :   0.1195   ||displ|| :   0.2840   Lambda : -0.222D-02
Largest |displ|/coords:  0.1195 (  23)  0.1001 (   1)  0.0969 (   7)
................................................................................
.............................. CYCLE    5 ......................................
................................................................................
   1    -45.6158151 -0.456158E+02  0.226E-01    6.35       0.0  T
   2    -45.6159001 -0.850199E-04  0.172E-01    6.36       1.0  T
   3    -45.6159240 -0.239386E-04  0.710E-02    6.37       1.0  T
   4    -45.6159297 -0.563045E-05  0.172E-02    6.38       1.2  T
   5    -45.6159299 -0.204770E-06  0.297E-03    6.37       7.0  T
   6    -45.6159299 -0.108808E-07  0.167E-03    6.38      12.5  T
speedup  0.85
cpu  time for SCC    0.00 s
wall time for SCC    0.00 s
speedup  0.98
cpu  time for grad    0.01 s
wall time for grad    0.01 s
 E :    -45.34321492  G :  0.016741    pred/act E change: -0.234D-02 -0.139D-02
Maxdispl :   0.1455   ||displ|| :   0.3016   Lambda : -0.101D-02
Largest |displ|/coords:  0.1455 (   7)  0.1192 (  18)  0.0980 (  15)
................................................................................
.............................. CYCLE    6 ......................................
................................................................................
   1    -45.6078949 -0.456079E+02  0.375E-01    6.11       0.0  T
   2    -45.6079465 -0.516255E-04  0.280E-01    6.11       1.0  T
   3    -45.6079751 -0.285408E-04  0.479E-02    6.12       1.0  T
   4    -45.6079826 -0.752155E-05  0.165E-02    6.12       1.3  T
   5    -45.6079830 -0.397653E-06  0.426E-03    6.12       4.9  T
   6    -45.6079830 -0.235604E-07  0.256E-03    6.12       8.1  T
   7    -45.6079830 -0.151048E-07  0.810E-04    6.12      25.7  T
speedup  0.93
cpu  time for SCC    0.00 s
wall time for SCC    0.01 s
speedup  1.00
cpu  time for grad    0.01 s
wall time for grad    0.01 s
 E :    -45.34296901  G :  0.042498    pred/act E change: -0.120D-02  0.246D-03
Maxdispl :   0.0893   ||displ|| :   0.2056   Lambda : -0.240D-02
Largest |displ|/coords:  0.0893 (   9)  0.0791 (   8)  0.0734 (   1)
................................................................................
.............................. CYCLE    7 ......................................
................................................................................
   1    -45.6122052 -0.456122E+02  0.262E-01    6.07       0.0  T
   2    -45.6122551 -0.498492E-04  0.193E-01    6.07       1.0  T
   3    -45.6122836 -0.285265E-04  0.418E-02    6.08       1.0  T
   4    -45.6122892 -0.553310E-05  0.110E-02    6.08       1.9  T
   5    -45.6122894 -0.217843E-06  0.427E-03    6.08       4.9  T
   6    -45.6122894 -0.115985E-07  0.218E-03    6.08       9.6  T
speedup  1.09
cpu  time for SCC    0.01 s
wall time for SCC    0.00 s
speedup  1.06
cpu  time for grad    0.01 s
wall time for grad    0.01 s
 E :    -45.34384662  G :  0.016381    pred/act E change: -0.549D-03 -0.878D-03
Maxdispl :   0.0515   ||displ|| :   0.1384   Lambda : -0.637D-03
Largest |displ|/coords:  0.0515 (  20)  0.0418 (  16)  0.0402 (  18)
................................................................................
.............................. CYCLE    8 ......................................
................................................................................
   1    -45.6132403 -0.456132E+02  0.182E-01    6.19       0.0  T
   2    -45.6132529 -0.126325E-04  0.138E-01    6.19       1.0  T
   3    -45.6132597 -0.675129E-05  0.214E-02    6.18       1.0  T
   4    -45.6132620 -0.232425E-05  0.933E-03    6.18       2.2  T
   5    -45.6132621 -0.114865E-06  0.191E-03    6.18      10.9  T
   6    -45.6132621 -0.312274E-08  0.112E-03    6.18      18.6  T
speedup  1.06
cpu  time for SCC    0.00 s
wall time for SCC    0.00 s
speedup  0.98
cpu  time for grad    0.01 s
wall time for grad    0.01 s
 E :    -45.34401678  G :  0.012337    pred/act E change: -0.125D-02 -0.170D-03
Maxdispl :   0.0518   ||displ|| :   0.1193   Lambda : -0.544D-03
Largest |displ|/coords:  0.0518 (  18)  0.0375 (   7)  0.0370 (   1)
................................................................................
.............................. CYCLE    9 ......................................
................................................................................
   1    -45.6136959 -0.456137E+02  0.152E-01    6.23       0.0  T
   2    -45.6137045 -0.859128E-05  0.114E-01    6.23       1.0  T
   3    -45.6137097 -0.525760E-05  0.181E-02    6.24       1.2  T
   4    -45.6137110 -0.129630E-05  0.663E-03    6.24       3.1  T
   5    -45.6137111 -0.533666E-07  0.175E-03    6.24      11.9  T
   6    -45.6137111 -0.206413E-08  0.997E-04    6.24      20.9  T
speedup  0.87
cpu  time for SCC    0.00 s
wall time for SCC    0.00 s
speedup  0.98
cpu  time for grad    0.01 s
wall time for grad    0.01 s
 E :    -45.34431133  G :  0.010064    pred/act E change: -0.325D-03 -0.295D-03
Maxdispl :   0.1074   ||displ|| :   0.2187   Lambda : -0.443D-03
Largest |displ|/coords:  0.1074 (  15)  0.0888 (   7)  0.0683 (   2)
................................................................................
.............................. CYCLE   10 ......................................
................................................................................
   1    -45.6117839 -0.456118E+02  0.218E-01    6.21       0.0  T
   2    -45.6117944 -0.105077E-04  0.164E-01    6.21       1.0  T
   3    -45.6118032 -0.885367E-05  0.241E-02    6.23       1.0  T
   4    -45.6118045 -0.122629E-05  0.737E-03    6.23       2.8  T
   5    -45.6118045 -0.685494E-07  0.223E-03    6.23       9.4  T
   6    -45.6118045 -0.474569E-08  0.134E-03    6.23      15.5  T
speedup  1.06
cpu  time for SCC    0.00 s
wall time for SCC    0.00 s
speedup  0.88
cpu  time for grad    0.01 s
wall time for grad    0.01 s
 E :    -45.34452706  G :  0.013751    pred/act E change: -0.276D-03 -0.216D-03
Maxdispl :   0.0604   ||displ|| :   0.1385   Lambda : -0.292D-03
Largest |displ|/coords:  0.0604 (   7)  0.0433 (   2)  0.0378 (   6)
................................................................................
.............................. CYCLE   11 ......................................
................................................................................
   1    -45.6123187 -0.456123E+02  0.117E-01    6.23       0.0  T
   2    -45.6123219 -0.324572E-05  0.864E-02    6.24       1.0  T
   3    -45.6123248 -0.286088E-05  0.145E-02    6.25       1.4  T
   4    -45.6123251 -0.295614E-06  0.487E-03    6.25       4.3  T
   5    -45.6123251 -0.275205E-07  0.136E-03    6.25      15.3  T
   6    -45.6123251 -0.205747E-08  0.854E-04    6.25      24.4  T
speedup  0.89
cpu  time for SCC    0.00 s
wall time for SCC    0.00 s
speedup  0.99
cpu  time for grad    0.01 s
wall time for grad    0.01 s
 E :    -45.34474888  G :  0.008830    pred/act E change: -0.232D-03 -0.222D-03
Maxdispl :   0.1156   ||displ|| :   0.2497   Lambda : -0.493D-03
Largest |displ|/coords:  0.1156 (   8)  0.0835 (   2)  0.0827 (   1)
................................................................................
.............................. CYCLE   12 ......................................
................................................................................
   1    -45.6176769 -0.456177E+02  0.217E-01    6.40       0.0  T
   2    -45.6176905 -0.135967E-04  0.160E-01    6.39       1.0  T
   3    -45.6176997 -0.915090E-05  0.282E-02    6.38       1.0  T
   4    -45.6177014 -0.170680E-05  0.101E-02    6.39       2.1  T
   5    -45.6177015 -0.941955E-07  0.265E-03    6.39       7.9  T
   6    -45.6177015 -0.984851E-08  0.157E-03    6.39      13.3  T
speedup  0.87
cpu  time for SCC    0.00 s
wall time for SCC    0.00 s
speedup  0.99
cpu  time for grad    0.01 s
wall time for grad    0.01 s
 E :    -45.34485226  G :  0.014686    pred/act E change: -0.149D-03 -0.103D-03
Maxdispl :   0.1143   ||displ|| :   0.2482   Lambda : -0.557D-03
Largest |displ|/coords:  0.1143 (   6)  0.0992 (   5)  0.0987 (   7)
................................................................................
.............................. CYCLE   13 ......................................
................................................................................
   1    -45.6113097 -0.456113E+02  0.256E-01    6.41       0.0  T
   2    -45.6113394 -0.296531E-04  0.186E-01    6.44       1.0  T
   3    -45.6113532 -0.137730E-04  0.315E-02    6.49       1.0  T
   4    -45.6113571 -0.396821E-05  0.885E-03    6.47       2.4  T
   5    -45.6113572 -0.572408E-07  0.349E-03    6.47       6.0  T
   6    -45.6113572 -0.162994E-07  0.160E-03    6.47      13.1  T
   7    -45.6113572 -0.393233E-08  0.540E-04    6.47      38.6  T
speedup  0.93
cpu  time for SCC    0.00 s
wall time for SCC    0.01 s
speedup  1.01
cpu  time for grad    0.01 s
wall time for grad    0.01 s
 E :    -45.34487620  G :  0.016931    pred/act E change: -0.262D-03 -0.239D-04
Maxdispl :   0.0849   ||displ|| :   0.1743   Lambda : -0.638D-03
Largest |displ|/coords:  0.0849 (   7)  0.0833 (   5)  0.0645 (   9)
................................................................................
.............................. CYCLE   14 ......................................
................................................................................
   1    -45.6154628 -0.456155E+02  0.163E-01    6.42       0.0  T
   2    -45.6154746 -0.117866E-04  0.119E-01    6.40       1.0  T
   3    -45.6154811 -0.653430E-05  0.207E-02    6.36       1.0  T
   4    -45.6154828 -0.162988E-05  0.657E-03    6.38       3.2  T
   5    -45.6154828 -0.422496E-07  0.245E-03    6.38       8.5  T
   6    -45.6154828 -0.641680E-08  0.117E-03    6.38      17.8  T
speedup  1.06
cpu  time for SCC    0.00 s
wall time for SCC    0.00 s
speedup  1.07
cpu  time for grad    0.01 s
wall time for grad    0.01 s
 E :    -45.34505810  G :  0.009661    pred/act E change: -0.296D-03 -0.182D-03
Maxdispl :   0.0888   ||displ|| :   0.1322   Lambda : -0.359D-03
Largest |displ|/coords:  0.0888 (   8)  0.0520 (   1)  0.0352 (   5)
................................................................................
.............................. CYCLE   15 ......................................
................................................................................
   1    -45.6139328 -0.456139E+02  0.112E-01    6.32       0.0  T
   2    -45.6139367 -0.391826E-05  0.836E-02    6.32       1.0  T
   3    -45.6139398 -0.307115E-05  0.117E-02    6.31       1.8  T
   4    -45.6139402 -0.480356E-06  0.544E-03    6.32       3.8  T
   5    -45.6139403 -0.304149E-07  0.144E-03    6.32      14.5  T
   6    -45.6139403 -0.296349E-08  0.824E-04    6.32      25.3  T
speedup  1.09
cpu  time for SCC    0.00 s
wall time for SCC    0.00 s
speedup  1.06
cpu  time for grad    0.01 s
wall time for grad    0.01 s
 E :    -45.34515203  G :  0.010947    pred/act E change: -0.329D-03 -0.939D-04
Maxdispl :   0.0320   ||displ|| :   0.0829   Lambda : -0.214D-03
Largest |displ|/coords:  0.0320 (  18)  0.0289 (   6)  0.0266 (  11)
................................................................................
.............................. CYCLE   16 ......................................
................................................................................
   1    -45.6150312 -0.456150E+02  0.704E-02    6.38       0.0  T
   2    -45.6150336 -0.243316E-05  0.514E-02    6.39       1.0  T
   3    -45.6150347 -0.109759E-05  0.112E-02    6.39       1.9  T
   4    -45.6150350 -0.298912E-06  0.375E-03    6.39       5.6  T
   5    -45.6150350 -0.146637E-07  0.987E-04    6.39      21.1  T
   6    -45.6150350 -0.158977E-08  0.484E-04    6.39      43.0  T
speedup  1.09
cpu  time for SCC    0.00 s
wall time for SCC    0.00 s
speedup  0.99
cpu  time for grad    0.01 s
wall time for grad    0.01 s
 E :    -45.34528246  G :  0.005663    pred/act E change: -0.183D-03 -0.130D-03
Maxdispl :   0.0821   ||displ|| :   0.1985   Lambda : -0.222D-03
Largest |displ|/coords:  0.0821 (   8)  0.0746 (   6)  0.0657 (  11)
................................................................................
.............................. CYCLE   17 ......................................
................................................................................
   1    -45.6126487 -0.456126E+02  0.167E-01    6.40       0.0  T
   2    -45.6126578 -0.912476E-05  0.123E-01    6.41       1.0  T
   3    -45.6126642 -0.642141E-05  0.212E-02    6.42       1.0  T
   4    -45.6126654 -0.112661E-05  0.774E-03    6.42       2.7  T
   5    -45.6126654 -0.712571E-07  0.227E-03    6.42       9.2  T
   6    -45.6126654 -0.677998E-08  0.134E-03    6.42      15.5  T
speedup  1.04
cpu  time for SCC    0.00 s
wall time for SCC    0.00 s
speedup  0.96
cpu  time for grad    0.01 s
wall time for grad    0.01 s
 E :    -45.34539938  G :  0.008416    pred/act E change: -0.108D-03 -0.117D-03
Maxdispl :   0.1147   ||displ|| :   0.1869   Lambda : -0.212D-03
Largest |displ|/coords:  0.1147 (   8)  0.0551 (  10)  0.0530 (   5)
................................................................................
.............................. CYCLE   18 ......................................
................................................................................
   1    -45.6119665 -0.456120E+02  0.147E-01    6.41       0.0  T
   2    -45.6119714 -0.494804E-05  0.107E-01    6.41       1.0  T
   3    -45.6119747 -0.334066E-05  0.182E-02    6.41       1.1  T
   4    -45.6119753 -0.509148E-06  0.663E-03    6.41       3.1  T
   5    -45.6119753 -0.382407E-07  0.162E-03    6.41      12.9  T
   6    -45.6119753 -0.260504E-08  0.102E-03    6.41      20.4  T
speedup  1.09
cpu  time for SCC    0.01 s
wall time for SCC    0.00 s
speedup  0.98
cpu  time for grad    0.01 s
wall time for grad    0.01 s
 E :    -45.34554821  G :  0.006974    pred/act E change: -0.115D-03 -0.149D-03
Maxdispl :   0.2082   ||displ|| :   0.3217   Lambda : -0.348D-03
Largest |displ|/coords:  0.2082 (   8)  0.1136 (  10)  0.0884 (   6)
................................................................................
.............................. CYCLE   19 ......................................
................................................................................
   1    -45.6126703 -0.456127E+02  0.241E-01    6.43       0.0  T
   2    -45.6126920 -0.216826E-04  0.174E-01    6.42       1.0  T
   3    -45.6127014 -0.939392E-05  0.390E-02    6.41       1.0  T
   4    -45.6127041 -0.267921E-05  0.121E-02    6.42       1.7  T
   5    -45.6127042 -0.160508E-06  0.287E-03    6.42       7.3  T
   6    -45.6127043 -0.121175E-07  0.174E-03    6.42      12.0  T
speedup  1.11
cpu  time for SCC    0.00 s
wall time for SCC    0.00 s
speedup  0.99
cpu  time for grad    0.01 s
wall time for grad    0.01 s
 E :    -45.34563990  G :  0.010631    pred/act E change: -0.110D-03 -0.917D-04
Maxdispl :   0.0658   ||displ|| :   0.1075   Lambda : -0.223D-03
Largest |displ|/coords:  0.0658 (   5)  0.0501 (   4)  0.0360 (   8)
................................................................................
.............................. CYCLE   20 ......................................
................................................................................
   1    -45.6117648 -0.456118E+02  0.103E-01    6.43       0.0  T
   2    -45.6117667 -0.187309E-05  0.756E-02    6.43       1.0  T
   3    -45.6117686 -0.185897E-05  0.681E-03    6.43       3.1  T
   4    -45.6117687 -0.897088E-07  0.303E-03    6.43       6.9  T
   5    -45.6117687 -0.517575E-08  0.860E-04    6.43      24.2  T
   6    -45.6117687 -0.131268E-08  0.401E-04    6.43      52.0  T
speedup  1.09
cpu  time for SCC    0.00 s
wall time for SCC    0.00 s
speedup  0.98
cpu  time for grad    0.01 s
wall time for grad    0.01 s
 E :    -45.34575242  G :  0.008917    pred/act E change: -0.192D-03 -0.113D-03
Maxdispl :   0.0433   ||displ|| :   0.0872   Lambda : -0.163D-03
Largest |displ|/coords:  0.0433 (   1)  0.0333 (   4)  0.0304 (  13)
................................................................................
.............................. CYCLE   21 ......................................
................................................................................
   1    -45.6142139 -0.456142E+02  0.718E-02    6.48       0.0  T
   2    -45.6142175 -0.361507E-05  0.527E-02    6.48       1.0  T
   3    -45.6142195 -0.204312E-05  0.126E-02    6.47       1.7  T
   4    -45.6142199 -0.393501E-06  0.427E-03    6.47       4.9  T
   5    -45.6142200 -0.287689E-07  0.120E-03    6.47      17.3  T
   6    -45.6142200 -0.193181E-08  0.695E-04    6.47      30.0  T
speedup  1.06
cpu  time for SCC    0.00 s
wall time for SCC    0.00 s
speedup  0.98
cpu  time for grad    0.01 s
wall time for grad    0.01 s
 E :    -45.34578868  G :  0.009819    pred/act E change: -0.113D-03 -0.363D-04
Maxdispl :   0.0854   ||displ|| :   0.1843   Lambda : -0.193D-03
Largest |displ|/coords:  0.0854 (   8)  0.0829 (  10)  0.0485 (   4)
................................................................................
.............................. CYCLE   22 ......................................
................................................................................
   1    -45.6124650 -0.456125E+02  0.133E-01    6.48       0.0  T
   2    -45.6124707 -0.578024E-05  0.989E-02    6.48       1.0  T
   3    -45.6124742 -0.340850E-05  0.164E-02    6.49       1.3  T
   4    -45.6124750 -0.844607E-06  0.584E-03    6.49       3.6  T
   5    -45.6124751 -0.533572E-07  0.177E-03    6.49      11.8  T
   6    -45.6124751 -0.379755E-08  0.102E-03    6.49      20.4  T
speedup  1.09
cpu  time for SCC    0.00 s
wall time for SCC    0.00 s
speedup  0.98
cpu  time for grad    0.01 s
wall time for grad    0.01 s
 E :    -45.34592945  G :  0.006072    pred/act E change: -0.821D-04 -0.141D-03
Maxdispl :   0.1591   ||displ|| :   0.2987   Lambda : -0.226D-03
Largest |displ|/coords:  0.1591 (   8)  0.1202 (  10)  0.0886 (   4)
................................................................................
.............................. CYCLE   23 ......................................
................................................................................
   1    -45.6108007 -0.456108E+02  0.212E-01    6.54       0.0  T
   2    -45.6108153 -0.145694E-04  0.157E-01    6.54       1.0  T
   3    -45.6108220 -0.668995E-05  0.288E-02    6.54       1.0  T
   4    -45.6108242 -0.228420E-05  0.855E-03    6.54       2.4  T
   5    -45.6108243 -0.105951E-06  0.264E-03    6.54       7.9  T
   6    -45.6108244 -0.620424E-08  0.150E-03    6.54      13.9  T
speedup  1.09
cpu  time for SCC    0.00 s
wall time for SCC    0.00 s
speedup  0.96
cpu  time for grad    0.01 s
wall time for grad    0.01 s
 E :    -45.34604199  G :  0.010341    pred/act E change: -0.998D-04 -0.113D-03
Maxdispl :   0.0443   ||displ|| :   0.1015   Lambda : -0.159D-03
Largest |displ|/coords:  0.0443 (  14)  0.0427 (   3)  0.0307 (   4)
................................................................................
.............................. CYCLE   24 ......................................
................................................................................
   1    -45.6137680 -0.456138E+02  0.783E-02    6.58       0.0  T
   2    -45.6137705 -0.253484E-05  0.577E-02    6.57       1.0  T
   3    -45.6137718 -0.131452E-05  0.101E-02    6.57       2.1  T
   4    -45.6137722 -0.334545E-06  0.374E-03    6.57       5.6  T
   5    -45.6137722 -0.195965E-07  0.108E-03    6.57      19.4  T
   6    -45.6137722 -0.155944E-08  0.584E-04    6.57      35.7  T
speedup  1.09
cpu  time for SCC    0.01 s
wall time for SCC    0.00 s
speedup  1.07
cpu  time for grad    0.01 s
wall time for grad    0.01 s
 E :    -45.34614480  G :  0.007058    pred/act E change: -0.123D-03 -0.103D-03
Maxdispl :   0.1987   ||displ|| :   0.3479   Lambda : -0.297D-03
Largest |displ|/coords:  0.1987 (   8)  0.1240 (   4)  0.1198 (   3)
................................................................................
.............................. CYCLE   25 ......................................
................................................................................
   1    -45.6118587 -0.456119E+02  0.246E-01    6.53       0.0  T
   2    -45.6118687 -0.997690E-05  0.183E-01    6.52       1.0  T
   3    -45.6118765 -0.784694E-05  0.228E-02    6.51       1.0  T
   4    -45.6118777 -0.115823E-05  0.898E-03    6.52       2.3  T
   5    -45.6118777 -0.694559E-07  0.250E-03    6.52       8.3  T
   6    -45.6118777 -0.570654E-08  0.144E-03    6.52      14.5  T
speedup  1.09
cpu  time for SCC    0.00 s
wall time for SCC    0.00 s
speedup  0.98
cpu  time for grad    0.01 s
wall time for grad    0.01 s
 E :    -45.34628971  G :  0.011653    pred/act E change: -0.805D-04 -0.145D-03
Maxdispl :   0.0987   ||displ|| :   0.1833   Lambda : -0.303D-03
Largest |displ|/coords:  0.0987 (   3)  0.0789 (   8)  0.0416 (  14)

generating ANC from model Hessian ...
 Shifting diagonal of input Hessian by   5.039389476342947E-003
 Lowest  eigenvalues of input Hessian
    0.005000   -0.000000   -0.000000   -0.000000    0.000000    0.000000
    0.000000    0.005202    0.005355    0.005609    0.005943    0.006181
    0.006531    0.006871    0.007762    0.007923    0.008562    0.009323
 Highest eigenvalues
    1.387812    1.421492    1.433026    2.648541    3.420342    3.788045
 
cpu  time for ANC gen    0.01 s
wall time for ANC gen    0.01 s
................................................................................
.............................. CYCLE   26 ......................................
................................................................................
   1    -45.6145143 -0.456145E+02  0.126E-01    6.64       0.0  T
   2    -45.6145202 -0.583588E-05  0.925E-02    6.63       1.0  T
   3    -45.6145223 -0.213011E-05  0.189E-02    6.62       1.1  T
   4    -45.6145231 -0.822094E-06  0.465E-03    6.62       4.5  T
   5    -45.6145231 -0.197792E-07  0.121E-03    6.62      17.2  T
   6    -45.6145231 -0.108103E-08  0.598E-04    6.62      34.9  T
   7    -45.6145231 -0.909516E-09  0.252E-04    6.62      82.8  T
speedup  0.93
cpu  time for SCC    0.00 s
wall time for SCC    0.01 s
speedup  0.97
cpu  time for grad    0.01 s
wall time for grad    0.01 s
 E :    -45.34645570  G :  0.010629    pred/act E change:  0.000D+00 -0.166D-03
Maxdispl :   0.0718   ||displ|| :   0.1198   Lambda : -0.268D-03
Largest |displ|/coords:  0.0718 (   2)  0.0442 (  16)  0.0323 (   6)
................................................................................
.............................. CYCLE   27 ......................................
................................................................................
   1    -45.6146149 -0.456146E+02  0.991E-02    6.63       0.0  T
   2    -45.6146162 -0.135398E-05  0.736E-02    6.63       1.0  T
   3    -45.6146176 -0.139800E-05  0.780E-03    6.64       2.7  T
   4    -45.6146177 -0.735897E-07  0.264E-03    6.64       7.9  T
   5    -45.6146177 -0.614694E-08  0.912E-04    6.64      22.9  T
speedup  1.03
cpu  time for SCC    0.00 s
wall time for SCC    0.00 s
speedup  0.96
cpu  time for grad    0.01 s
wall time for grad    0.01 s
 E :    -45.34666133  G :  0.005840    pred/act E change:  0.000D+00 -0.206D-03
Maxdispl :   0.1990   ||displ|| :   0.2979   Lambda : -0.407D-03
Largest |displ|/coords:  0.1990 (   2)  0.1028 (   7)  0.1026 (   8)
................................................................................
.............................. CYCLE   28 ......................................
................................................................................
   1    -45.6133932 -0.456134E+02  0.217E-01    6.63       0.0  T
   2    -45.6133996 -0.640953E-05  0.160E-01    6.64       1.0  T
   3    -45.6134062 -0.652378E-05  0.163E-02    6.65       1.3  T
   4    -45.6134065 -0.323746E-06  0.564E-03    6.65       3.7  T
   5    -45.6134065 -0.294236E-07  0.211E-03    6.65       9.9  T
   6    -45.6134065 -0.562478E-08  0.108E-03    6.65      19.2  T
speedup  1.06
cpu  time for SCC    0.01 s
wall time for SCC    0.00 s
speedup  0.98
cpu  time for grad    0.01 s
wall time for grad    0.01 s
 E :    -45.34690448  G :  0.009912    pred/act E change: -0.136D-03 -0.243D-03
Maxdispl :   0.1869   ||displ|| :   0.2267   Lambda : -0.224D-03
Largest |displ|/coords:  0.1869 (   2)  0.0521 (   8)  0.0437 (   7)
................................................................................
.............................. CYCLE   29 ......................................
................................................................................
   1    -45.6130205 -0.456130E+02  0.139E-01    6.66       0.0  T
   2    -45.6130233 -0.278712E-05  0.102E-01    6.66       1.0  T
   3    -45.6130258 -0.247733E-05  0.115E-02    6.66       1.8  T
   4    -45.6130260 -0.213377E-06  0.511E-03    6.66       4.1  T
   5    -45.6130260 -0.166763E-07  0.129E-03    6.66      16.2  T
   6    -45.6130260 -0.130501E-08  0.792E-04    6.66      26.3  T
speedup  0.89
cpu  time for SCC    0.00 s
wall time for SCC    0.00 s
speedup  0.99
cpu  time for grad    0.01 s
wall time for grad    0.01 s
 E :    -45.34709281  G :  0.009220    pred/act E change: -0.222D-03 -0.188D-03
Maxdispl :   0.4527   ||displ|| :   0.5304   Lambda : -0.545D-03
Largest |displ|/coords:  0.4527 (   2)  0.1175 (   8)  0.0813 (   3)
................................................................................
.............................. CYCLE   30 ......................................
................................................................................
   1    -45.6126787 -0.456127E+02  0.273E-01    6.69       0.0  T
   2    -45.6126914 -0.127149E-04  0.200E-01    6.68       1.0  T
   3    -45.6127015 -0.100571E-04  0.265E-02    6.67       1.0  T
   4    -45.6127028 -0.131882E-05  0.117E-02    6.68       1.8  T
   5    -45.6127029 -0.108633E-06  0.311E-03    6.68       6.7  T
   6    -45.6127029 -0.993837E-08  0.191E-03    6.68      10.9  T
   7    -45.6127029 -0.521121E-08  0.482E-04    6.68      43.3  T
speedup  0.93
cpu  time for SCC    0.00 s
wall time for SCC    0.01 s
speedup  0.98
cpu  time for grad    0.01 s
wall time for grad    0.01 s
 E :    -45.34747118  G :  0.012788    pred/act E change: -0.118D-03 -0.378D-03
Maxdispl :   0.3660   ||displ|| :   0.4166   Lambda : -0.368D-03
Largest |displ|/coords:  0.3660 (   2)  0.1060 (   8)  0.0778 (  15)
................................................................................
.............................. CYCLE   31 ......................................
................................................................................
   1    -45.6127362 -0.456127E+02  0.190E-01    6.72       0.0  T
   2    -45.6127419 -0.564120E-05  0.139E-01    6.71       1.0  T
   3    -45.6127465 -0.466469E-05  0.189E-02    6.70       1.1  T
   4    -45.6127471 -0.562134E-06  0.767E-03    6.71       2.7  T
   5    -45.6127471 -0.517277E-07  0.211E-03    6.71       9.9  T
   6    -45.6127471 -0.529272E-08  0.131E-03    6.71      16.0  T
speedup  0.87
cpu  time for SCC    0.00 s
wall time for SCC    0.00 s
speedup  0.98
cpu  time for grad    0.01 s
wall time for grad    0.01 s
 E :    -45.34778365  G :  0.016418    pred/act E change: -0.349D-03 -0.312D-03
Maxdispl :   0.4829   ||displ|| :   0.5660   Lambda : -0.801D-03
Largest |displ|/coords:  0.4829 (   2)  0.1207 (   8)  0.1193 (  15)
................................................................................
.............................. CYCLE   32 ......................................
................................................................................
   1    -45.6159014 -0.456159E+02  0.246E-01    6.80       0.0  T
   2    -45.6159130 -0.115725E-04  0.180E-01    6.78       1.0  T
   3    -45.6159211 -0.811571E-05  0.267E-02    6.75       1.0  T
   4    -45.6159225 -0.137239E-05  0.816E-03    6.77       2.6  T
   5    -45.6159225 -0.673387E-07  0.267E-03    6.77       7.8  T
   6    -45.6159226 -0.113029E-07  0.149E-03    6.77      14.0  T
speedup  0.85
cpu  time for SCC    0.00 s
wall time for SCC    0.00 s
speedup  0.97
cpu  time for grad    0.01 s
wall time for grad    0.01 s
 E :    -45.34843429  G :  0.016339    pred/act E change: -0.216D-03 -0.651D-03
Maxdispl :   0.6080   ||displ|| :   0.7416   Lambda : -0.113D-02
Largest |displ|/coords:  0.6080 (   2)  0.1894 (   5)  0.1669 (  16)
................................................................................
.............................. CYCLE   33 ......................................
................................................................................
   1    -45.6092303 -0.456092E+02  0.435E-01    6.81       0.0  T
   2    -45.6092604 -0.300963E-04  0.318E-01    6.83       1.0  T
   3    -45.6092880 -0.276313E-04  0.385E-02    6.85       1.0  T
   4    -45.6092901 -0.208952E-05  0.134E-02    6.84       1.6  T
   5    -45.6092903 -0.165823E-06  0.451E-03    6.84       4.6  T
   6    -45.6092903 -0.256662E-07  0.247E-03    6.84       8.4  T
   7    -45.6092903 -0.682803E-08  0.711E-04    6.84      29.3  T
speedup  0.94
cpu  time for SCC    0.01 s
wall time for SCC    0.01 s
speedup  1.00
cpu  time for grad    0.01 s
wall time for grad    0.01 s
 E :    -45.34907215  G :  0.028483    pred/act E change: -0.528D-03 -0.638D-03
Maxdispl :   0.2346   ||displ|| :   0.3974   Lambda : -0.176D-02
Largest |displ|/coords:  0.2346 (   2)  0.1117 (   6)  0.1021 (  16)
................................................................................
.............................. CYCLE   34 ......................................
................................................................................
   1    -45.6143147 -0.456143E+02  0.219E-01    6.99       0.0  T
   2    -45.6143325 -0.177628E-04  0.162E-01    6.98       1.0  T
   3    -45.6143403 -0.779211E-05  0.341E-02    6.97       1.0  T
   4    -45.6143428 -0.254932E-05  0.808E-03    6.98       2.6  T
   5    -45.6143429 -0.915728E-07  0.248E-03    6.98       8.4  T
   6    -45.6143429 -0.751042E-08  0.122E-03    6.98      17.1  T
speedup  1.04
cpu  time for SCC    0.00 s
wall time for SCC    0.00 s
speedup  0.96
cpu  time for grad    0.01 s
wall time for grad    0.01 s
 E :    -45.35023528  G :  0.018838    pred/act E change: -0.878D-03 -0.116D-02
Maxdispl :   0.5123   ||displ|| :   0.6608   Lambda : -0.173D-02
Largest |displ|/coords:  0.5123 (   2)  0.1513 (   6)  0.1276 (  10)
................................................................................
.............................. CYCLE   35 ......................................
................................................................................
   1    -45.6141647 -0.456142E+02  0.348E-01    7.12       0.0  T
   2    -45.6142018 -0.371440E-04  0.252E-01    7.12       1.0  T
   3    -45.6142240 -0.221961E-04  0.570E-02    7.13       1.0  T
   4    -45.6142288 -0.476126E-05  0.173E-02    7.14       1.2  T
   5    -45.6142291 -0.314955E-06  0.437E-03    7.14       4.8  T
   6    -45.6142291 -0.186797E-07  0.279E-03    7.14       7.5  T
   7    -45.6142291 -0.962991E-08  0.498E-04    7.14      41.8  T
speedup  0.93
cpu  time for SCC    0.00 s
wall time for SCC    0.01 s
speedup  1.00
cpu  time for grad    0.01 s
wall time for grad    0.01 s
 E :    -45.35122747  G :  0.029464    pred/act E change: -0.102D-02 -0.992D-03
Maxdispl :   0.1898   ||displ|| :   0.3748   Lambda : -0.185D-02
Largest |displ|/coords:  0.1898 (   2)  0.1268 (  17)  0.0958 (   4)
................................................................................
.............................. CYCLE   36 ......................................
................................................................................
   1    -45.6173337 -0.456173E+02  0.321E-01    7.36       0.0  T
   2    -45.6173673 -0.335650E-04  0.235E-01    7.36       1.0  T
   3    -45.6173843 -0.170294E-04  0.474E-02    7.38       1.0  T
   4    -45.6173883 -0.403930E-05  0.122E-02    7.38       1.7  T
   5    -45.6173885 -0.162542E-06  0.366E-03    7.38       5.7  T
   6    -45.6173885 -0.708643E-08  0.174E-03    7.38      12.0  T
speedup  0.85
cpu  time for SCC    0.00 s
wall time for SCC    0.00 s
speedup  0.96
cpu  time for grad    0.01 s
wall time for grad    0.01 s
 E :    -45.35226925  G :  0.029573    pred/act E change: -0.124D-02 -0.104D-02
Maxdispl :   0.4210   ||displ|| :   0.6223   Lambda : -0.245D-02
Largest |displ|/coords:  0.4210 (   2)  0.2266 (  16)  0.1852 (   8)
................................................................................
.............................. CYCLE   37 ......................................
................................................................................
   1    -45.6088469 -0.456088E+02  0.400E-01    7.35       0.0  T
   2    -45.6088898 -0.429785E-04  0.290E-01    7.35       1.0  T
   3    -45.6089208 -0.309563E-04  0.542E-02    7.37       1.0  T
   4    -45.6089249 -0.407943E-05  0.139E-02    7.37       1.5  T
   5    -45.6089251 -0.271066E-06  0.503E-03    7.37       4.1  T
   6    -45.6089252 -0.386229E-07  0.300E-03    7.37       7.0  T
speedup  1.06
cpu  time for SCC    0.00 s
wall time for SCC    0.00 s
speedup  0.96
cpu  time for grad    0.01 s
wall time for grad    0.01 s
 E :    -45.35332883  G :  0.030432    pred/act E change: -0.105D-02 -0.106D-02
Maxdispl :   0.2128   ||displ|| :   0.3621   Lambda : -0.210D-02
Largest |displ|/coords:  0.2128 (   6)  0.1277 (  11)  0.1191 (   7)
................................................................................
.............................. CYCLE   38 ......................................
................................................................................
   1    -45.6133102 -0.456133E+02  0.328E-01    7.48       0.0  T
   2    -45.6133291 -0.188770E-04  0.241E-01    7.49       1.0  T
   3    -45.6133492 -0.201057E-04  0.259E-02    7.50       1.0  T
   4    -45.6133499 -0.750662E-06  0.783E-03    7.50       2.7  T
   5    -45.6133500 -0.612671E-07  0.369E-03    7.50       5.6  T
   6    -45.6133500 -0.136176E-07  0.148E-03    7.50      14.1  T
speedup  1.06
cpu  time for SCC    0.00 s
wall time for SCC    0.00 s
speedup  1.06
cpu  time for grad    0.01 s
wall time for grad    0.01 s
 E :    -45.35453265  G :  0.031578    pred/act E change: -0.170D-02 -0.120D-02
Maxdispl :   0.1579   ||displ|| :   0.3690   Lambda : -0.278D-02
Largest |displ|/coords:  0.1579 (   6)  0.1459 (   9)  0.1265 (  13)
................................................................................
.............................. CYCLE   39 ......................................
................................................................................
   1    -45.6302168 -0.456302E+02  0.304E-01    7.93       0.0  T
   2    -45.6302768 -0.600685E-04  0.220E-01    7.89       1.0  T
   3    -45.6303010 -0.242014E-04  0.518E-02    7.84       1.0  T
   4    -45.6303082 -0.716186E-05  0.130E-02    7.87       1.6  T
   5    -45.6303084 -0.181856E-06  0.452E-03    7.87       4.6  T
   6    -45.6303084 -0.156424E-07  0.194E-03    7.87      10.8  T
speedup  0.85
cpu  time for SCC    0.00 s
wall time for SCC    0.00 s
speedup  0.96
cpu  time for grad    0.01 s
wall time for grad    0.01 s
 E :    -45.35435779  G :  0.042734    pred/act E change: -0.119D-02  0.175D-03
Maxdispl :   0.3291   ||displ|| :   0.4639   Lambda : -0.422D-02
Largest |displ|/coords:  0.3291 (   2)  0.1236 (   6)  0.1214 (  15)
................................................................................
.............................. CYCLE   40 ......................................
................................................................................
   1    -45.6165842 -0.456166E+02  0.352E-01    7.83       0.0  T
   2    -45.6166510 -0.667575E-04  0.258E-01    7.89       1.0  T
   3    -45.6166869 -0.358969E-04  0.500E-02    8.02       1.0  T
   4    -45.6166957 -0.882614E-05  0.155E-02    7.99       1.3  T
   5    -45.6166960 -0.243635E-06  0.552E-03    7.99       3.8  T
   6    -45.6166960 -0.591982E-07  0.293E-03    7.99       7.1  T
speedup  1.04
cpu  time for SCC    0.00 s
wall time for SCC    0.00 s
speedup  0.96
cpu  time for grad    0.01 s
wall time for grad    0.01 s
 E :    -45.35646890  G :  0.024961    pred/act E change: -0.158D-02 -0.211D-02
Maxdispl :   0.1199   ||displ|| :   0.3121   Lambda : -0.174D-02
Largest |displ|/coords:  0.1199 (   2)  0.1041 (  17)  0.0996 (  13)
................................................................................
.............................. CYCLE   41 ......................................
................................................................................
   1    -45.6153616 -0.456154E+02  0.259E-01    8.08       0.0  T
   2    -45.6153771 -0.154886E-04  0.195E-01    8.08       1.0  T
   3    -45.6153897 -0.126441E-04  0.251E-02    8.08       1.0  T
   4    -45.6153914 -0.164857E-05  0.909E-03    8.07       2.3  T
   5    -45.6153915 -0.779035E-07  0.265E-03    8.07       7.9  T
   6    -45.6153915 -0.674725E-08  0.153E-03    8.08      13.6  T
speedup  1.06
cpu  time for SCC    0.00 s
wall time for SCC    0.00 s
speedup  1.05
cpu  time for grad    0.01 s
wall time for grad    0.01 s
 E :    -45.35694069  G :  0.029870    pred/act E change: -0.257D-02 -0.472D-03
Maxdispl :   0.3105   ||displ|| :   0.5924   Lambda : -0.246D-02
Largest |displ|/coords:  0.3105 (   2)  0.2229 (  15)  0.2167 (   5)
................................................................................
.............................. CYCLE   42 ......................................
................................................................................
   1    -45.6122827 -0.456123E+02  0.385E-01    7.84       0.0  T
   2    -45.6124006 -0.117893E-03  0.284E-01    7.91       1.0  T
   3    -45.6124451 -0.445234E-04  0.775E-02    8.06       1.0  T
   4    -45.6124590 -0.138679E-04  0.241E-02    8.05       1.0  T
   5    -45.6124595 -0.472381E-06  0.535E-03    8.05       3.9  T
   6    -45.6124595 -0.403994E-07  0.313E-03    8.05       6.7  T
speedup  0.85
cpu  time for SCC    0.00 s
wall time for SCC    0.00 s
speedup  0.97
cpu  time for grad    0.01 s
wall time for grad    0.01 s
 E :    -45.35721846  G :  0.042293    pred/act E change: -0.953D-03 -0.278D-03
Maxdispl :   0.1339   ||displ|| :   0.2593   Lambda : -0.326D-02
Largest |displ|/coords:  0.1339 (   9)  0.0932 (   2)  0.0782 (  16)
................................................................................
.............................. CYCLE   43 ......................................
................................................................................
   1    -45.6241452 -0.456241E+02  0.218E-01    8.37       0.0  T
   2    -45.6241871 -0.418814E-04  0.162E-01    8.33       1.0  T
   3    -45.6242007 -0.135897E-04  0.430E-02    8.26       1.0  T
   4    -45.6242059 -0.521858E-05  0.133E-02    8.27       1.6  T
   5    -45.6242061 -0.226620E-06  0.287E-03    8.27       7.3  T
   6    -45.6242061 -0.908314E-08  0.141E-03    8.27      14.7  T
speedup  1.06
cpu  time for SCC    0.00 s
wall time for SCC    0.00 s
speedup  0.97
cpu  time for grad    0.01 s
wall time for grad    0.01 s
 E :    -45.35831902  G :  0.025986    pred/act E change: -0.166D-02 -0.110D-02
Maxdispl :   0.1212   ||displ|| :   0.2552   Lambda : -0.189D-02
Largest |displ|/coords:  0.1212 (   7)  0.0855 (   1)  0.0826 (  12)
................................................................................
.............................. CYCLE   44 ......................................
................................................................................
   1    -45.6171053 -0.456171E+02  0.249E-01    8.57       0.0  T
   2    -45.6171617 -0.563787E-04  0.179E-01    8.62       1.0  T
   3    -45.6171824 -0.206807E-04  0.470E-02    8.69       1.0  T
   4    -45.6171881 -0.574629E-05  0.110E-02    8.68       1.9  T
   5    -45.6171883 -0.208733E-06  0.437E-03    8.67       4.8  T
   6    -45.6171884 -0.289867E-07  0.212E-03    8.67       9.8  T
speedup  1.06
cpu  time for SCC    0.00 s
wall time for SCC    0.00 s
speedup  1.05
cpu  time for grad    0.01 s
wall time for grad    0.01 s
 E :    -45.35871247  G :  0.026020    pred/act E change: -0.174D-02 -0.393D-03
Maxdispl :   0.1415   ||displ|| :   0.2032   Lambda : -0.140D-02
Largest |displ|/coords:  0.1415 (  15)  0.0708 (  10)  0.0533 (  13)
................................................................................
.............................. CYCLE   45 ......................................
................................................................................
   1    -45.6178514 -0.456179E+02  0.163E-01    8.40       0.0  T
   2    -45.6178643 -0.129052E-04  0.118E-01    8.40       1.0  T
   3    -45.6178699 -0.557239E-05  0.298E-02    8.39       1.0  T
   4    -45.6178713 -0.144946E-05  0.920E-03    8.40       2.3  T
   5    -45.6178714 -0.784426E-07  0.184E-03    8.40      11.3  T
   6    -45.6178714 -0.700982E-08  0.106E-03    8.40      19.6  T
speedup  1.04
cpu  time for SCC    0.01 s
wall time for SCC    0.00 s
speedup  1.03
cpu  time for grad    0.01 s
wall time for grad    0.01 s
 E :    -45.35943679  G :  0.015391    pred/act E change: -0.101D-02 -0.724D-03
Maxdispl :   0.1296   ||displ|| :   0.2606   Lambda : -0.847D-03
Largest |displ|/coords:  0.1296 (   7)  0.1131 (  15)  0.0807 (   8)
................................................................................
.............................. CYCLE   46 ......................................
................................................................................
   1    -45.6199272 -0.456199E+02  0.190E-01    8.41       0.0  T
   2    -45.6199472 -0.200388E-04  0.140E-01    8.43       1.0  T
   3    -45.6199574 -0.101254E-04  0.293E-02    8.49       1.0  T
   4    -45.6199599 -0.253610E-05  0.103E-02    8.48       2.0  T
   5    -45.6199600 -0.906528E-07  0.257E-03    8.48       8.1  T
   6    -45.6199600 -0.750737E-08  0.151E-03    8.48      13.8  T
speedup  1.09
cpu  time for SCC    0.00 s
wall time for SCC    0.00 s
speedup  0.92
cpu  time for grad    0.01 s
wall time for grad    0.01 s
 E :    -45.35984204  G :  0.017405    pred/act E change: -0.727D-03 -0.405D-03
Maxdispl :   0.1314   ||displ|| :   0.3017   Lambda : -0.845D-03
Largest |displ|/coords:  0.1314 (  15)  0.0998 (  11)  0.0816 (   1)
................................................................................
.............................. CYCLE   47 ......................................
................................................................................
   1    -45.6181857 -0.456182E+02  0.228E-01    8.52       0.0  T
   2    -45.6182137 -0.279296E-04  0.170E-01    8.55       1.0  T
   3    -45.6182293 -0.155980E-04  0.358E-02    8.63       1.0  T
   4    -45.6182330 -0.377706E-05  0.127E-02    8.62       1.6  T
   5    -45.6182332 -0.147840E-06  0.344E-03    8.61       6.1  T
   6    -45.6182332 -0.163753E-07  0.208E-03    8.61      10.0  T
   7    -45.6182332 -0.770574E-08  0.515E-04    8.61      40.5  T
speedup  0.91
cpu  time for SCC    0.00 s
wall time for SCC    0.01 s
speedup  0.98
cpu  time for grad    0.01 s
wall time for grad    0.01 s
 E :    -45.36019640  G :  0.018049    pred/act E change: -0.452D-03 -0.354D-03
Maxdispl :   0.1887   ||displ|| :   0.4301   Lambda : -0.147D-02
Largest |displ|/coords:  0.1887 (   2)  0.1782 (   6)  0.1549 (   3)
................................................................................
.............................. CYCLE   48 ......................................
................................................................................
   1    -45.6241195 -0.456241E+02  0.235E-01    8.88       0.0  T
   2    -45.6241465 -0.269597E-04  0.173E-01    8.87       1.0  T
   3    -45.6241645 -0.179911E-04  0.324E-02    8.85       1.0  T
   4    -45.6241673 -0.276036E-05  0.134E-02    8.84       1.6  T
   5    -45.6241674 -0.175237E-06  0.338E-03    8.84       6.2  T
   6    -45.6241674 -0.111503E-07  0.199E-03    8.84      10.5  T
   7    -45.6241674 -0.547838E-08  0.521E-04    8.84      40.0  T
speedup  0.91
cpu  time for SCC    0.01 s
wall time for SCC    0.01 s
speedup  0.98
cpu  time for grad    0.01 s
wall time for grad    0.01 s
 E :    -45.36024935  G :  0.031557    pred/act E change: -0.461D-03 -0.529D-04
Maxdispl :   0.1439   ||displ|| :   0.2817   Lambda : -0.194D-02
Largest |displ|/coords:  0.1439 (   7)  0.1236 (   5)  0.0918 (  15)
................................................................................
.............................. CYCLE   49 ......................................
................................................................................
   1    -45.6226916 -0.456227E+02  0.246E-01    8.86       0.0  T
   2    -45.6227264 -0.347631E-04  0.180E-01    8.90       1.0  T
   3    -45.6227428 -0.164013E-04  0.351E-02    8.97       1.0  T
   4    -45.6227472 -0.438262E-05  0.861E-03    8.95       2.4  T
   5    -45.6227473 -0.903318E-07  0.320E-03    8.95       6.5  T
   6    -45.6227473 -0.823690E-08  0.137E-03    8.95      15.3  T
speedup  1.06
cpu  time for SCC    0.00 s
wall time for SCC    0.00 s
speedup  1.05
cpu  time for grad    0.01 s
wall time for grad    0.01 s
 E :    -45.36037861  G :  0.029318    pred/act E change: -0.871D-03 -0.129D-03
Maxdispl :   0.0869   ||displ|| :   0.1817   Lambda : -0.152D-02
Largest |displ|/coords:  0.0869 (   4)  0.0593 (   7)  0.0564 (  11)
................................................................................
.............................. CYCLE   50 ......................................
................................................................................
   1    -45.6183344 -0.456183E+02  0.156E-01    8.67       0.0  T
   2    -45.6183539 -0.195448E-04  0.114E-01    8.66       1.0  T
   3    -45.6183611 -0.716925E-05  0.349E-02    8.65       1.0  T
   4    -45.6183629 -0.179876E-05  0.813E-03    8.65       2.6  T
   5    -45.6183630 -0.948427E-07  0.226E-03    8.66       9.2  T
   6    -45.6183630 -0.481612E-08  0.119E-03    8.66      17.5  T
speedup  1.06
cpu  time for SCC    0.00 s
wall time for SCC    0.00 s
speedup  1.05
cpu  time for grad    0.01 s
wall time for grad    0.01 s
 E :    -45.36096566  G :  0.013440    pred/act E change: -0.105D-02 -0.587D-03
Maxdispl :   0.0681   ||displ|| :   0.1736   Lambda : -0.658D-03
Largest |displ|/coords:  0.0681 (   8)  0.0681 (   3)  0.0653 (  15)
................................................................................
.............................. CYCLE   51 ......................................
................................................................................
   1    -45.6278713 -0.456279E+02  0.124E-01    8.88       0.0  T
   2    -45.6278830 -0.116526E-04  0.888E-02    8.87       1.0  T
   3    -45.6278877 -0.474969E-05  0.244E-02    8.85       1.0  T
   4    -45.6278889 -0.118223E-05  0.618E-03    8.86       3.4  T
   5    -45.6278890 -0.575838E-07  0.221E-03    8.86       9.4  T
   6    -45.6278890 -0.497476E-08  0.917E-04    8.86      22.7  T
speedup  1.02
cpu  time for SCC    0.01 s
wall time for SCC    0.00 s
speedup  0.94
cpu  time for grad    0.01 s
wall time for grad    0.01 s
 E :    -45.36096650  G :  0.015344    pred/act E change: -0.787D-03 -0.842D-06
Maxdispl :   0.0905   ||displ|| :   0.2060   Lambda : -0.602D-03
Largest |displ|/coords:  0.0905 (  15)  0.0788 (  11)  0.0753 (   7)
................................................................................
.............................. CYCLE   52 ......................................
................................................................................
   1    -45.6233292 -0.456233E+02  0.143E-01    8.82       0.0  T
   2    -45.6233411 -0.118681E-04  0.104E-01    8.84       1.0  T
   3    -45.6233463 -0.526216E-05  0.214E-02    8.87       1.0  T
   4    -45.6233478 -0.150963E-05  0.530E-03    8.86       3.9  T
   5    -45.6233479 -0.371351E-07  0.249E-03    8.86       8.4  T
   6    -45.6233479 -0.718587E-08  0.916E-04    8.86      22.8  T
speedup  1.04
cpu  time for SCC    0.00 s
wall time for SCC    0.00 s
speedup  1.04
cpu  time for grad    0.01 s
wall time for grad    0.01 s
 E :    -45.36128656  G :  0.010267    pred/act E change: -0.339D-03 -0.320D-03
Maxdispl :   0.0565   ||displ|| :   0.1127   Lambda : -0.206D-03
Largest |displ|/coords:  0.0565 (   6)  0.0488 (   5)  0.0360 (   4)

generating ANC from model Hessian ...
 Shifting diagonal of input Hessian by   4.768274088719182E-003
 Lowest  eigenvalues of input Hessian
   -0.000000   -0.000000    0.000000    0.000000    0.000000    0.000000
    0.005000    0.005089    0.005462    0.005830    0.006363    0.006880
    0.007048    0.007440    0.008347    0.008431    0.009069    0.009816
 Highest eigenvalues
    1.375889    1.406244    1.412259    2.700563    3.225554    3.828846
 
cpu  time for ANC gen    0.01 s
wall time for ANC gen    0.01 s
................................................................................
.............................. CYCLE   53 ......................................
................................................................................
   1    -45.6228603 -0.456229E+02  0.577E-02    8.83       0.0  T
   2    -45.6228613 -0.105309E-05  0.431E-02    8.83       1.0  T
   3    -45.6228621 -0.778137E-06  0.665E-03    8.82       3.1  T
   4    -45.6228622 -0.130206E-06  0.226E-03    8.82       9.2  T
   5    -45.6228622 -0.557879E-08  0.742E-04    8.82      28.1  T
   6    -45.6228622 -0.703501E-09  0.385E-04    8.82      54.1  T
speedup  0.85
cpu  time for SCC    0.00 s
wall time for SCC    0.00 s
speedup  1.01
cpu  time for grad    0.01 s
wall time for grad    0.01 s
 E :    -45.36138830  G :  0.005744    pred/act E change:  0.000D+00 -0.102D-03
Maxdispl :   0.0626   ||displ|| :   0.1295   Lambda : -0.212D-03
Largest |displ|/coords:  0.0626 (   7)  0.0548 (   5)  0.0452 (   3)
................................................................................
.............................. CYCLE   54 ......................................
................................................................................
   1    -45.6237982 -0.456238E+02  0.107E-01    8.82       0.0  T
   2    -45.6238009 -0.266173E-05  0.790E-02    8.83       1.0  T
   3    -45.6238028 -0.195339E-05  0.113E-02    8.83       1.8  T
   4    -45.6238031 -0.272003E-06  0.395E-03    8.83       5.3  T
   5    -45.6238031 -0.109064E-07  0.972E-04    8.83      21.5  T
   6    -45.6238031 -0.111278E-08  0.523E-04    8.83      39.9  T
speedup  1.04
cpu  time for SCC    0.00 s
wall time for SCC    0.00 s
speedup  0.96
cpu  time for grad    0.01 s
wall time for grad    0.01 s
 E :    -45.36153486  G :  0.003530    pred/act E change:  0.000D+00 -0.147D-03
Maxdispl :   0.1030   ||displ|| :   0.2311   Lambda : -0.228D-03
Largest |displ|/coords:  0.1030 (   3)  0.1005 (   5)  0.0853 (   7)
................................................................................
.............................. CYCLE   55 ......................................
................................................................................
   1    -45.6241173 -0.456241E+02  0.155E-01    8.82       0.0  T
   2    -45.6241231 -0.578618E-05  0.114E-01    8.83       1.0  T
   3    -45.6241277 -0.456672E-05  0.131E-02    8.84       1.6  T
   4    -45.6241282 -0.460539E-06  0.492E-03    8.84       4.2  T
   5    -45.6241282 -0.141599E-07  0.128E-03    8.84      16.3  T
   6    -45.6241282 -0.180502E-08  0.696E-04    8.84      29.9  T
   7    -45.6241282 -0.912109E-09  0.222E-04    8.84      93.8  T
speedup  1.11
cpu  time for SCC    0.01 s
wall time for SCC    0.01 s
speedup  1.03
cpu  time for grad    0.01 s
wall time for grad    0.01 s
 E :    -45.36167231  G :  0.005587    pred/act E change: -0.108D-03 -0.137D-03
Maxdispl :   0.0900   ||displ|| :   0.1501   Lambda : -0.949D-04
Largest |displ|/coords:  0.0900 (   3)  0.0649 (   5)  0.0585 (   2)
................................................................................
.............................. CYCLE   56 ......................................
................................................................................
   1    -45.6241620 -0.456242E+02  0.856E-02    8.84       0.0  T
   2    -45.6241633 -0.128305E-05  0.636E-02    8.84       1.0  T
   3    -45.6241646 -0.127493E-05  0.765E-03    8.85       2.7  T
   4    -45.6241646 -0.918856E-07  0.302E-03    8.85       6.9  T
   5    -45.6241647 -0.797380E-08  0.739E-04    8.85      28.2  T
   6    -45.6241647 -0.559318E-09  0.451E-04    8.85      46.2  T
speedup  1.06
cpu  time for SCC    0.00 s
wall time for SCC    0.00 s
speedup  0.96
cpu  time for grad    0.01 s
wall time for grad    0.01 s
 E :    -45.36174283  G :  0.003932    pred/act E change: -0.120D-03 -0.705D-04
Maxdispl :   0.0999   ||displ|| :   0.1907   Lambda : -0.963D-04
Largest |displ|/coords:  0.0999 (   3)  0.0918 (   2)  0.0697 (   5)
................................................................................
.............................. CYCLE   57 ......................................
................................................................................
   1    -45.6242657 -0.456243E+02  0.909E-02    8.84       0.0  T
   2    -45.6242671 -0.134670E-05  0.677E-02    8.84       1.0  T
   3    -45.6242685 -0.137355E-05  0.806E-03    8.84       2.6  T
   4    -45.6242685 -0.925439E-07  0.297E-03    8.84       7.0  T
   5    -45.6242686 -0.828778E-08  0.769E-04    8.84      27.1  T
   6    -45.6242686 -0.678810E-09  0.476E-04    8.84      43.8  T
speedup  0.85
cpu  time for SCC    0.00 s
wall time for SCC    0.00 s
speedup  0.93
cpu  time for grad    0.01 s
wall time for grad    0.01 s
 E :    -45.36179693  G :  0.002369    pred/act E change: -0.485D-04 -0.541D-04
Maxdispl :   0.0696   ||displ|| :   0.1248   Lambda : -0.339D-04
Largest |displ|/coords:  0.0696 (   3)  0.0695 (   2)  0.0336 (   7)
................................................................................
.............................. CYCLE   58 ......................................
................................................................................
   1    -45.6235393 -0.456235E+02  0.742E-02    8.83       0.0  T
   2    -45.6235401 -0.827167E-06  0.557E-02    8.83       1.0  T
   3    -45.6235411 -0.945246E-06  0.534E-03    8.83       3.9  T
   4    -45.6235411 -0.524088E-07  0.192E-03    8.83      10.9  T
   5    -45.6235411 -0.431393E-08  0.686E-04    8.83      30.4  T
   6    -45.6235411 -0.830632E-09  0.342E-04    8.83      61.0  T
speedup  0.83
cpu  time for SCC    0.00 s
wall time for SCC    0.00 s
speedup  1.01
cpu  time for grad    0.01 s
wall time for grad    0.01 s
 E :    -45.36181629  G :  0.002622    pred/act E change: -0.499D-04 -0.194D-04
Maxdispl :   0.0566   ||displ|| :   0.0775   Lambda : -0.234D-04
Largest |displ|/coords:  0.0566 (   2)  0.0201 (   1)  0.0200 (   3)
................................................................................
.............................. CYCLE   59 ......................................
................................................................................
   1    -45.6239856 -0.456240E+02  0.345E-02    8.84       0.0  T
   2    -45.6239857 -0.121428E-06  0.258E-02    8.84       1.0  T
   3    -45.6239858 -0.128781E-06  0.245E-03    8.83       8.5  T
   4    -45.6239858 -0.929475E-08  0.860E-04    8.83      24.3  T
   5    -45.6239858 -0.766178E-09  0.290E-04    8.83      71.9  T
speedup  1.00
cpu  time for SCC    0.00 s
wall time for SCC    0.00 s
speedup  0.98
cpu  time for grad    0.01 s
wall time for grad    0.01 s
 E :    -45.36183364  G :  0.001891    pred/act E change: -0.172D-04 -0.174D-04
Maxdispl :   0.0823   ||displ|| :   0.1239   Lambda : -0.275D-04
Largest |displ|/coords:  0.0823 (   2)  0.0420 (   1)  0.0322 (   7)
................................................................................
.............................. CYCLE   60 ......................................
................................................................................
   1    -45.6241502 -0.456242E+02  0.600E-02    8.85       0.0  T
   2    -45.6241506 -0.413400E-06  0.449E-02    8.84       1.0  T
   3    -45.6241511 -0.419886E-06  0.388E-03    8.84       5.4  T
   4    -45.6241511 -0.372282E-07  0.142E-03    8.84      14.7  T
   5    -45.6241511 -0.177378E-08  0.509E-04    8.84      40.9  T
   6    -45.6241511 -0.256257E-09  0.220E-04    8.84      95.0  T
speedup  1.04
cpu  time for SCC    0.00 s
wall time for SCC    0.00 s
speedup  1.01
cpu  time for grad    0.01 s
wall time for grad    0.01 s
 E :    -45.36185127  G :  0.001448    pred/act E change: -0.118D-04 -0.176D-04
Maxdispl :   0.0617   ||displ|| :   0.1031   Lambda : -0.185D-04
Largest |displ|/coords:  0.0617 (   2)  0.0582 (   1)  0.0209 (  13)
................................................................................
.............................. CYCLE   61 ......................................
................................................................................
   1    -45.6246766 -0.456247E+02  0.557E-02    8.85       0.0  T
   2    -45.6246769 -0.312430E-06  0.416E-02    8.85       1.0  T
   3    -45.6246773 -0.358982E-06  0.334E-03    8.85       6.2  T
   4    -45.6246773 -0.174433E-07  0.146E-03    8.85      14.3  T
   5    -45.6246773 -0.185737E-08  0.449E-04    8.85      46.5  T
   6    -45.6246773 -0.176144E-09  0.226E-04    8.85      92.3  T
speedup  1.06
cpu  time for SCC    0.00 s
wall time for SCC    0.00 s
speedup  1.02
cpu  time for grad    0.01 s
wall time for grad    0.01 s
 E :    -45.36186240  G :  0.001834    pred/act E change: -0.140D-04 -0.111D-04
Maxdispl :   0.0683   ||displ|| :   0.1217   Lambda : -0.166D-04
Largest |displ|/coords:  0.0683 (   1)  0.0666 (   2)  0.0381 (   7)
................................................................................
.............................. CYCLE   62 ......................................
................................................................................
   1    -45.6243546 -0.456244E+02  0.641E-02    8.85       0.0  T
   2    -45.6243550 -0.431253E-06  0.482E-02    8.85       1.0  T
   3    -45.6243554 -0.422663E-06  0.352E-03    8.85       5.9  T
   4    -45.6243555 -0.489881E-07  0.127E-03    8.85      16.4  T
   5    -45.6243555 -0.137600E-08  0.570E-04    8.85      36.6  T
   6    -45.6243555 -0.535607E-09  0.175E-04    8.85     118.9  T
speedup  1.06
cpu  time for SCC    0.00 s
wall time for SCC    0.00 s
speedup  1.02
cpu  time for grad    0.01 s
wall time for grad    0.01 s
 E :    -45.36187309  G :  0.002137    pred/act E change: -0.933D-05 -0.107D-04
Maxdispl :   0.0569   ||displ|| :   0.0746   Lambda : -0.147D-04
Largest |displ|/coords:  0.0569 (   1)  0.0203 (   7)  0.0193 (  11)
................................................................................
.............................. CYCLE   63 ......................................
................................................................................
   1    -45.6245989 -0.456246E+02  0.462E-02    8.84       0.0  T
   2    -45.6245991 -0.231699E-06  0.347E-02    8.84       1.0  T
   3    -45.6245993 -0.243109E-06  0.335E-03    8.84       6.2  T
   4    -45.6245994 -0.203519E-07  0.121E-03    8.84      17.3  T
   5    -45.6245994 -0.129622E-08  0.394E-04    8.84      52.9  T
   6    -45.6245994 -0.174687E-09  0.220E-04    8.84      94.6  T
speedup  1.11
cpu  time for SCC    0.00 s
wall time for SCC    0.00 s
speedup  1.03
cpu  time for grad    0.01 s
wall time for grad    0.01 s
 E :    -45.36188287  G :  0.001476    pred/act E change: -0.844D-05 -0.979D-05
Maxdispl :   0.0502   ||displ|| :   0.0674   Lambda : -0.940D-05
Largest |displ|/coords:  0.0502 (   1)  0.0264 (   7)  0.0172 (   3)
................................................................................
.............................. CYCLE   64 ......................................
................................................................................
   1    -45.6244933 -0.456245E+02  0.410E-02    8.83       0.0  T
   2    -45.6244935 -0.168617E-06  0.308E-02    8.83       1.0  T
   3    -45.6244936 -0.155570E-06  0.306E-03    8.83       6.8  T
   4    -45.6244936 -0.203023E-07  0.112E-03    8.83      18.6  T
   5    -45.6244936 -0.109078E-08  0.327E-04    8.83      63.7  T
   6    -45.6244936 -0.111349E-09  0.187E-04    8.83     111.4  T
speedup  1.06
cpu  time for SCC    0.00 s
wall time for SCC    0.00 s
speedup  1.01
cpu  time for grad    0.01 s
wall time for grad    0.01 s
 E :    -45.36188970  G :  0.001349    pred/act E change: -0.738D-05 -0.683D-05
Maxdispl :   0.0758   ||displ|| :   0.0967   Lambda : -0.115D-04
Largest |displ|/coords:  0.0758 (   1)  0.0328 (   7)  0.0266 (  11)
................................................................................
.............................. CYCLE   65 ......................................
................................................................................
   1    -45.6246349 -0.456246E+02  0.578E-02    8.82       0.0  T
   2    -45.6246352 -0.336393E-06  0.435E-02    8.82       1.0  T
   3    -45.6246356 -0.354534E-06  0.415E-03    8.82       5.0  T
   4    -45.6246356 -0.307942E-07  0.155E-03    8.82      13.5  T
   5    -45.6246356 -0.183064E-08  0.467E-04    8.82      44.6  T
   6    -45.6246356 -0.192315E-09  0.251E-04    8.82      82.9  T
speedup  1.06
cpu  time for SCC    0.00 s
wall time for SCC    0.00 s
speedup  0.89
cpu  time for grad    0.01 s
wall time for grad    0.01 s
 E :    -45.36189803  G :  0.001434    pred/act E change: -0.472D-05 -0.833D-05
Maxdispl :   0.1177   ||displ|| :   0.1551   Lambda : -0.140D-04
Largest |displ|/coords:  0.1177 (   1)  0.0607 (   7)  0.0423 (  11)
................................................................................
.............................. CYCLE   66 ......................................
................................................................................
   1    -45.6243989 -0.456244E+02  0.907E-02    8.81       0.0  T
[...]
Maxdispl :   0.0069   ||displ|| :   0.0119   Lambda : -0.534D-06
Largest |displ|/coords:  0.0069 (   2)  0.0051 (   1)  0.0040 (   8)
................................................................................
.............................. CYCLE   84 ......................................
................................................................................
   1    -45.6254627 -0.456255E+02  0.107E-02    8.81       0.0  T
   2    -45.6254628 -0.131438E-07  0.813E-03    8.81       2.6  T
   3    -45.6254628 -0.142043E-07  0.680E-04    8.81      30.6  T
   4    -45.6254628 -0.109254E-08  0.267E-04    8.81      78.0  T
speedup  0.88
cpu  time for SCC    0.00 s
wall time for SCC    0.00 s
speedup  0.94
cpu  time for grad    0.01 s
wall time for grad    0.01 s
 E :    -45.36194970  G :  0.000300    pred/act E change: -0.189D-06 -0.327D-06
Maxdispl :   0.0072   ||displ|| :   0.0119   Lambda : -0.409D-06
Largest |displ|/coords:  0.0072 (   2)  0.0052 (   1)  0.0041 (   8)
................................................................................
.............................. CYCLE   85 ......................................
................................................................................
   1    -45.6254541 -0.456255E+02  0.893E-03    8.80       0.0  T
   2    -45.6254541 -0.531548E-08  0.669E-03    8.80       3.1  T
   3    -45.6254541 -0.450202E-08  0.508E-04    8.80      41.1  T
   4    -45.6254541 -0.705484E-09  0.207E-04    8.80     100.8  T
speedup  0.91
cpu  time for SCC    0.00 s
wall time for SCC    0.00 s
speedup  0.94
cpu  time for grad    0.01 s
wall time for grad    0.01 s
 E :    -45.36194988  G :  0.000335    pred/act E change: -0.267D-06 -0.183D-06
Maxdispl :   0.0088   ||displ|| :   0.0137   Lambda : -0.339D-06
Largest |displ|/coords:  0.0088 (   2)  0.0059 (   8)  0.0052 (   1)
................................................................................
.............................. CYCLE   86 ......................................
................................................................................
   1    -45.6254185 -0.456254E+02  0.109E-02    8.80       0.0  T
   2    -45.6254185 -0.132117E-07  0.830E-03    8.80       2.5  T
   3    -45.6254185 -0.146385E-07  0.631E-04    8.80      33.1  T
   4    -45.6254185 -0.106778E-08  0.270E-04    8.80      77.1  T
speedup  1.25
cpu  time for SCC    0.00 s
wall time for SCC    0.00 s
speedup  1.06
cpu  time for grad    0.01 s
wall time for grad    0.01 s
 E :    -45.36195010  G :  0.000207    pred/act E change: -0.162D-06 -0.220D-06
Maxdispl :   0.0087   ||displ|| :   0.0137   Lambda : -0.325D-06
Largest |displ|/coords:  0.0087 (   2)  0.0041 (   1)  0.0041 (   6)
................................................................................
.............................. CYCLE   87 ......................................
................................................................................
   1    -45.6253846 -0.456254E+02  0.857E-03    8.80       0.0  T
   2    -45.6253846 -0.710806E-08  0.645E-03    8.80       3.2  T
   3    -45.6253846 -0.656070E-08  0.502E-04    8.80      41.5  T
   4    -45.6253846 -0.866798E-09  0.208E-04    8.80     100.3  T
speedup  0.91
cpu  time for SCC    0.00 s
wall time for SCC    0.00 s
speedup  0.94
cpu  time for grad    0.01 s
wall time for grad    0.01 s
 E :    -45.36195029  G :  0.000175    pred/act E change: -0.170D-06 -0.196D-06
Maxdispl :   0.0052   ||displ|| :   0.0082   Lambda : -0.192D-06
Largest |displ|/coords:  0.0052 (   2)  0.0035 (   4)  0.0024 (  16)
................................................................................
.............................. CYCLE   88 ......................................
................................................................................
   1    -45.6253874 -0.456254E+02  0.350E-03    8.80       0.0  T
   2    -45.6253874 -0.182192E-08  0.263E-03    8.80       7.9  T
   3    -45.6253874 -0.153749E-08  0.296E-04    8.80      70.4  T
   4    -45.6253874 -0.240171E-09  0.102E-04    8.80     205.4  T
speedup  0.91
cpu  time for SCC    0.00 s
wall time for SCC    0.00 s
speedup  0.94
cpu  time for grad    0.01 s
wall time for grad    0.01 s
 E :    -45.36195044  G :  0.000201    pred/act E change: -0.163D-06 -0.142D-06
Maxdispl :   0.0084   ||displ|| :   0.0129   Lambda : -0.210D-06
Largest |displ|/coords:  0.0084 (   2)  0.0061 (   4)  0.0034 (  16)
................................................................................
.............................. CYCLE   89 ......................................
................................................................................
   1    -45.6254162 -0.456254E+02  0.569E-03    8.80       0.0  T
   2    -45.6254162 -0.310440E-08  0.426E-03    8.80       4.9  T
   3    -45.6254162 -0.334395E-08  0.413E-04    8.80      50.5  T
   4    -45.6254162 -0.287592E-09  0.138E-04    8.80     151.3  T
speedup  1.14
cpu  time for SCC    0.00 s
wall time for SCC    0.00 s
speedup  1.03
cpu  time for grad    0.01 s
wall time for grad    0.01 s
 E :    -45.36195058  G :  0.000175    pred/act E change: -0.961D-07 -0.143D-06
Maxdispl :   0.0081   ||displ|| :   0.0117   Lambda : -0.133D-06
Largest |displ|/coords:  0.0081 (   2)  0.0057 (   4)  0.0028 (  10)
................................................................................
.............................. CYCLE   90 ......................................
................................................................................
   1    -45.6254441 -0.456254E+02  0.579E-03    8.80       0.0  T
   2    -45.6254441 -0.282924E-08  0.434E-03    8.80       4.8  T
   3    -45.6254441 -0.326084E-08  0.369E-04    8.80      56.5  T
   4    -45.6254441 -0.215969E-09  0.138E-04    8.80     151.1  T
speedup  1.21
cpu  time for SCC    0.00 s
wall time for SCC    0.00 s
speedup  1.05
cpu  time for grad    0.01 s
wall time for grad    0.01 s
 E :    -45.36195068  G :  0.000116    pred/act E change: -0.105D-06 -0.102D-06
Maxdispl :   0.0130   ||displ|| :   0.0187   Lambda : -0.185D-06
Largest |displ|/coords:  0.0130 (   2)  0.0093 (   4)  0.0043 (  10)
................................................................................
.............................. CYCLE   91 ......................................
................................................................................
   1    -45.6254640 -0.456255E+02  0.103E-02    8.80       0.0  T
   2    -45.6254640 -0.854433E-08  0.775E-03    8.80       2.7  T
   3    -45.6254640 -0.102495E-07  0.634E-04    8.80      32.9  T
   4    -45.6254640 -0.497067E-09  0.215E-04    8.80      97.1  T
speedup  0.94
cpu  time for SCC    0.00 s
wall time for SCC    0.00 s
speedup  0.95
cpu  time for grad    0.01 s
wall time for grad    0.01 s
 E :    -45.36195082  G :  0.000126    pred/act E change: -0.664D-07 -0.142D-06
Maxdispl :   0.0119   ||displ|| :   0.0174   Lambda : -0.150D-06
Largest |displ|/coords:  0.0119 (   2)  0.0087 (   4)  0.0053 (   5)
................................................................................
.............................. CYCLE   92 ......................................
................................................................................
   1    -45.6254564 -0.456255E+02  0.107E-02    8.80       0.0  T
   2    -45.6254564 -0.927348E-08  0.802E-03    8.80       2.6  T
   3    -45.6254564 -0.110440E-07  0.652E-04    8.80      32.0  T
   4    -45.6254564 -0.483958E-09  0.212E-04    8.80      98.4  T
speedup  1.21
cpu  time for SCC    0.00 s
wall time for SCC    0.00 s
speedup  1.05
cpu  time for grad    0.01 s
wall time for grad    0.01 s
 E :    -45.36195094  G :  0.000144    pred/act E change: -0.927D-07 -0.121D-06
Maxdispl :   0.0116   ||displ|| :   0.0175   Lambda : -0.136D-06
Largest |displ|/coords:  0.0116 (   2)  0.0087 (   4)  0.0067 (   5)
................................................................................
.............................. CYCLE   93 ......................................
................................................................................
   1    -45.6254314 -0.456254E+02  0.114E-02    8.80       0.0  T
   2    -45.6254315 -0.115398E-07  0.852E-03    8.80       2.4  T
   3    -45.6254315 -0.130275E-07  0.766E-04    8.80      27.2  T
   4    -45.6254315 -0.705526E-09  0.246E-04    8.80      84.6  T
speedup  0.97
cpu  time for SCC    0.00 s
wall time for SCC    0.00 s
speedup  0.97
cpu  time for grad    0.01 s
wall time for grad    0.01 s
 E :    -45.36195105  G :  0.000134    pred/act E change: -0.751D-07 -0.109D-06
Maxdispl :   0.0033   ||displ|| :   0.0049   Lambda : -0.907D-07
Largest |displ|/coords:  0.0033 (   5)  0.0017 (   6)  0.0017 (   2)
................................................................................
.............................. CYCLE   94 ......................................
................................................................................
   1    -45.6254186 -0.456254E+02  0.362E-03    8.80       0.0  T
   2    -45.6254186 -0.237340E-08  0.268E-03    8.80       7.8  T
   3    -45.6254186 -0.170685E-08  0.395E-04    8.80      52.8  T
   4    -45.6254186 -0.297376E-09  0.108E-04    8.80     193.4  T
speedup  1.25
cpu  time for SCC    0.00 s
wall time for SCC    0.00 s
speedup  1.06
cpu  time for grad    0.01 s
wall time for grad    0.01 s
 E :    -45.36195112  G :  0.000103    pred/act E change: -0.682D-07 -0.708D-07
Maxdispl :   0.0175   ||displ|| :   0.0283   Lambda : -0.210D-06
Largest |displ|/coords:  0.0175 (   2)  0.0136 (   5)  0.0119 (   4)

   *** GEOMETRY OPTIMIZATION CONVERGED AFTER 94 ITERATIONS ***

------------------------------------------------------------------------
 total energy gain (kcal):     -0.0013
------------------------------------------------------------------------
================
 final structure:
================
$coord
       -0.60227086736900        3.00876530982399       -0.02913105233461      S 
        1.27889761707993        4.88820077335011       -0.41937926538801      O 
        0.02188067284411        1.03964450023591        1.75918269112162      O 
       -1.26471703736816        1.77193364975667       -2.58749832023801      O 
       -3.10054314141634        4.24295505689356        0.81113501807248      O 
       -4.24750212438074        2.74715658280341        1.27275109920752      H 
       -1.69766175406101       -0.08513882815321       -2.38905091903252      H 
       -2.14063579346888       -2.95280054888588       -2.17199515547907      O 
       -0.32421161876800       -3.34198339345583       -1.77240479778150      H 
       -2.39831646283073       -3.58976629566493       -3.85170760721391      H 
        4.55659113710786       -0.94046413350098        2.79473145807305      O 
        5.05075629761257       -0.50321350153098        4.48017849376227      H 
        2.88651765388010       -0.19481710052536        2.53097328670780      H 
        4.60404506556339        1.21186326326319       -2.15550943729201      O 
        3.61274904413548        2.72362278443256       -1.89561059505626      H 
        5.40755965723948        0.86027968076577       -0.55325818247528      H 
        2.67914285562836       -3.50288319792617       -1.56342570236132      O 
        3.32646796224741       -1.91587294885535       -2.26083782238559      H 
        3.29539805280773       -3.49451382244981        0.15235107828312      H 
       -5.21681673191521       -0.00429671737856        1.85387383943499      N 
       -6.58399267545478       -0.30270621510175        3.15645002245090      H 
       -3.53526695310853       -0.62199972889625        2.54231803097375      H 
       -5.60807085599430       -1.04396516897723        0.29586383895598      H 
$end
 
 Bond Distances (Angstroems)
 ---------------------------
S1-O2=1.4222         S1-O3=1.4458         S1-O4=1.5441         S1-O5=1.5401         O2-S1=1.4222         O3-S1=1.4458         
O4-S1=1.5441         O4-H7=1.0145         O5-S1=1.5401         O5-H6=1.0269         H6-O5=1.0269         H7-O4=1.0145         
O8-H9=1.0055         O8-H10=0.9604        H9-O8=1.0055         H10-O8=0.9604        O11-H12=0.9578       O11-H13=0.9779       
H12-O11=0.9578       H13-O11=0.9779       O14-H15=0.9665       O14-H16=0.9666       H15-O14=0.9665       H16-O14=0.9666       
O17-H18=0.9792       O17-H19=0.9647       H18-O17=0.9792       H19-O17=0.9647       N20-H21=1.0117       N20-H22=1.0156       
N20-H23=1.0126       H21-N20=1.0117       H22-N20=1.0156       H23-N20=1.0126       
 N  H  Rav=1.0133 sigma=0.0017  Rmin=1.0117  Rmax=1.0156     3
 O  H  Rav=0.9820 sigma=0.0234  Rmin=0.9578  Rmax=1.0269    10
 S  O  Rav=1.4881 sigma=0.0547  Rmin=1.4222  Rmax=1.5441     4
 
 selected bond angles (degree)
 --------------------
O3-S1-O2=116.05                O4-S1-O2=109.15                O4-S1-O3=108.68                O5-S1-O2=110.25                
O5-S1-O3=108.22                O5-S1-O4=103.77                H7-O4-S1=111.78                H6-O5-S1=104.43                
H10-O8-H9=104.98               
 
 selected dihedral angles (degree)
 ---------------------------------
H7-O4-S1-O2=146.17            H7-O4-S1-O3= 18.72            H7-O4-S1-O5=263.72            H6-O5-S1-O2=187.42            
H6-O5-S1-O3=315.32            H6-O5-S1-O4= 70.65            
 
 CMA Distance (Angstroems)
 ---------------------------
R(CMA):  2.4063

========================================================================
 FINAL SINGLEPOINT CALCULATION ON OPTIMIZED GEOMETRY
========================================================================

 Ncao       : 59
 Nao        : 58
 Nshell     : 34
 Nel        : 72
 T(el)      :   300.0
 intcut     :    25.0
 scfconv/Eh :  0.100E-05
   qconv/e  :  0.100E-03
 intneglect :  0.100E-07
 broydamp   :      0.250
 iter      E             dE          RMSdq      gap      omega  full diag
   1    -45.6254186 -0.456254E+02  0.312E-05    8.80       0.0  T
   2    -45.6254186 -0.174083E-11  0.200E-05    8.80    1041.1  T
   3    -45.6254186 -0.540012E-12  0.734E-06    8.80    2841.7  T
speedup  0.83
cpu  time for SCC    0.00 s
wall time for SCC    0.00 s

   *** convergence criteria satisfied after 3 iterations ***

          eigenvalues
 #    :          24         25         26         27         28         29         30         31
 occ. :        2.000      2.000      2.000      2.000      2.000      2.000      2.000      2.000
 eps  :       -13.810    -13.669    -13.522    -13.151    -12.786    -12.753    -12.572    -12.531
 #    :          32         33         34         35         36         37         38         39
 occ. :        2.000      2.000      2.000      2.000      2.000      0.000      0.000      0.000
 eps  :       -12.330    -12.018    -11.970    -11.759    -11.679     -2.879     -0.654     -0.557
 #    :          40         41         42         43         44         45         46         47
 occ. :        0.000      0.000      0.000      0.000      0.000      0.000      0.000      0.000
 eps  :         0.389      0.636      0.814      2.214      3.935      4.349      4.767      5.220


   #   Z            q   n(s)   n(p)   n(d)      C6AA      α(0)
   1  16 S      1.700  1.582  1.774  0.944    88.761    15.857
   2   8 O     -0.656  1.748  4.908  0.000    27.540     7.036
   3   8 O     -0.731  1.760  4.971  0.000    29.581     7.292
   4   8 O     -0.624  1.758  4.866  0.000    25.738     6.849
   5   8 O     -0.603  1.755  4.848  0.000    25.228     6.780
   6   1 H      0.364  0.636  0.000  0.000     0.548     1.159
   7   1 H      0.391  0.609  0.000  0.000     0.499     1.109
   8   8 O     -0.619  1.762  4.858  0.000    25.651     6.836
   9   1 H      0.352  0.648  0.000  0.000     0.584     1.201
  10   1 H      0.297  0.703  0.000  0.000     0.729     1.341
  11   8 O     -0.619  1.740  4.879  0.000    25.649     6.835
  12   1 H      0.279  0.721  0.000  0.000     0.786     1.393
  13   1 H      0.323  0.677  0.000  0.000     0.655     1.272
  14   8 O     -0.614  1.740  4.873  0.000    25.512     6.817
  15   1 H      0.301  0.699  0.000  0.000     0.717     1.330
  16   1 H      0.313  0.687  0.000  0.000     0.683     1.298
  17   8 O     -0.613  1.750  4.863  0.000    25.495     6.815
  18   1 H      0.331  0.669  0.000  0.000     0.636     1.253
  19   1 H      0.316  0.684  0.000  0.000     0.675     1.290
  20   7 N     -0.448  1.357  4.090  0.000    31.732     8.366
  21   1 H      0.175  0.825  0.000  0.000     1.241     1.745
  22   1 H      0.196  0.804  0.000  0.000     1.126     1.662
  23   1 H      0.187  0.813  0.000  0.000     1.176     1.699

 Mol. C6AA /au·bohr⁶  :       4497.591963
 Mol. C8AA /au·bohr⁸  :      98808.199951
 Mol. α(0) /au        :         97.233334

 
 Wiberg/Mayer (AO) data. WBOs > 0.1 written file <wbo>
 largest (>0.05) Wiberg bond orders for each atom
           total WBO             WBO to atom ...
     1  S   4.837    O    2 1.467    O    3 1.332    O    5 1.006    O    4 0.994
     2  O   1.808    S    1 1.467    O    3 0.121    O    4 0.079    O    5 0.079
     3  O   1.721    S    1 1.332    O    2 0.121    O    4 0.091    O    5 0.088
     4  O   1.965    S    1 0.994    H    7 0.682    O    3 0.091    O    2 0.079    O    5 0.066
     5  O   1.987    S    1 1.006    H    6 0.682    O    3 0.088    O    2 0.079    O    4 0.066    N   20 0.058
     6  H   0.868    O    5 0.682    N   20 0.170
     7  H   0.847    O    4 0.682    O    8 0.146
     8  O   1.932    H   10 0.909    H    9 0.769    H    7 0.146
     9  H   0.876    O    8 0.769    O   17 0.105
    10  H   0.912    O    8 0.909
    11  O   1.829    H   12 0.916    H   13 0.840
    12  H   0.922    O   11 0.916
    13  H   0.895    O   11 0.840
    14  O   1.859    H   16 0.883    H   15 0.874
    15  H   0.909    O   14 0.874
    16  H   0.902    O   14 0.883
    17  O   1.908    H   19 0.882    H   18 0.840    H    9 0.105
    18  H   0.891    O   17 0.840
    19  H   0.900    O   17 0.882
    20  N   3.118    H   21 0.966    H   23 0.960    H   22 0.948    H    6 0.170    O    5 0.058
    21  H   0.969    N   20 0.966
    22  H   0.962    N   20 0.948
    23  H   0.965    N   20 0.960
 MOs/occ written to file <molden.input>
 
molecular dipole:
                 x           y           z       tot (Debye)
 q only:       -1.514      -1.199       0.623
   full:       -1.711      -1.267       0.985       5.963
molecular quadrupole (traceless):
                xx          xy          yy          xz          yz          zz
 q only:        7.090       2.390     -11.913       3.383       3.503       4.824
  q+dip:        6.518       5.470     -13.523       5.890       3.156       7.005
   full:        6.648       5.321     -13.936       6.102       3.425       7.287

SCC energy    :     -45.6254186
rep           :       0.2632440
ES            :       0.2046745
AES           :      -0.0472881
AXC           :      -0.0070446
disp          :      -0.0170067
XB            :       0.0000000
fix           :       0.0000000
total E       :     -45.3619511
atomizationE  :       4.4450136     2789.29
(atE without considering molecular charge,
 total energy contains solvation terms)
H-L gap (eV)  :          8.8007
optimized geometry written to: xtbopt.xyz


------------------------------------------------------------------------
 * finished run on 2019/09/16 at 11:11:54.283     
------------------------------------------------------------------------
 total:
 * wall-time:     0 d,  0 h,  0 min,  1.851 sec
 *  cpu-time:     0 d,  0 h,  0 min,  1.832 sec
 * ratio c/w:     0.990 speedup
 SCF:
 * wall-time:     0 d,  0 h,  0 min,  0.122 sec
 *  cpu-time:     0 d,  0 h,  0 min,  0.119 sec
 * ratio c/w:     0.975 speedup
 ANC optimizer:
 * wall-time:     0 d,  0 h,  0 min,  1.704 sec
 *  cpu-time:     0 d,  0 h,  0 min,  1.689 sec
 * ratio c/w:     0.991 speedup

