      -----------------------------------------------------------      
     |                   =====================                   |     
     |                           x T B                           |     
     |                   =====================                   |     
     |                         S. Grimme                         |     
     |          Mulliken Center for Theoretical Chemistry        |     
     |                    University of Bonn                     |     
     |                 Version 6.0.1 (SAW181210)                 |     
      -----------------------------------------------------------      

   This program is distributed in the hope that it will be useful,
   but WITHOUT ANY WARRANTY; without even the implied warranty of
   MERCHANTABILITY or FITNESS FOR A PARTICULAR PURPOSE.
   
   FOR NON-COMMERCIAL, ACADEMIA USE ONLY.
   
   Cite this work as:
   S. Grimme, C. Bannwarth, P. Shushkov, J. Comput. Theory Chem., 2017,
   13, 1989-2009.
   C. Bannwarth, S. Ehlert and S. Grimme., ChemRxiv, 2018, preprint.
   http://doi.org/10.26434/chemrxiv.7246238.v1
   
   for sTDA-xTB:
   S. Grimme and C. Bannwarth, J. Chem. Phys., 2016, 145, 054103.
   
   in the mass-spec context:
   V. Asgeirsson, C. Bauer and S. Grimme, Chem. Sci., 2017, 8, 4879.
   
   if GBSA is used:
   P. Shushkov, F. März and S. Grimme, unpublished.
   
   for ANC optimizer:
   S. Grimme, unpublished.
   Rational Function algorithm used in ANCopt:
   F. Eckert, P. Pulay, H.-J. Werner, J. Comput. Chem., 1997, 18, 1473.
   
   with help from (in alphabetical order)
   C. Bannwarth, F. Bohle, G. Brandenburg, E. Caldeweyher, M. Checinski,
   S. Dohm, S. Ehlert, S. Ehrlich, F. März, H. Neugebauer, J. Pisarek,
   P. Pracht, P. Shushkov, and S. Spicher.
   
 * started run on 2019/09/16 at 11:12:23.904     
========================================================================
 # omp threads = 1
========================================================================
number of atoms            : 23
number of electrons        : 72
charge                     : 0
spin                       : .0
first test random number   : .5075

########################################################################
# WARNING! Please study the warnings concerning your input carefully
#  - XTBPATH is not set, using XTBHOME instead
#  - the use of '-opt' is discouraged, please use '--opt' next time
#  - the use of '-chrg' is discouraged, please use '--chrg' next time
#  - the use of '-uhf' is discouraged, please use '--uhf' next time
########################################################################

           ------------------------------------------------- 
          |                 G F N 2 - x T B                 |
          | Geometry, Frequencies, Noncovalent interactions |
          |            JCTC 2018 parametrisation            |
           ------------------------------------------------- 
      method parameters     
 k(s)        :  1.8500
 k(p)        :  2.2300
 k(d)        :  2.2300
 k(f)        :  2.0000
 kEN (H0ij)  : -2.0000
 D4 a1       :  0.5200
 D4 a2       :  5.0000
 D4 s6       :  1.0000
 D4 s8       :  2.7000
 D4 s9       :  5.0000
 alphaj      :  2.0000


            Z     q(EN)     CN     RAES       Cart. coordinates
     1  S   6.0    0.60    4.53    4.60     0.10781    -3.09885     0.99221
     2  O   6.0   -0.31    1.20    1.80     2.71956    -2.69043     1.96177
     3  O   6.0   -0.29    1.12    1.80    -0.39873    -5.86156     0.79479
     4  O   6.0   -0.27    2.10    1.84    -0.14227    -1.93039    -1.51471
     5  O   6.0   -0.25    2.10    1.84    -1.71851    -1.94525     2.73757
     6  H   1.0    0.16    1.29    1.49    -2.67768    -0.67940     1.86081
     7  H   1.0    0.15    1.27    1.48     1.05046    -2.68342    -2.65552
     8  O   6.0   -0.29    2.02    1.83     4.87124     1.69085     3.14960
     9  H   1.0    0.18    1.05    1.44     4.31068    -0.00081     2.77723
    10  H   1.0    0.15    0.97    1.43     6.24396     1.49445     4.32929
    11  O   6.0   -0.28    2.04    1.83    -3.55416     2.10484     0.46250
    12  H   1.0    0.17    1.03    1.43    -2.00449     3.05993     0.49304
    13  H   1.0    0.17    1.04    1.43    -4.85074     3.30492     0.02283
    14  O   6.0   -0.29    2.01    1.83     1.10642     4.03975     0.75435
    15  H   1.0    0.17    1.04    1.43     2.42292     3.24173     1.72626
    16  H   1.0    0.14    0.97    1.43     1.87107     5.52959     0.04001
    17  O   6.0   -0.29    2.00    1.83    -7.03387     5.59621    -0.72436
    18  H   1.0    0.14    0.97    1.43    -7.93313     5.79660    -2.29465
    19  H   1.0    0.14    0.97    1.43    -7.87770     6.69455     0.45725
    20  N   5.0   -0.22    3.01    1.93     3.11288    -5.41709    -3.88895
    21  H   1.0    0.12    1.00    1.43     2.21401    -6.62160    -2.68385
    22  H   1.0    0.11    0.99    1.43     4.91746    -5.26906    -3.23119
    23  H   1.0    0.10    0.99    1.43     3.24280    -6.35556    -5.56628

  Z AO/shell   Hii/eV     exponent
  1     Wed Apr 25 08:07:45 CEST 2018   EN: 2.200 GM2: 0.406  GM3: 0.0800  RAES: 1.40
     1s    -10.707211    1.230000
  7     Wed Apr 25 08:07:45 CEST 2018   EN: 3.040 GM2: 0.461  GM3:-0.0640  RAES: 1.90
     2s    -16.686243    2.339881
     2p    -12.523956    2.014332
  8     Wed Apr 25 08:07:45 CEST 2018   EN: 3.440 GM2: 0.452  GM3:-0.0517  RAES: 1.80
     2s    -20.229985    2.439742
     2p    -15.503117    2.137023
 16     Tue Apr 24 11:44:34 CEST 2018   EN: 2.580 GM2: 0.340  GM3:-0.0502  RAES: 3.10
     3s    -20.029654    1.981333
     3p    -11.377694    2.025643
     3d     -0.420282    1.702555
 no old-style atom pair restraining (fixing) potential

molecular fragmentation (1/2 indicates fragments):
11111112222222222222222
# atoms in fragment 1/2:     7    16
 fragment masses (1/2) :       98.07       89.09
CMA distance (Bohr)    :   4.872
constraining FC (au)   :  0.0500
           ------------------------------------------------- 
          |        Self-Consistent Charge Iterations        |
           ------------------------------------------------- 

 Ncao       : 59
 Nao        : 58
 Nshell     : 34
 Nel        : 72
 T(el)      :   300.0
 intcut     :    25.0
 scfconv/Eh :  0.100E-05
   qconv/e  :  0.100E-03
 intneglect :  0.100E-07
 broydamp   :      0.250
 iter      E             dE          RMSdq      gap      omega  full diag
   1    -45.4994990 -0.454995E+02  0.717E+00   10.38       0.0  T
   2    -45.5519253 -0.524264E-01  0.516E+00    9.84       1.0  T
   3    -45.5871263 -0.352010E-01  0.150E+00    8.96       1.0  T
   4    -45.5929747 -0.584840E-02  0.592E-01    9.18       1.0  T
   5    -45.5935370 -0.562263E-03  0.375E-01    9.09       1.0  T
   6    -45.5941438 -0.606797E-03  0.164E-01    9.09       1.0  T
   7    -45.5942914 -0.147576E-03  0.641E-02    9.10       1.0  T
   8    -45.5943122 -0.208321E-04  0.357E-02    9.09       1.0  T
   9    -45.5943188 -0.658905E-05  0.146E-02    9.09       1.4  T
  10    -45.5943201 -0.132262E-05  0.309E-03    9.09       6.7  T
  11    -45.5943201 -0.213283E-07  0.147E-03    9.09      14.2  T
  12    -45.5943201 -0.887610E-08  0.628E-04    9.09      33.2  T
  13    -45.5943201 -0.193520E-08  0.150E-04    9.09     138.8  T
speedup  0.96
cpu  time for SCC    0.01 s
wall time for SCC    0.01 s

   *** convergence criteria satisfied after 13 iterations ***

          eigenvalues
 #    :          24         25         26         27         28         29         30         31
 occ. :        2.000      2.000      2.000      2.000      2.000      2.000      2.000      2.000
 eps  :       -13.505    -13.221    -12.926    -12.666    -12.314    -11.852    -11.774    -11.718
 #    :          32         33         34         35         36         37         38         39
 occ. :        2.000      2.000      2.000      2.000      2.000      0.000      0.000      0.000
 eps  :       -11.588    -11.382    -11.292    -11.089    -11.003     -1.915     -0.797      0.132
 #    :          40         41         42         43         44         45         46         47
 occ. :        0.000      0.000      0.000      0.000      0.000      0.000      0.000      0.000
 eps  :         0.732      1.182      1.400      1.677      3.616      4.849      5.152      5.289


   #   Z            q   n(s)   n(p)   n(d)      C6AA      α(0)
   1  16 S      1.659  1.577  1.807  0.958    89.703    15.941
   2   8 O     -0.721  1.768  4.953  0.000    29.285     7.256
   3   8 O     -0.707  1.774  4.933  0.000    28.912     7.209
   4   8 O     -0.548  1.707  4.841  0.000    23.940     6.605
   5   8 O     -0.538  1.711  4.827  0.000    23.712     6.574
   6   1 H      0.416  0.584  0.000  0.000     0.449     1.048
   7   1 H      0.398  0.602  0.000  0.000     0.482     1.086
   8   8 O     -0.617  1.736  4.881  0.000    25.593     6.828
   9   1 H      0.326  0.674  0.000  0.000     0.647     1.263
  10   1 H      0.283  0.717  0.000  0.000     0.775     1.383
  11   8 O     -0.658  1.747  4.910  0.000    26.615     6.963
  12   1 H      0.325  0.675  0.000  0.000     0.650     1.267
  13   1 H      0.324  0.676  0.000  0.000     0.653     1.270
  14   8 O     -0.615  1.742  4.873  0.000    25.544     6.821
  15   1 H      0.335  0.665  0.000  0.000     0.624     1.241
  16   1 H      0.280  0.720  0.000  0.000     0.784     1.391
  17   8 O     -0.565  1.736  4.829  0.000    24.372     6.663
  18   1 H      0.295  0.705  0.000  0.000     0.736     1.348
  19   1 H      0.296  0.704  0.000  0.000     0.734     1.346
  20   7 N     -0.463  1.397  4.066  0.000    32.194     8.427
  21   1 H      0.175  0.825  0.000  0.000     1.241     1.745
  22   1 H      0.159  0.841  0.000  0.000     1.340     1.814
  23   1 H      0.160  0.840  0.000  0.000     1.335     1.810

 Mol. C6AA /au·bohr⁶  :       4498.296415
 Mol. C8AA /au·bohr⁸  :      98800.152998
 Mol. α(0) /au        :         97.296767

 
 Wiberg/Mayer (AO) data. WBOs > 0.1 written file <wbo>
 largest (>0.05) Wiberg bond orders for each atom
           total WBO             WBO to atom ...
     1  S   4.865    O    3 1.377    O    2 1.332    O    5 1.085    O    4 1.036
     2  O   1.704    S    1 1.332    O    3 0.130    O    4 0.087    O    5 0.080
     3  O   1.702    S    1 1.377    O    2 0.130    O    4 0.090    O    5 0.083
     4  O   2.052    S    1 1.036    H    7 0.768    O    3 0.090    O    2 0.087
     5  O   2.068    S    1 1.085    H    6 0.738    O    3 0.083    O    2 0.080
     6  H   0.827    O    5 0.738    O   11 0.063
     7  H   0.842    O    4 0.768    N   20 0.052
     8  O   1.833    H   10 0.907    H    9 0.841
     9  H   0.893    O    8 0.841
    10  H   0.920    O    8 0.907
    11  O   1.827    H   12 0.850    H   13 0.845    H    6 0.063
    12  H   0.894    O   11 0.850
    13  H   0.895    O   11 0.845
    14  O   1.837    H   16 0.916    H   15 0.839
    15  H   0.888    O   14 0.839
    16  H   0.922    O   14 0.916
    17  O   1.869    H   18 0.907    H   19 0.907
    18  H   0.913    O   17 0.907
    19  H   0.912    O   17 0.907
    20  N   2.981    H   22 0.973    H   23 0.970    H   21 0.960    H    7 0.052
    21  H   0.969    N   20 0.960
    22  H   0.975    N   20 0.973
    23  H   0.974    N   20 0.970
 MOs/occ written to file <molden.input>
 
molecular dipole:
                 x           y           z       tot (Debye)
 q only:       -0.698       1.925      -1.285
   full:       -0.635       2.199      -1.452       6.889
molecular quadrupole (traceless):
                xx          xy          yy          xz          yz          zz
 q only:       11.370     -15.388      -6.766       0.105       7.594      -4.605
  q+dip:       14.826     -21.764      -5.391       1.332       9.873      -9.436
   full:       14.921     -22.059      -5.687       1.481       9.691      -9.234

SCC energy    :     -45.5943201
rep           :       0.2825531
ES            :       0.2199867
AES           :      -0.0387099
AXC           :      -0.0060100
disp          :      -0.0137519
XB            :       0.0000000
fix           :       0.0000000
total E       :     -45.3116845
atomizationE  :       4.3947470     2757.75
(atE without considering molecular charge,
 total energy contains solvation terms)
H-L gap (eV)  :          9.0885
           ------------------------------------------------- 
          |                 ===============                 |
          |                   A N C O P T                   |
          |                 ===============                 |
          |          Approximate Normal Coordinate          |
          |           Rational Function Optimizer           |
           ------------------------------------------------- 
dumping coords to <xtbopt.coord> and <xtbopt.log>
 optlevel               2
 Maxcycle             460
 Maxmicro              25
 Econv         1.000000000000000E-007
 Gconv         2.000000000000000E-004
 Maxdispl       1.00000000000000     
 Hlow          5.000000000000000E-003
 S6             20.0000000000000     
 Nvar               63

generating ANC from model Hessian ...
 Shifting diagonal of input Hessian by   5.150120002546365E-003
 Lowest  eigenvalues of input Hessian
    0.005000    0.005024    0.005122   -0.000000   -0.000000   -0.000000
   -0.000000    0.000000    0.000000    0.005216    0.005316    0.005531
    0.005570    0.005615    0.005939    0.006159    0.006255    0.006774
 Highest eigenvalues
    1.433709    1.453971    1.550619    3.210919    3.409545    3.459982
 
cpu  time for ANC gen    0.00 s
wall time for ANC gen    0.01 s
................................................................................
.............................. CYCLE    1 ......................................
................................................................................
   1    -45.5943201 -0.455943E+02  0.660E-05    9.09       0.0  T
   2    -45.5943201 -0.107789E-10  0.498E-05    9.09     418.4  T
   3    -45.5943201 -0.623146E-11  0.327E-05    9.09     637.1  T
speedup  0.80
cpu  time for SCC    0.00 s
wall time for SCC    0.00 s
speedup  0.99
cpu  time for grad    0.01 s
wall time for grad    0.01 s
 E :    -45.31168447  G :  0.183328    pred/act E change:  0.000D+00  0.264D-07
Maxdispl :   0.1883   ||displ|| :   0.3270   Lambda : -0.160D-01
Largest |displ|/coords:  0.1883 (  21)  0.1299 (  27)  0.1064 (  17)
................................................................................
.............................. CYCLE    2 ......................................
................................................................................
   1    -45.5988692 -0.455989E+02  0.321E-01    9.05       0.0  T
   2    -45.5991028 -0.233526E-03  0.249E-01    9.09       1.0  T
   3    -45.5991668 -0.640839E-04  0.145E-01    9.10       1.0  T
   4    -45.5991742 -0.739054E-05  0.233E-02    9.11       1.0  T
   5    -45.5991753 -0.108717E-05  0.503E-03    9.11       4.1  T
   6    -45.5991754 -0.289604E-07  0.235E-03    9.11       8.9  T
speedup  1.00
cpu  time for SCC    0.00 s
wall time for SCC    0.01 s
speedup  1.00
cpu  time for grad    0.01 s
wall time for grad    0.01 s
 E :    -45.32478944  G :  0.122255    pred/act E change:  0.000D+00 -0.131D-01
Maxdispl :   0.1871   ||displ|| :   0.3398   Lambda : -0.976D-02
Largest |displ|/coords:  0.1871 (  21)  0.1222 (  17)  0.1036 (  27)
................................................................................
.............................. CYCLE    3 ......................................
................................................................................
   1    -45.6043058 -0.456043E+02  0.258E-01    9.06       0.0  T
   2    -45.6045250 -0.219121E-03  0.203E-01    9.07       1.0  T
   3    -45.6045815 -0.565757E-04  0.133E-01    9.09       1.0  T
   4    -45.6045859 -0.441977E-05  0.232E-02    9.11       1.0  T
   5    -45.6045867 -0.751753E-06  0.396E-03    9.11       5.3  T
   6    -45.6045867 -0.193429E-07  0.198E-03    9.11      10.5  T
speedup  1.04
cpu  time for SCC    0.00 s
wall time for SCC    0.00 s
speedup  1.02
cpu  time for grad    0.01 s
wall time for grad    0.01 s
 E :    -45.33247221  G :  0.068559    pred/act E change: -0.886D-02 -0.768D-02
Maxdispl :   0.1660   ||displ|| :   0.3323   Lambda : -0.476D-02
Largest |displ|/coords:  0.1660 (  21)  0.1572 (  17)  0.1285 (  10)
................................................................................
.............................. CYCLE    4 ......................................
................................................................................
   1    -45.6058328 -0.456058E+02  0.270E-01    8.98       0.0  T
   2    -45.6059647 -0.131906E-03  0.211E-01    8.99       1.0  T
   3    -45.6060001 -0.354145E-04  0.100E-01    9.01       1.0  T
   4    -45.6060077 -0.751910E-05  0.216E-02    9.03       1.0  T
   5    -45.6060082 -0.584980E-06  0.312E-03    9.03       6.7  T
   6    -45.6060082 -0.113466E-07  0.176E-03    9.03      11.8  T
speedup  1.06
cpu  time for SCC    0.00 s
wall time for SCC    0.00 s
speedup  1.03
cpu  time for grad    0.01 s
wall time for grad    0.01 s
 E :    -45.33592994  G :  0.035296    pred/act E change: -0.544D-02 -0.346D-02
Maxdispl :   0.1929   ||displ|| :   0.4945   Lambda : -0.438D-02
Largest |displ|/coords:  0.1929 (  12)  0.1668 (   1)  0.1575 (   8)
................................................................................
.............................. CYCLE    5 ......................................
................................................................................
   1    -45.6102659 -0.456103E+02  0.474E-01    8.78       0.0  T
   2    -45.6105258 -0.259927E-03  0.366E-01    8.78       1.0  T
   3    -45.6105958 -0.700041E-04  0.130E-01    8.80       1.0  T
   4    -45.6106251 -0.293241E-04  0.322E-02    8.81       1.0  T
   5    -45.6106268 -0.162968E-05  0.489E-03    8.81       4.3  T
   6    -45.6106268 -0.234734E-07  0.289E-03    8.81       7.2  T
speedup  0.85
cpu  time for SCC    0.00 s
wall time for SCC    0.00 s
speedup  0.93
cpu  time for grad    0.01 s
wall time for grad    0.01 s
 E :    -45.33637144  G :  0.040561    pred/act E change: -0.264D-02 -0.441D-03
Maxdispl :   0.1759   ||displ|| :   0.3239   Lambda : -0.351D-02
Largest |displ|/coords:  0.1759 (  17)  0.1698 (   8)  0.0850 (  19)
................................................................................
.............................. CYCLE    6 ......................................
................................................................................
   1    -45.6108990 -0.456109E+02  0.478E-01    8.63       0.0  T
   2    -45.6109785 -0.795383E-04  0.359E-01    8.62       1.0  T
   3    -45.6110326 -0.540255E-04  0.638E-02    8.59       1.0  T
   4    -45.6110432 -0.105839E-04  0.146E-02    8.59       1.4  T
   5    -45.6110437 -0.510882E-06  0.547E-03    8.59       3.8  T
   6    -45.6110437 -0.122449E-07  0.297E-03    8.60       7.0  T
speedup  1.06
cpu  time for SCC    0.00 s
wall time for SCC    0.00 s
speedup  1.02
cpu  time for grad    0.01 s
wall time for grad    0.01 s
 E :    -45.33748725  G :  0.035154    pred/act E change: -0.273D-02 -0.112D-02
Maxdispl :   0.2634   ||displ|| :   0.4508   Lambda : -0.365D-02
Largest |displ|/coords:  0.2634 (  15)  0.2003 (  14)  0.1681 (  19)
................................................................................
.............................. CYCLE    7 ......................................
................................................................................
   1    -45.5822998 -0.455823E+02  0.764E-01    8.54       0.0  T
   2    -45.5826004 -0.300603E-03  0.573E-01    8.52       1.0  T
   3    -45.5827418 -0.141373E-03  0.108E-01    8.48       1.0  T
   4    -45.5827865 -0.447173E-04  0.300E-02    8.48       1.0  T
   5    -45.5827888 -0.228293E-05  0.732E-03    8.48       2.8  T
   6    -45.5827889 -0.849100E-07  0.476E-03    8.48       4.4  T
   7    -45.5827889 -0.248624E-07  0.856E-04    8.48      24.4  T
speedup  0.93
cpu  time for SCC    0.00 s
wall time for SCC    0.01 s
speedup  0.96
cpu  time for grad    0.01 s
wall time for grad    0.01 s
 E :    -45.33284542  G :  0.083671    pred/act E change: -0.194D-02  0.464D-02
Maxdispl :   0.2561   ||displ|| :   0.5904   Lambda : -0.265D-01
Largest |displ|/coords:  0.2561 (  15)  0.2386 (  14)  0.2106 (  19)
................................................................................
.............................. CYCLE    8 ......................................
................................................................................
   1    -45.6188107 -0.456188E+02  0.104E+00    8.64       0.0  T
   2    -45.6193878 -0.577125E-03  0.787E-01    8.66       1.0  T
   3    -45.6197334 -0.345573E-03  0.150E-01    8.71       1.0  T
   4    -45.6198163 -0.828950E-04  0.400E-02    8.71       1.0  T
   5    -45.6198205 -0.418640E-05  0.140E-02    8.70       1.5  T
   6    -45.6198206 -0.138962E-06  0.730E-03    8.70       2.9  T
   7    -45.6198207 -0.717039E-07  0.918E-04    8.70      22.7  T
   8    -45.6198207 -0.175547E-08  0.367E-04    8.70      56.8  T
speedup  0.98
cpu  time for SCC    0.01 s
wall time for SCC    0.01 s
speedup  0.98
cpu  time for grad    0.01 s
wall time for grad    0.01 s
 E :    -45.33617296  G :  0.057145    pred/act E change: -0.220D-02 -0.333D-02
Maxdispl :   0.1804   ||displ|| :   0.3461   Lambda : -0.520D-02
Largest |displ|/coords:  0.1804 (   6)  0.1363 (  17)  0.1203 (   8)
................................................................................
.............................. CYCLE    9 ......................................
................................................................................
   1    -45.5973271 -0.455973E+02  0.513E-01    8.71       0.0  T
   2    -45.5975014 -0.174257E-03  0.385E-01    8.70       1.0  T
   3    -45.5975771 -0.757182E-04  0.863E-02    8.67       1.0  T
   4    -45.5976016 -0.244745E-04  0.284E-02    8.67       1.0  T
   5    -45.5976036 -0.197292E-05  0.637E-03    8.67       3.3  T
   6    -45.5976036 -0.334929E-07  0.424E-03    8.67       4.9  T
   7    -45.5976036 -0.278377E-07  0.911E-04    8.67      22.9  T
speedup  1.07
cpu  time for SCC    0.01 s
wall time for SCC    0.01 s
speedup  1.03
cpu  time for grad    0.01 s
wall time for grad    0.01 s
 E :    -45.33661981  G :  0.054385    pred/act E change: -0.179D-01 -0.447D-03
Maxdispl :   0.1871   ||displ|| :   0.4745   Lambda : -0.104D-01
Largest |displ|/coords:  0.1871 (   8)  0.1672 (  17)  0.1447 (  23)
................................................................................
.............................. CYCLE   10 ......................................
................................................................................
   1    -45.6154477 -0.456154E+02  0.747E-01    8.60       0.0  T
   2    -45.6157325 -0.284754E-03  0.564E-01    8.61       1.0  T
   3    -45.6159085 -0.176033E-03  0.103E-01    8.64       1.0  T
   4    -45.6159485 -0.400089E-04  0.347E-02    8.64       1.0  T
   5    -45.6159515 -0.293379E-05  0.977E-03    8.63       2.1  T
   6    -45.6159515 -0.448417E-07  0.558E-03    8.63       3.7  T
   7    -45.6159516 -0.488193E-07  0.936E-04    8.63      22.3  T
speedup  0.91
cpu  time for SCC    0.01 s
wall time for SCC    0.01 s
speedup  0.96
cpu  time for grad    0.01 s
wall time for grad    0.01 s
 E :    -45.33623711  G :  0.052798    pred/act E change: -0.291D-02  0.383D-03
Maxdispl :   0.1054   ||displ|| :   0.2605   Lambda : -0.459D-02
Largest |displ|/coords:  0.1054 (  17)  0.0960 (   5)  0.0876 (  23)
................................................................................
.............................. CYCLE   11 ......................................
................................................................................
   1    -45.6079114 -0.456079E+02  0.410E-01    8.72       0.0  T
   2    -45.6079801 -0.687415E-04  0.310E-01    8.72       1.0  T
   3    -45.6080249 -0.447954E-04  0.492E-02    8.71       1.0  T
   4    -45.6080347 -0.975706E-05  0.175E-02    8.71       1.2  T
   5    -45.6080353 -0.659558E-06  0.413E-03    8.71       5.1  T
   6    -45.6080354 -0.127010E-07  0.269E-03    8.71       7.7  T
speedup  1.06
cpu  time for SCC    0.00 s
wall time for SCC    0.00 s
speedup  1.02
cpu  time for grad    0.01 s
wall time for grad    0.01 s
 E :    -45.33876895  G :  0.011910    pred/act E change: -0.639D-02 -0.253D-02
Maxdispl :   0.0607   ||displ|| :   0.1437   Lambda : -0.464D-03
Largest |displ|/coords:  0.0607 (  17)  0.0598 (   2)  0.0567 (   5)
................................................................................
.............................. CYCLE   12 ......................................
................................................................................
   1    -45.6060853 -0.456061E+02  0.147E-01    8.66       0.0  T
   2    -45.6060944 -0.906518E-05  0.112E-01    8.66       1.0  T
   3    -45.6060992 -0.476401E-05  0.209E-02    8.67       1.0  T
   4    -45.6061007 -0.157500E-05  0.647E-03    8.67       3.2  T
   5    -45.6061008 -0.785880E-07  0.159E-03    8.67      13.1  T
   6    -45.6061008 -0.175297E-08  0.100E-03    8.67      20.8  T
speedup  1.06
cpu  time for SCC    0.00 s
wall time for SCC    0.00 s
speedup  1.02
cpu  time for grad    0.01 s
wall time for grad    0.01 s
 E :    -45.33913414  G :  0.013439    pred/act E change: -0.245D-02 -0.365D-03
Maxdispl :   0.1847   ||displ|| :   0.4205   Lambda : -0.112D-02
Largest |displ|/coords:  0.1847 (   2)  0.1681 (   1)  0.1670 (  17)
................................................................................
.............................. CYCLE   13 ......................................
................................................................................
   1    -45.6009293 -0.456009E+02  0.370E-01    8.56       0.0  T
   2    -45.6009770 -0.476696E-04  0.281E-01    8.57       1.0  T
   3    -45.6010032 -0.262376E-04  0.471E-02    8.59       1.0  T
   4    -45.6010114 -0.817831E-05  0.150E-02    8.59       1.4  T
   5    -45.6010118 -0.423860E-06  0.405E-03    8.59       5.1  T
   6    -45.6010118 -0.125745E-07  0.257E-03    8.59       8.1  T
   7    -45.6010119 -0.131143E-07  0.642E-04    8.59      32.5  T
speedup  0.91
cpu  time for SCC    0.00 s
wall time for SCC    0.01 s
speedup  0.95
cpu  time for grad    0.01 s
wall time for grad    0.01 s
 E :    -45.33952359  G :  0.030405    pred/act E change: -0.237D-03 -0.389D-03
Maxdispl :   0.0795   ||displ|| :   0.1427   Lambda : -0.837D-03
Largest |displ|/coords:  0.0795 (   9)  0.0559 (   5)  0.0428 (   2)
................................................................................
.............................. CYCLE   14 ......................................
................................................................................
   1    -45.6046320 -0.456046E+02  0.129E-01    8.61       0.0  T
   2    -45.6046385 -0.647937E-05  0.969E-02    8.61       1.0  T
   3    -45.6046436 -0.515815E-05  0.154E-02    8.61       1.4  T
   4    -45.6046445 -0.850228E-06  0.423E-03    8.61       4.9  T
   5    -45.6046445 -0.206966E-07  0.174E-03    8.61      12.0  T
speedup  1.00
cpu  time for SCC    0.00 s
wall time for SCC    0.00 s
speedup  1.00
cpu  time for grad    0.01 s
wall time for grad    0.01 s
 E :    -45.34008342  G :  0.018275    pred/act E change: -0.658D-03 -0.560D-03
Maxdispl :   0.1430   ||displ|| :   0.3218   Lambda : -0.956D-03
Largest |displ|/coords:  0.1430 (   2)  0.1059 (  17)  0.1055 (   5)
................................................................................
.............................. CYCLE   15 ......................................
................................................................................
   1    -45.6053368 -0.456053E+02  0.178E-01    8.65       0.0  T
   2    -45.6053465 -0.963326E-05  0.134E-01    8.65       1.0  T
   3    -45.6053555 -0.907335E-05  0.181E-02    8.65       1.1  T
   4    -45.6053566 -0.111041E-05  0.729E-03    8.65       2.9  T
   5    -45.6053567 -0.554155E-07  0.243E-03    8.65       8.6  T
   6    -45.6053567 -0.650665E-08  0.136E-03    8.65      15.4  T
speedup  0.87
cpu  time for SCC    0.00 s
wall time for SCC    0.00 s
speedup  0.93
cpu  time for grad    0.01 s
wall time for grad    0.01 s
 E :    -45.34073125  G :  0.018193    pred/act E change: -0.427D-03 -0.648D-03
Maxdispl :   0.2441   ||displ|| :   0.5339   Lambda : -0.138D-02
Largest |displ|/coords:  0.2441 (   2)  0.1866 (   5)  0.1555 (  17)
................................................................................
.............................. CYCLE   16 ......................................
................................................................................
   1    -45.6070667 -0.456071E+02  0.273E-01    8.69       0.0  T
   2    -45.6070842 -0.175484E-04  0.207E-01    8.69       1.0  T
   3    -45.6071040 -0.197921E-04  0.230E-02    8.70       1.0  T
   4    -45.6071056 -0.158614E-05  0.113E-02    8.70       1.8  T
   5    -45.6071058 -0.125830E-06  0.339E-03    8.70       6.1  T
   6    -45.6071058 -0.107836E-07  0.193E-03    8.70      10.8  T
   7    -45.6071058 -0.552917E-08  0.392E-04    8.70      53.2  T
speedup  1.11
cpu  time for SCC    0.01 s
wall time for SCC    0.01 s
speedup  1.04
cpu  time for grad    0.01 s
wall time for grad    0.01 s
 E :    -45.34159048  G :  0.019045    pred/act E change: -0.527D-03 -0.859D-03
Maxdispl :   0.2355   ||displ|| :   0.5497   Lambda : -0.123D-02
Largest |displ|/coords:  0.2355 (   2)  0.2189 (  17)  0.2080 (   5)
................................................................................
.............................. CYCLE   17 ......................................
................................................................................
   1    -45.6005537 -0.456006E+02  0.359E-01    8.71       0.0  T
   2    -45.6005958 -0.420448E-04  0.271E-01    8.71       1.0  T
   3    -45.6006302 -0.344248E-04  0.391E-02    8.73       1.0  T
   4    -45.6006361 -0.592803E-05  0.115E-02    8.73       1.8  T
   5    -45.6006364 -0.220199E-06  0.506E-03    8.73       4.1  T
   6    -45.6006364 -0.300923E-07  0.299E-03    8.73       7.0  T
   7    -45.6006364 -0.183844E-07  0.586E-04    8.73      35.6  T
speedup  1.11
cpu  time for SCC    0.01 s
wall time for SCC    0.01 s
speedup  1.03
cpu  time for grad    0.01 s
wall time for grad    0.01 s
 E :    -45.34221561  G :  0.022736    pred/act E change: -0.886D-03 -0.625D-03
Maxdispl :   0.1142   ||displ|| :   0.2781   Lambda : -0.107D-02
Largest |displ|/coords:  0.1142 (   2)  0.1070 (   9)  0.0954 (  22)
................................................................................
.............................. CYCLE   18 ......................................
................................................................................
   1    -45.6033833 -0.456034E+02  0.177E-01    8.77       0.0  T
   2    -45.6033958 -0.124872E-04  0.134E-01    8.77       1.0  T
   3    -45.6034045 -0.868311E-05  0.238E-02    8.77       1.0  T
   4    -45.6034063 -0.183491E-05  0.857E-03    8.77       2.4  T
   5    -45.6034064 -0.933185E-07  0.220E-03    8.77       9.5  T
   6    -45.6034064 -0.535282E-08  0.139E-03    8.77      15.0  T
speedup  1.06
cpu  time for SCC    0.00 s
wall time for SCC    0.00 s
speedup  1.01
cpu  time for grad    0.01 s
wall time for grad    0.01 s
 E :    -45.34247551  G :  0.017376    pred/act E change: -0.801D-03 -0.260D-03
Maxdispl :   0.1128   ||displ|| :   0.2109   Lambda : -0.881D-03
Largest |displ|/coords:  0.1128 (   5)  0.0938 (   9)  0.0891 (   2)
................................................................................
.............................. CYCLE   19 ......................................
................................................................................
   1    -45.6021318 -0.456021E+02  0.156E-01    8.79       0.0  T
   2    -45.6021412 -0.934125E-05  0.118E-01    8.78       1.0  T
   3    -45.6021504 -0.920067E-05  0.180E-02    8.78       1.2  T
   4    -45.6021513 -0.965810E-06  0.647E-03    8.78       3.2  T
   5    -45.6021514 -0.548784E-07  0.233E-03    8.78       9.0  T
   6    -45.6021514 -0.836203E-08  0.119E-03    8.78      17.6  T
speedup  1.09
cpu  time for SCC    0.00 s
wall time for SCC    0.00 s
speedup  1.03
cpu  time for grad    0.01 s
wall time for grad    0.01 s
 E :    -45.34293617  G :  0.014518    pred/act E change: -0.574D-03 -0.461D-03
Maxdispl :   0.1122   ||displ|| :   0.2704   Lambda : -0.105D-02
Largest |displ|/coords:  0.1122 (   5)  0.1048 (   6)  0.1009 (   2)
................................................................................
.............................. CYCLE   20 ......................................
................................................................................
   1    -45.6085757 -0.456086E+02  0.226E-01    8.89       0.0  T
   2    -45.6086073 -0.316559E-04  0.167E-01    8.89       1.0  T
   3    -45.6086266 -0.192640E-04  0.335E-02    8.88       1.0  T
   4    -45.6086302 -0.356707E-05  0.754E-03    8.88       2.8  T
   5    -45.6086302 -0.789554E-07  0.335E-03    8.88       6.2  T
   6    -45.6086302 -0.579404E-08  0.159E-03    8.88      13.1  T
   7    -45.6086302 -0.450029E-08  0.379E-04    8.88      55.0  T
speedup  0.93
cpu  time for SCC    0.01 s
wall time for SCC    0.01 s
speedup  0.96
cpu  time for grad    0.01 s
wall time for grad    0.01 s
 E :    -45.34234588  G :  0.037382    pred/act E change: -0.460D-03  0.590D-03
Maxdispl :   0.0556   ||displ|| :   0.1765   Lambda : -0.195D-02
Largest |displ|/coords:  0.0556 (  17)  0.0538 (   9)  0.0537 (   2)
................................................................................
.............................. CYCLE   21 ......................................
................................................................................
   1    -45.6036534 -0.456037E+02  0.190E-01    8.83       0.0  T
   2    -45.6036741 -0.207010E-04  0.140E-01    8.82       1.0  T
   3    -45.6036858 -0.116509E-04  0.283E-02    8.81       1.0  T
   4    -45.6036881 -0.237324E-05  0.632E-03    8.81       3.3  T
   5    -45.6036882 -0.798450E-07  0.249E-03    8.81       8.4  T
   6    -45.6036882 -0.426167E-08  0.132E-03    8.81      15.8  T
speedup  0.87
cpu  time for SCC    0.00 s
wall time for SCC    0.00 s
speedup  0.94
cpu  time for grad    0.01 s
wall time for grad    0.01 s
 E :    -45.34335563  G :  0.011296    pred/act E change: -0.562D-03 -0.101D-02
Maxdispl :   0.1270   ||displ|| :   0.2072   Lambda : -0.337D-03
Largest |displ|/coords:  0.1270 (   2)  0.0671 (   5)  0.0639 (  22)
................................................................................
.............................. CYCLE   22 ......................................
................................................................................
   1    -45.6023975 -0.456024E+02  0.126E-01    8.76       0.0  T
   2    -45.6024046 -0.714962E-05  0.947E-02    8.76       1.0  T
   3    -45.6024092 -0.461077E-05  0.180E-02    8.77       1.2  T
   4    -45.6024102 -0.974286E-06  0.653E-03    8.77       3.2  T
   5    -45.6024103 -0.518218E-07  0.170E-03    8.77      12.3  T
   6    -45.6024103 -0.472563E-08  0.987E-04    8.77      21.1  T
speedup  1.09
cpu  time for SCC    0.00 s
wall time for SCC    0.00 s
speedup  1.03
cpu  time for grad    0.01 s
wall time for grad    0.01 s
 E :    -45.34350584  G :  0.009456    pred/act E change: -0.101D-02 -0.150D-03
Maxdispl :   0.1540   ||displ|| :   0.2359   Lambda : -0.279D-03
Largest |displ|/coords:  0.1540 (   2)  0.1051 (   5)  0.0686 (  22)
................................................................................
.............................. CYCLE   23 ......................................
................................................................................
   1    -45.6042875 -0.456043E+02  0.109E-01    8.78       0.0  T
   2    -45.6042894 -0.193251E-05  0.819E-02    8.78       1.0  T
   3    -45.6042914 -0.201264E-05  0.998E-03    8.77       2.1  T
   4    -45.6042916 -0.182878E-06  0.349E-03    8.77       6.0  T
   5    -45.6042916 -0.114782E-07  0.888E-04    8.77      23.5  T
   6    -45.6042916 -0.113843E-08  0.563E-04    8.77      37.1  T
speedup  1.09
cpu  time for SCC    0.00 s
wall time for SCC    0.00 s
speedup  1.03
cpu  time for grad    0.01 s
wall time for grad    0.01 s
 E :    -45.34371922  G :  0.006660    pred/act E change: -0.176D-03 -0.213D-03
Maxdispl :   0.2910   ||displ|| :   0.4529   Lambda : -0.429D-03
Largest |displ|/coords:  0.2910 (   2)  0.2003 (   5)  0.1225 (  22)
................................................................................
.............................. CYCLE   24 ......................................
................................................................................
   1    -45.6049009 -0.456049E+02  0.234E-01    8.82       0.0  T
   2    -45.6049089 -0.801111E-05  0.177E-01    8.81       1.0  T
   3    -45.6049180 -0.917949E-05  0.171E-02    8.79       1.2  T
   4    -45.6049186 -0.521636E-06  0.676E-03    8.79       3.1  T
   5    -45.6049186 -0.387748E-07  0.206E-03    8.80      10.1  T
   6    -45.6049186 -0.460962E-08  0.102E-03    8.80      20.4  T
speedup  1.06
cpu  time for SCC    0.00 s
wall time for SCC    0.00 s
speedup  1.02
cpu  time for grad    0.01 s
wall time for grad    0.01 s
 E :    -45.34395637  G :  0.009116    pred/act E change: -0.147D-03 -0.237D-03
Maxdispl :   0.2317   ||displ|| :   0.3403   Lambda : -0.342D-03
Largest |displ|/coords:  0.2317 (   2)  0.1397 (   5)  0.0956 (  22)
................................................................................
.............................. CYCLE   25 ......................................
................................................................................
   1    -45.6081819 -0.456082E+02  0.155E-01    8.80       0.0  T
   2    -45.6081882 -0.622677E-05  0.117E-01    8.79       1.0  T
   3    -45.6081935 -0.537653E-05  0.154E-02    8.79       1.4  T
   4    -45.6081943 -0.717425E-06  0.518E-03    8.79       4.0  T
   5    -45.6081943 -0.426881E-07  0.196E-03    8.79      10.7  T
   6    -45.6081943 -0.360856E-08  0.986E-04    8.79      21.1  T
speedup  0.85
cpu  time for SCC    0.00 s
wall time for SCC    0.00 s
speedup  0.93
cpu  time for grad    0.01 s
wall time for grad    0.01 s
 E :    -45.34406377  G :  0.013748    pred/act E change: -0.258D-03 -0.107D-03
Maxdispl :   0.1846   ||displ|| :   0.2438   Lambda : -0.312D-03
Largest |displ|/coords:  0.1846 (   2)  0.0815 (   5)  0.0702 (   1)

generating ANC from model Hessian ...
 Shifting diagonal of input Hessian by   5.117475657841850E-003
 Lowest  eigenvalues of input Hessian
    0.005000    0.005056   -0.000000   -0.000000   -0.000000    0.000000
    0.000000    0.000000    0.005176    0.005330    0.005567    0.005979
    0.006635    0.006910    0.007176    0.007586    0.009338    0.010208
 Highest eigenvalues
    1.394882    1.400822    1.446722    2.631699    3.278279    3.671442
 
cpu  time for ANC gen    0.01 s
wall time for ANC gen    0.01 s
................................................................................
.............................. CYCLE   26 ......................................
................................................................................
   1    -45.6073754 -0.456074E+02  0.115E-01    8.72       0.0  T
   2    -45.6073815 -0.604353E-05  0.854E-02    8.72       1.0  T
   3    -45.6073846 -0.308715E-05  0.203E-02    8.73       1.0  T
   4    -45.6073854 -0.821832E-06  0.559E-03    8.73       3.7  T
   5    -45.6073854 -0.504590E-07  0.149E-03    8.73      14.0  T
   6    -45.6073854 -0.229269E-08  0.893E-04    8.73      23.4  T
   7    -45.6073854 -0.141392E-08  0.284E-04    8.73      73.5  T
speedup  0.96
cpu  time for SCC    0.01 s
wall time for SCC    0.01 s
speedup  1.02
cpu  time for grad    0.01 s
wall time for grad    0.01 s
 E :    -45.34422090  G :  0.009471    pred/act E change:  0.000D+00 -0.157D-03
Maxdispl :   0.0644   ||displ|| :   0.1143   Lambda : -0.239D-03
Largest |displ|/coords:  0.0644 (   3)  0.0454 (  15)  0.0368 (  19)
................................................................................
.............................. CYCLE   27 ......................................
................................................................................
   1    -45.6070682 -0.456071E+02  0.930E-02    8.76       0.0  T
   2    -45.6070694 -0.124506E-05  0.703E-02    8.75       1.0  T
   3    -45.6070708 -0.143558E-05  0.633E-03    8.75       3.3  T
   4    -45.6070710 -0.110249E-06  0.282E-03    8.75       7.4  T
   5    -45.6070710 -0.833933E-08  0.828E-04    8.75      25.2  T
speedup  1.00
cpu  time for SCC    0.00 s
wall time for SCC    0.00 s
speedup  0.99
cpu  time for grad    0.01 s
wall time for grad    0.01 s
 E :    -45.34437231  G :  0.004287    pred/act E change:  0.000D+00 -0.151D-03
Maxdispl :   0.0838   ||displ|| :   0.1563   Lambda : -0.143D-03
Largest |displ|/coords:  0.0838 (   3)  0.0786 (   1)  0.0492 (  17)
................................................................................
.............................. CYCLE   28 ......................................
................................................................................
   1    -45.6065800 -0.456066E+02  0.108E-01    8.77       0.0  T
   2    -45.6065813 -0.124412E-05  0.815E-02    8.77       1.0  T
   3    -45.6065829 -0.165261E-05  0.611E-03    8.76       3.4  T
   4    -45.6065830 -0.611656E-07  0.298E-03    8.77       7.0  T
   5    -45.6065830 -0.849377E-08  0.885E-04    8.77      23.6  T
speedup  1.03
cpu  time for SCC    0.00 s
wall time for SCC    0.00 s
speedup  1.01
cpu  time for grad    0.01 s
wall time for grad    0.01 s
 E :    -45.34446722  G :  0.004034    pred/act E change: -0.121D-03 -0.949D-04
Maxdispl :   0.1249   ||displ|| :   0.2059   Lambda : -0.108D-03
Largest |displ|/coords:  0.1249 (   3)  0.0971 (   1)  0.0777 (   2)
................................................................................
.............................. CYCLE   29 ......................................
................................................................................
   1    -45.6061533 -0.456062E+02  0.128E-01    8.79       0.0  T
   2    -45.6061545 -0.120667E-05  0.965E-02    8.79       1.0  T
   3    -45.6061561 -0.153773E-05  0.620E-03    8.79       3.4  T
   4    -45.6061561 -0.639475E-07  0.290E-03    8.79       7.2  T
   5    -45.6061561 -0.732823E-08  0.980E-04    8.79      21.3  T
speedup  1.05
cpu  time for SCC    0.00 s
wall time for SCC    0.00 s
speedup  1.01
cpu  time for grad    0.01 s
wall time for grad    0.01 s
 E :    -45.34454700  G :  0.005291    pred/act E change: -0.730D-04 -0.798D-04
Maxdispl :   0.1703   ||displ|| :   0.2892   Lambda : -0.128D-03
Largest |displ|/coords:  0.1703 (   3)  0.1496 (   1)  0.1269 (   2)
................................................................................
.............................. CYCLE   30 ......................................
................................................................................
   1    -45.6059228 -0.456059E+02  0.160E-01    8.80       0.0  T
   2    -45.6059248 -0.200480E-05  0.120E-01    8.80       1.0  T
   3    -45.6059274 -0.257873E-05  0.865E-03    8.80       2.4  T
   4    -45.6059275 -0.903864E-07  0.293E-03    8.80       7.1  T
   5    -45.6059275 -0.721980E-08  0.130E-03    8.80      16.0  T
speedup  0.79
cpu  time for SCC    0.00 s
wall time for SCC    0.00 s
speedup  0.92
cpu  time for grad    0.01 s
wall time for grad    0.01 s
 E :    -45.34463113  G :  0.007346    pred/act E change: -0.564D-04 -0.841D-04
Maxdispl :   0.2002   ||displ|| :   0.3176   Lambda : -0.171D-03
Largest |displ|/coords:  0.2002 (   3)  0.1744 (   1)  0.1403 (   2)
................................................................................
.............................. CYCLE   31 ......................................
................................................................................
   1    -45.6071924 -0.456072E+02  0.146E-01    8.81       0.0  T
   2    -45.6071953 -0.281240E-05  0.110E-01    8.81       1.0  T
   3    -45.6071985 -0.319527E-05  0.117E-02    8.82       1.8  T
   4    -45.6071987 -0.231460E-06  0.339E-03    8.82       6.1  T
   5    -45.6071987 -0.145023E-07  0.148E-03    8.82      14.1  T
   6    -45.6071987 -0.193116E-08  0.651E-04    8.82      32.0  T
speedup  0.85
cpu  time for SCC    0.00 s
wall time for SCC    0.00 s
speedup  0.93
cpu  time for grad    0.01 s
wall time for grad    0.01 s
 E :    -45.34474277  G :  0.006173    pred/act E change: -0.691D-04 -0.112D-03
Maxdispl :   0.2563   ||displ|| :   0.4277   Lambda : -0.189D-03
Largest |displ|/coords:  0.2563 (   3)  0.2231 (   1)  0.2121 (   2)
................................................................................
.............................. CYCLE   32 ......................................
................................................................................
   1    -45.6068422 -0.456068E+02  0.188E-01    8.79       0.0  T
   2    -45.6068466 -0.440981E-05  0.141E-01    8.79       1.0  T
   3    -45.6068508 -0.422823E-05  0.178E-02    8.80       1.2  T
   4    -45.6068514 -0.516455E-06  0.473E-03    8.80       4.4  T
   5    -45.6068514 -0.302893E-07  0.195E-03    8.80      10.7  T
   6    -45.6068514 -0.434773E-08  0.959E-04    8.80      21.8  T
speedup  1.06
cpu  time for SCC    0.00 s
wall time for SCC    0.00 s
speedup  1.03
cpu  time for grad    0.01 s
wall time for grad    0.01 s
 E :    -45.34487403  G :  0.005457    pred/act E change: -0.940D-04 -0.131D-03
Maxdispl :   0.2755   ||displ|| :   0.4847   Lambda : -0.177D-03
Largest |displ|/coords:  0.2755 (   3)  0.2711 (   1)  0.2407 (   2)
................................................................................
.............................. CYCLE   33 ......................................
................................................................................
   1    -45.6033478 -0.456033E+02  0.244E-01    8.75       0.0  T
   2    -45.6033545 -0.676111E-05  0.184E-01    8.75       1.0  T
   3    -45.6033620 -0.742641E-05  0.198E-02    8.76       1.1  T
   4    -45.6033626 -0.633993E-06  0.620E-03    8.76       3.4  T
   5    -45.6033626 -0.421823E-07  0.242E-03    8.76       8.6  T
   6    -45.6033627 -0.543346E-08  0.112E-03    8.76      18.6  T
speedup  0.82
cpu  time for SCC    0.00 s
wall time for SCC    0.00 s
speedup  0.99
cpu  time for grad    0.01 s
wall time for grad    0.01 s
 E :    -45.34493875  G :  0.011414    pred/act E change: -0.112D-03 -0.647D-04
Maxdispl :   0.1228   ||displ|| :   0.2300   Lambda : -0.309D-03
Largest |displ|/coords:  0.1228 (   2)  0.1139 (   1)  0.0552 (  14)
................................................................................
.............................. CYCLE   34 ......................................
................................................................................
   1    -45.6067815 -0.456068E+02  0.126E-01    8.73       0.0  T
   2    -45.6067865 -0.498685E-05  0.941E-02    8.73       1.0  T
   3    -45.6067895 -0.300636E-05  0.153E-02    8.73       1.4  T
   4    -45.6067901 -0.646285E-06  0.470E-03    8.73       4.4  T
   5    -45.6067902 -0.390132E-07  0.153E-03    8.73      13.6  T
   6    -45.6067902 -0.105732E-08  0.861E-04    8.73      24.2  T
speedup  1.11
cpu  time for SCC    0.00 s
wall time for SCC    0.00 s
speedup  1.04
cpu  time for grad    0.01 s
wall time for grad    0.01 s
 E :    -45.34485713  G :  0.014691    pred/act E change: -0.109D-03  0.816D-04
Maxdispl :   0.0410   ||displ|| :   0.1054   Lambda : -0.425D-03
Largest |displ|/coords:  0.0410 (   5)  0.0346 (  13)  0.0336 (   9)
................................................................................
.............................. CYCLE   35 ......................................
................................................................................
   1    -45.6062845 -0.456063E+02  0.991E-02    8.78       0.0  T
   2    -45.6062876 -0.312522E-05  0.739E-02    8.78       1.0  T
   3    -45.6062894 -0.177500E-05  0.124E-02    8.77       1.7  T
   4    -45.6062898 -0.428729E-06  0.337E-03    8.77       6.2  T
   5    -45.6062899 -0.288898E-07  0.118E-03    8.77      17.6  T
   6    -45.6062899 -0.654893E-09  0.659E-04    8.77      31.6  T
speedup  1.11
cpu  time for SCC    0.00 s
wall time for SCC    0.00 s
speedup  1.03
cpu  time for grad    0.01 s
wall time for grad    0.01 s
 E :    -45.34508153  G :  0.005653    pred/act E change: -0.163D-03 -0.224D-03
Maxdispl :   0.1414   ||displ|| :   0.2435   Lambda : -0.949D-04
Largest |displ|/coords:  0.1414 (   2)  0.1349 (   1)  0.1193 (   3)
................................................................................
.............................. CYCLE   36 ......................................
................................................................................
   1    -45.6045884 -0.456046E+02  0.118E-01    8.78       0.0  T
   2    -45.6045900 -0.152529E-05  0.890E-02    8.78       1.0  T
   3    -45.6045918 -0.185990E-05  0.699E-03    8.78       3.0  T
   4    -45.6045919 -0.101740E-06  0.205E-03    8.78      10.2  T
   5    -45.6045919 -0.338123E-08  0.114E-03    8.78      18.3  T
speedup  1.03
cpu  time for SCC    0.00 s
wall time for SCC    0.00 s
speedup  1.00
cpu  time for grad    0.01 s
wall time for grad    0.01 s
 E :    -45.34513673  G :  0.007331    pred/act E change: -0.215D-03 -0.552D-04
Maxdispl :   0.1365   ||displ|| :   0.1964   Lambda : -0.108D-03
Largest |displ|/coords:  0.1365 (   2)  0.0798 (   1)  0.0524 (   6)
................................................................................
.............................. CYCLE   37 ......................................
................................................................................
   1    -45.6063249 -0.456063E+02  0.106E-01    8.81       0.0  T
   2    -45.6063269 -0.203229E-05  0.799E-02    8.81       1.0  T
   3    -45.6063290 -0.205934E-05  0.986E-03    8.80       2.1  T
   4    -45.6063292 -0.186300E-06  0.329E-03    8.81       6.3  T
   5    -45.6063292 -0.120826E-07  0.107E-03    8.81      19.6  T
   6    -45.6063292 -0.111194E-08  0.571E-04    8.81      36.5  T
speedup  1.11
cpu  time for SCC    0.00 s
wall time for SCC    0.00 s
speedup  1.04
cpu  time for grad    0.01 s
wall time for grad    0.01 s
 E :    -45.34517557  G :  0.009939    pred/act E change: -0.503D-04 -0.388D-04
Maxdispl :   0.2395   ||displ|| :   0.3316   Lambda : -0.192D-03
Largest |displ|/coords:  0.2395 (   2)  0.1646 (   1)  0.0916 (   3)
................................................................................
.............................. CYCLE   38 ......................................
................................................................................
   1    -45.6069278 -0.456069E+02  0.141E-01    8.84       0.0  T
   2    -45.6069301 -0.234333E-05  0.106E-01    8.83       1.0  T
   3    -45.6069328 -0.271318E-05  0.991E-03    8.83       2.1  T
   4    -45.6069330 -0.135389E-06  0.340E-03    8.83       6.1  T
   5    -45.6069330 -0.116371E-07  0.115E-03    8.83      18.2  T
   6    -45.6069330 -0.120196E-08  0.625E-04    8.83      33.4  T
speedup  1.11
cpu  time for SCC    0.00 s
wall time for SCC    0.00 s
speedup  1.04
cpu  time for grad    0.01 s
wall time for grad    0.01 s
 E :    -45.34528803  G :  0.004772    pred/act E change: -0.560D-04 -0.112D-03
Maxdispl :   0.3218   ||displ|| :   0.5013   Lambda : -0.114D-03
Largest |displ|/coords:  0.3218 (   2)  0.2748 (   1)  0.2101 (   3)
................................................................................
.............................. CYCLE   39 ......................................
................................................................................
   1    -45.6036196 -0.456036E+02  0.211E-01    8.75       0.0  T
   2    -45.6036254 -0.583026E-05  0.159E-01    8.75       1.0  T
   3    -45.6036310 -0.562790E-05  0.181E-02    8.75       1.2  T
   4    -45.6036317 -0.631905E-06  0.618E-03    8.75       3.4  T
   5    -45.6036317 -0.473697E-07  0.193E-03    8.75      10.8  T
   6    -45.6036317 -0.343248E-08  0.117E-03    8.75      17.9  T
speedup  1.11
cpu  time for SCC    0.01 s
wall time for SCC    0.00 s
speedup  1.04
cpu  time for grad    0.01 s
wall time for grad    0.01 s
 E :    -45.34531595  G :  0.010822    pred/act E change: -0.106D-03 -0.279D-04
Maxdispl :   0.1027   ||displ|| :   0.1363   Lambda : -0.172D-03
Largest |displ|/coords:  0.1027 (   2)  0.0433 (   1)  0.0372 (   7)
................................................................................
.............................. CYCLE   40 ......................................
................................................................................
   1    -45.6066056 -0.456066E+02  0.644E-02    8.74       0.0  T
   2    -45.6066074 -0.178572E-05  0.481E-02    8.74       1.0  T
   3    -45.6066086 -0.122231E-05  0.862E-03    8.74       2.4  T
   4    -45.6066089 -0.224480E-06  0.264E-03    8.74       7.9  T
   5    -45.6066089 -0.107897E-07  0.887E-04    8.74      23.5  T
speedup  0.79
cpu  time for SCC    0.00 s
wall time for SCC    0.00 s
speedup  0.91
cpu  time for grad    0.01 s
wall time for grad    0.01 s
 E :    -45.34538353  G :  0.006915    pred/act E change: -0.713D-04 -0.676D-04
Maxdispl :   0.1245   ||displ|| :   0.1634   Lambda : -0.111D-03
Largest |displ|/coords:  0.1245 (   2)  0.0765 (   1)  0.0326 (  17)
................................................................................
.............................. CYCLE   41 ......................................
................................................................................
   1    -45.6077289 -0.456077E+02  0.694E-02    8.81       0.0  T
   2    -45.6077298 -0.894830E-06  0.516E-02    8.81       1.0  T
   3    -45.6077303 -0.575056E-06  0.884E-03    8.81       2.4  T
   4    -45.6077305 -0.130932E-06  0.209E-03    8.81      10.0  T
   5    -45.6077305 -0.718251E-08  0.649E-04    8.81      32.1  T
speedup  1.03
cpu  time for SCC    0.00 s
wall time for SCC    0.00 s
speedup  1.01
cpu  time for grad    0.01 s
wall time for grad    0.01 s
 E :    -45.34545312  G :  0.002733    pred/act E change: -0.877D-04 -0.696D-04
Maxdispl :   0.3743   ||displ|| :   0.5231   Lambda : -0.126D-03
Largest |displ|/coords:  0.3743 (   2)  0.2711 (   1)  0.1584 (   3)
................................................................................
.............................. CYCLE   42 ......................................
................................................................................
   1    -45.6050511 -0.456051E+02  0.222E-01    8.79       0.0  T
   2    -45.6050561 -0.493108E-05  0.167E-01    8.79       1.0  T
   3    -45.6050619 -0.588229E-05  0.140E-02    8.78       1.5  T
   4    -45.6050623 -0.350671E-06  0.437E-03    8.78       4.8  T
   5    -45.6050623 -0.192784E-07  0.204E-03    8.78      10.2  T
   6    -45.6050623 -0.472137E-08  0.946E-04    8.78      22.0  T
   7    -45.6050623 -0.131477E-08  0.173E-04    8.78     120.4  T
speedup  1.07
cpu  time for SCC    0.01 s
wall time for SCC    0.01 s
speedup  1.07
cpu  time for grad    0.01 s
wall time for grad    0.01 s
 E :    -45.34550471  G :  0.010203    pred/act E change: -0.572D-04 -0.516D-04
Maxdispl :   0.1638   ||displ|| :   0.2499   Lambda : -0.167D-03
Largest |displ|/coords:  0.1638 (   2)  0.1474 (   1)  0.0676 (   7)
................................................................................
.............................. CYCLE   43 ......................................
................................................................................
   1    -45.6055188 -0.456055E+02  0.129E-01    8.76       0.0  T
   2    -45.6055219 -0.312535E-05  0.970E-02    8.76       1.0  T
   3    -45.6055246 -0.263416E-05  0.115E-02    8.76       1.8  T
   4    -45.6055249 -0.365104E-06  0.396E-03    8.76       5.3  T
   5    -45.6055249 -0.200088E-07  0.131E-03    8.76      16.0  T
   6    -45.6055249 -0.129234E-08  0.715E-04    8.76      29.2  T
speedup  1.11
cpu  time for SCC    0.00 s
wall time for SCC    0.00 s
speedup  1.04
cpu  time for grad    0.01 s
wall time for grad    0.01 s
 E :    -45.34558239  G :  0.009664    pred/act E change: -0.802D-04 -0.777D-04
Maxdispl :   0.0817   ||displ|| :   0.1524   Lambda : -0.207D-03
Largest |displ|/coords:  0.0817 (   7)  0.0744 (   2)  0.0448 (   6)
................................................................................
.............................. CYCLE   44 ......................................
................................................................................
   1    -45.6092353 -0.456092E+02  0.962E-02    8.75       0.0  T
   2    -45.6092391 -0.383379E-05  0.710E-02    8.75       1.0  T
   3    -45.6092417 -0.259315E-05  0.128E-02    8.76       1.6  T
   4    -45.6092421 -0.423639E-06  0.385E-03    8.76       5.4  T
   5    -45.6092421 -0.235617E-07  0.132E-03    8.76      15.8  T
   6    -45.6092421 -0.143378E-08  0.725E-04    8.76      28.8  T
speedup  1.11
cpu  time for SCC    0.01 s
wall time for SCC    0.00 s
speedup  1.04
cpu  time for grad    0.01 s
wall time for grad    0.01 s
 E :    -45.34566322  G :  0.007505    pred/act E change: -0.887D-04 -0.808D-04
Maxdispl :   0.3682   ||displ|| :   0.5246   Lambda : -0.210D-03
Largest |displ|/coords:  0.3682 (   2)  0.2908 (   1)  0.1058 (   3)
................................................................................
.............................. CYCLE   45 ......................................
................................................................................
   1    -45.6063983 -0.456064E+02  0.233E-01    8.72       0.0  T
   2    -45.6064048 -0.644862E-05  0.176E-01    8.72       1.0  T
   3    -45.6064124 -0.762117E-05  0.168E-02    8.72       1.2  T
   4    -45.6064129 -0.444365E-06  0.554E-03    8.72       3.8  T
   5    -45.6064129 -0.320433E-07  0.220E-03    8.72       9.5  T
   6    -45.6064129 -0.455464E-08  0.109E-03    8.72      19.1  T
speedup  1.09
cpu  time for SCC    0.00 s
wall time for SCC    0.00 s
speedup  1.01
cpu  time for grad    0.01 s
wall time for grad    0.01 s
 E :    -45.34577975  G :  0.008759    pred/act E change: -0.106D-03 -0.117D-03
Maxdispl :   0.3161   ||displ|| :   0.4438   Lambda : -0.185D-03
Largest |displ|/coords:  0.3161 (   2)  0.2221 (   1)  0.0979 (   7)
................................................................................
.............................. CYCLE   46 ......................................
................................................................................
   1    -45.6043431 -0.456043E+02  0.200E-01    8.68       0.0  T
   2    -45.6043499 -0.674247E-05  0.150E-01    8.68       1.0  T
   3    -45.6043560 -0.617007E-05  0.176E-02    8.68       1.2  T
   4    -45.6043568 -0.764125E-06  0.554E-03    8.68       3.8  T
   5    -45.6043568 -0.425695E-07  0.214E-03    8.68       9.7  T
   6    -45.6043568 -0.374986E-08  0.113E-03    8.68      18.4  T
speedup  0.89
cpu  time for SCC    0.00 s
wall time for SCC    0.00 s
speedup  0.93
cpu  time for grad    0.01 s
wall time for grad    0.01 s
 E :    -45.34582050  G :  0.013985    pred/act E change: -0.134D-03 -0.407D-04
Maxdispl :   0.0885   ||displ|| :   0.1308   Lambda : -0.255D-03
Largest |displ|/coords:  0.0885 (   3)  0.0543 (   6)  0.0489 (   8)
................................................................................
.............................. CYCLE   47 ......................................
................................................................................
   1    -45.6090880 -0.456091E+02  0.568E-02    8.80       0.0  T
   2    -45.6090902 -0.217549E-05  0.413E-02    8.80       1.0  T
   3    -45.6090915 -0.130856E-05  0.935E-03    8.80       2.2  T
   4    -45.6090917 -0.172470E-06  0.279E-03    8.80       7.5  T
   5    -45.6090917 -0.163853E-07  0.952E-04    8.80      21.9  T
speedup  1.05
cpu  time for SCC    0.00 s
wall time for SCC    0.00 s
speedup  1.01
cpu  time for grad    0.01 s
wall time for grad    0.01 s
 E :    -45.34595498  G :  0.007512    pred/act E change: -0.111D-03 -0.134D-03
Maxdispl :   0.3490   ||displ|| :   0.5266   Lambda : -0.303D-03
Largest |displ|/coords:  0.3490 (   2)  0.2822 (   1)  0.1323 (   7)
................................................................................
.............................. CYCLE   48 ......................................
................................................................................
   1    -45.6063838 -0.456064E+02  0.251E-01    8.69       0.0  T
   2    -45.6063922 -0.845913E-05  0.188E-01    8.69       1.0  T
   3    -45.6064007 -0.843114E-05  0.188E-02    8.70       1.1  T
   4    -45.6064014 -0.731266E-06  0.534E-03    8.70       3.9  T
   5    -45.6064014 -0.322310E-07  0.221E-03    8.70       9.4  T
   6    -45.6064014 -0.616375E-08  0.112E-03    8.70      18.7  T
speedup  1.09
cpu  time for SCC    0.00 s
wall time for SCC    0.00 s
speedup  1.03
cpu  time for grad    0.01 s
wall time for grad    0.01 s
 E :    -45.34599163  G :  0.014877    pred/act E change: -0.130D-03 -0.366D-04
Maxdispl :   0.1349   ||displ|| :   0.2529   Lambda : -0.371D-03
Largest |displ|/coords:  0.1349 (   2)  0.0906 (   4)  0.0870 (   1)
................................................................................
.............................. CYCLE   49 ......................................
................................................................................
   1    -45.6078978 -0.456079E+02  0.116E-01    8.75       0.0  T
   2    -45.6079006 -0.274322E-05  0.873E-02    8.75       1.0  T
   3    -45.6079035 -0.288902E-05  0.102E-02    8.75       2.0  T
   4    -45.6079037 -0.249760E-06  0.350E-03    8.75       6.0  T
   5    -45.6079037 -0.141478E-07  0.120E-03    8.75      17.4  T
   6    -45.6079037 -0.130815E-08  0.612E-04    8.75      34.1  T
speedup  0.87
cpu  time for SCC    0.00 s
wall time for SCC    0.00 s
speedup  0.93
cpu  time for grad    0.01 s
wall time for grad    0.01 s
 E :    -45.34621420  G :  0.007781    pred/act E change: -0.194D-03 -0.223D-03
Maxdispl :   0.2786   ||displ|| :   0.4756   Lambda : -0.327D-03
Largest |displ|/coords:  0.2786 (   2)  0.2221 (   1)  0.1537 (   4)
................................................................................
.............................. CYCLE   50 ......................................
................................................................................
   1    -45.6066280 -0.456066E+02  0.201E-01    8.78       0.0  T
   2    -45.6066359 -0.787275E-05  0.151E-01    8.78       1.0  T
   3    -45.6066443 -0.839419E-05  0.185E-02    8.79       1.1  T
   4    -45.6066451 -0.735339E-06  0.566E-03    8.79       3.7  T
   5    -45.6066451 -0.378331E-07  0.246E-03    8.79       8.5  T
   6    -45.6066451 -0.580566E-08  0.112E-03    8.79      18.6  T
speedup  1.09
cpu  time for SCC    0.00 s
wall time for SCC    0.00 s
speedup  1.00
cpu  time for grad    0.01 s
wall time for grad    0.01 s
 E :    -45.34627971  G :  0.014415    pred/act E change: -0.197D-03 -0.655D-04
Maxdispl :   0.1858   ||displ|| :   0.3367   Lambda : -0.372D-03
Largest |displ|/coords:  0.1858 (   2)  0.1393 (   1)  0.1000 (   7)
................................................................................
.............................. CYCLE   51 ......................................
................................................................................
   1    -45.6073559 -0.456074E+02  0.166E-01    8.77       0.0  T
   2    -45.6073592 -0.331025E-05  0.125E-01    8.78       1.0  T
   3    -45.6073628 -0.356278E-05  0.114E-02    8.78       1.8  T
   4    -45.6073630 -0.229947E-06  0.275E-03    8.78       7.6  T
   5    -45.6073630 -0.839965E-08  0.146E-03    8.78      14.2  T
speedup  1.05
cpu  time for SCC    0.00 s
wall time for SCC    0.00 s
speedup  1.00
cpu  time for grad    0.01 s
wall time for grad    0.01 s
 E :    -45.34648124  G :  0.012691    pred/act E change: -0.200D-03 -0.202D-03
Maxdispl :   0.1122   ||displ|| :   0.2918   Lambda : -0.365D-03
Largest |displ|/coords:  0.1122 (   1)  0.1055 (   2)  0.1023 (   4)
................................................................................
.............................. CYCLE   52 ......................................
................................................................................
   1    -45.6085599 -0.456086E+02  0.133E-01    8.79       0.0  T
   2    -45.6085674 -0.746604E-05  0.991E-02    8.80       1.0  T
   3    -45.6085717 -0.429574E-05  0.169E-02    8.82       1.2  T
   4    -45.6085727 -0.102466E-05  0.410E-03    8.81       5.1  T
   5    -45.6085728 -0.235742E-07  0.163E-03    8.81      12.8  T
   6    -45.6085728 -0.234220E-08  0.804E-04    8.81      26.0  T
speedup  1.06
cpu  time for SCC    0.01 s
wall time for SCC    0.00 s
speedup  1.02
cpu  time for grad    0.01 s
wall time for grad    0.01 s
 E :    -45.34659317  G :  0.011763    pred/act E change: -0.207D-03 -0.112D-03
Maxdispl :   0.2808   ||displ|| :   0.4948   Lambda : -0.322D-03
Largest |displ|/coords:  0.2808 (   2)  0.2507 (   1)  0.1496 (   4)

generating ANC from model Hessian ...
 Shifting diagonal of input Hessian by   5.049016035179481E-003
 Lowest  eigenvalues of input Hessian
    0.005000   -0.000000   -0.000000   -0.000000    0.000000    0.000000
    0.000000    0.005070    0.005171    0.005259    0.005495    0.005571
    0.006327    0.006808    0.007264    0.007761    0.008097    0.010503
 Highest eigenvalues
    1.378525    1.385545    1.443386    2.645787    3.270146    3.682020
 
cpu  time for ANC gen    0.01 s
wall time for ANC gen    0.01 s
................................................................................
.............................. CYCLE   53 ......................................
................................................................................
   1    -45.6050484 -0.456050E+02  0.211E-01    8.81       0.0  T
   2    -45.6050537 -0.526560E-05  0.158E-01    8.81       1.0  T
   3    -45.6050592 -0.545392E-05  0.153E-02    8.82       1.4  T
   4    -45.6050596 -0.467299E-06  0.447E-03    8.81       4.7  T
   5    -45.6050597 -0.196084E-07  0.194E-03    8.81      10.7  T
   6    -45.6050597 -0.325517E-08  0.938E-04    8.81      22.2  T
   7    -45.6050597 -0.126847E-08  0.202E-04    8.81     103.2  T
speedup  1.13
cpu  time for SCC    0.01 s
wall time for SCC    0.01 s
speedup  1.00
cpu  time for grad    0.01 s
wall time for grad    0.01 s
 E :    -45.34679405  G :  0.012539    pred/act E change:  0.000D+00 -0.201D-03
Maxdispl :   0.0976   ||displ|| :   0.1453   Lambda : -0.344D-03
Largest |displ|/coords:  0.0976 (  11)  0.0647 (   6)  0.0394 (  13)
................................................................................
.............................. CYCLE   54 ......................................
................................................................................
   1    -45.6075621 -0.456076E+02  0.189E-01    8.84       0.0  T
   2    -45.6075668 -0.474058E-05  0.144E-01    8.84       1.0  T
   3    -45.6075724 -0.553131E-05  0.107E-02    8.83       1.9  T
   4    -45.6075727 -0.301159E-06  0.396E-03    8.84       5.3  T
   5    -45.6075727 -0.116871E-07  0.141E-03    8.84      14.7  T
   6    -45.6075727 -0.621831E-09  0.674E-04    8.84      30.9  T
speedup  1.06
cpu  time for SCC    0.00 s
wall time for SCC    0.00 s
speedup  1.00
cpu  time for grad    0.01 s
wall time for grad    0.01 s
 E :    -45.34705220  G :  0.006046    pred/act E change:  0.000D+00 -0.258D-03
Maxdispl :   0.1435   ||displ|| :   0.2482   Lambda : -0.302D-03
Largest |displ|/coords:  0.1435 (  11)  0.1185 (   6)  0.0772 (   1)
................................................................................
.............................. CYCLE   55 ......................................
................................................................................
   1    -45.6079333 -0.456079E+02  0.267E-01    8.86       0.0  T
   2    -45.6079432 -0.986490E-05  0.203E-01    8.86       1.0  T
   3    -45.6079536 -0.104152E-04  0.175E-02    8.85       1.2  T
   4    -45.6079545 -0.868671E-06  0.595E-03    8.86       3.5  T
   5    -45.6079545 -0.293173E-07  0.225E-03    8.86       9.3  T
   6    -45.6079545 -0.249311E-08  0.110E-03    8.86      18.9  T
speedup  0.87
cpu  time for SCC    0.00 s
wall time for SCC    0.00 s
speedup  1.00
cpu  time for grad    0.01 s
wall time for grad    0.01 s
 E :    -45.34724095  G :  0.010685    pred/act E change: -0.175D-03 -0.189D-03
Maxdispl :   0.1343   ||displ|| :   0.2987   Lambda : -0.363D-03
Largest |displ|/coords:  0.1343 (   1)  0.1307 (   6)  0.0920 (  13)
................................................................................
.............................. CYCLE   56 ......................................
................................................................................
   1    -45.6100027 -0.456100E+02  0.231E-01    8.87       0.0  T
   2    -45.6100124 -0.967173E-05  0.174E-01    8.86       1.0  T
   3    -45.6100201 -0.769892E-05  0.202E-02    8.86       1.0  T
   4    -45.6100214 -0.128004E-05  0.620E-03    8.86       3.4  T
   5    -45.6100215 -0.511349E-07  0.235E-03    8.86       8.9  T
   6    -45.6100215 -0.427460E-08  0.132E-03    8.86      15.8  T
speedup  1.06
cpu  time for SCC    0.00 s
wall time for SCC    0.00 s
speedup  1.01
cpu  time for grad    0.01 s
wall time for grad    0.01 s
 E :    -45.34737382  G :  0.012015    pred/act E change: -0.160D-03 -0.133D-03
Maxdispl :   0.1068   ||displ|| :   0.2077   Lambda : -0.340D-03
Largest |displ|/coords:  0.1068 (   1)  0.1046 (   6)  0.0674 (   4)
................................................................................
.............................. CYCLE   57 ......................................
................................................................................
   1    -45.6105546 -0.456106E+02  0.155E-01    8.85       0.0  T
   2    -45.6105591 -0.449382E-05  0.116E-01    8.85       1.0  T
   3    -45.6105634 -0.430797E-05  0.139E-02    8.85       1.5  T
   4    -45.6105639 -0.449559E-06  0.306E-03    8.85       6.8  T
   5    -45.6105639 -0.893458E-08  0.165E-03    8.85      12.6  T
   6    -45.6105639 -0.374991E-08  0.662E-04    8.85      31.5  T
speedup  0.87
cpu  time for SCC    0.00 s
wall time for SCC    0.00 s
speedup  1.02
cpu  time for grad    0.01 s
wall time for grad    0.01 s
 E :    -45.34757457  G :  0.006253    pred/act E change: -0.198D-03 -0.201D-03
Maxdispl :   0.2698   ||displ|| :   0.4558   Lambda : -0.402D-03
Largest |displ|/coords:  0.2698 (   6)  0.2318 (   1)  0.1593 (  11)
................................................................................
.............................. CYCLE   58 ......................................
................................................................................
   1    -45.6036785 -0.456037E+02  0.345E-01    8.79       0.0  T
   2    -45.6037008 -0.222858E-04  0.260E-01    8.78       1.0  T
   3    -45.6037227 -0.219232E-04  0.294E-02    8.78       1.0  T
   4    -45.6037250 -0.226463E-05  0.732E-03    8.78       2.8  T
   5    -45.6037250 -0.405269E-07  0.364E-03    8.78       5.7  T
   6    -45.6037250 -0.148917E-07  0.153E-03    8.78      13.7  T
   7    -45.6037250 -0.355482E-08  0.364E-04    8.78      57.3  T
speedup  0.98
cpu  time for SCC    0.00 s
wall time for SCC    0.01 s
speedup  1.06
cpu  time for grad    0.01 s
wall time for grad    0.01 s
 E :    -45.34752103  G :  0.025544    pred/act E change: -0.177D-03  0.535D-04
Maxdispl :   0.0697   ||displ|| :   0.1431   Lambda : -0.861D-03
Largest |displ|/coords:  0.0697 (   5)  0.0608 (  11)  0.0598 (   1)
................................................................................
.............................. CYCLE   59 ......................................
................................................................................
   1    -45.6084640 -0.456085E+02  0.142E-01    8.78       0.0  T
   2    -45.6084749 -0.109206E-04  0.106E-01    8.78       1.0  T
   3    -45.6084828 -0.788379E-05  0.197E-02    8.79       1.1  T
   4    -45.6084842 -0.137899E-05  0.456E-03    8.79       4.6  T
   5    -45.6084842 -0.189242E-07  0.233E-03    8.79       9.0  T
speedup  1.03
cpu  time for SCC    0.00 s
wall time for SCC    0.00 s
speedup  1.01
cpu  time for grad    0.01 s
wall time for grad    0.01 s
 E :    -45.34791872  G :  0.006690    pred/act E change: -0.243D-03 -0.398D-03
Maxdispl :   0.1894   ||displ|| :   0.3225   Lambda : -0.274D-03
Largest |displ|/coords:  0.1894 (   1)  0.1260 (   6)  0.1177 (   2)
................................................................................
.............................. CYCLE   60 ......................................
................................................................................
   1    -45.6082007 -0.456082E+02  0.188E-01    8.73       0.0  T
   2    -45.6082050 -0.429851E-05  0.141E-01    8.73       1.0  T
   3    -45.6082095 -0.458057E-05  0.139E-02    8.74       1.5  T
   4    -45.6082099 -0.357298E-06  0.434E-03    8.74       4.8  T
   5    -45.6082099 -0.222281E-07  0.163E-03    8.74      12.8  T
   6    -45.6082099 -0.246956E-08  0.927E-04    8.74      22.5  T
speedup  1.06
cpu  time for SCC    0.00 s
wall time for SCC    0.00 s
speedup  1.00
cpu  time for grad    0.01 s
wall time for grad    0.01 s
 E :    -45.34810369  G :  0.008065    pred/act E change: -0.439D-03 -0.185D-03
Maxdispl :   0.2873   ||displ|| :   0.4739   Lambda : -0.300D-03
Largest |displ|/coords:  0.2873 (   1)  0.1935 (   6)  0.1792 (   4)
................................................................................
.............................. CYCLE   61 ......................................
................................................................................
   1    -45.6061090 -0.456061E+02  0.246E-01    8.68       0.0  T
   2    -45.6061174 -0.847344E-05  0.186E-01    8.69       1.0  T
   3    -45.6061278 -0.103278E-04  0.179E-02    8.70       1.2  T
   4    -45.6061282 -0.467828E-06  0.550E-03    8.69       3.8  T
   5    -45.6061283 -0.321905E-07  0.218E-03    8.69       9.6  T
   6    -45.6061283 -0.497462E-08  0.110E-03    8.69      18.9  T
speedup  1.30
cpu  time for SCC    0.01 s
wall time for SCC    0.00 s
speedup  1.02
cpu  time for grad    0.01 s
wall time for grad    0.01 s
 E :    -45.34829534  G :  0.012991    pred/act E change: -0.151D-03 -0.192D-03
Maxdispl :   0.1526   ||displ|| :   0.2791   Lambda : -0.343D-03
Largest |displ|/coords:  0.1526 (   1)  0.1249 (   2)  0.1215 (   4)
................................................................................
.............................. CYCLE   62 ......................................
................................................................................
   1    -45.6090978 -0.456091E+02  0.138E-01    8.78       0.0  T
   2    -45.6091034 -0.558517E-05  0.104E-01    8.79       1.0  T
   3    -45.6091080 -0.452787E-05  0.140E-02    8.81       1.5  T
   4    -45.6091086 -0.644323E-06  0.464E-03    8.80       4.5  T
   5    -45.6091086 -0.291161E-07  0.164E-03    8.80      12.7  T
   6    -45.6091086 -0.247361E-08  0.755E-04    8.80      27.6  T
speedup  0.91
cpu  time for SCC    0.00 s
wall time for SCC    0.00 s
speedup  1.02
cpu  time for grad    0.01 s
wall time for grad    0.01 s
 E :    -45.34844640  G :  0.013560    pred/act E change: -0.184D-03 -0.151D-03
Maxdispl :   0.1359   ||displ|| :   0.2727   Lambda : -0.439D-03
Largest |displ|/coords:  0.1359 (   1)  0.1050 (   4)  0.0887 (   2)
................................................................................
.............................. CYCLE   63 ......................................
................................................................................
   1    -45.6097076 -0.456097E+02  0.163E-01    8.89       0.0  T
   2    -45.6097142 -0.657195E-05  0.122E-01    8.90       1.0  T
   3    -45.6097200 -0.584614E-05  0.145E-02    8.92       1.4  T
   4    -45.6097208 -0.736718E-06  0.476E-03    8.92       4.4  T
   5    -45.6097208 -0.237083E-07  0.191E-03    8.92      10.9  T
   6    -45.6097208 -0.438195E-08  0.759E-04    8.92      27.5  T
speedup  1.09
cpu  time for SCC    0.00 s
wall time for SCC    0.00 s
speedup  1.01
cpu  time for grad    0.01 s
wall time for grad    0.01 s
 E :    -45.34869920  G :  0.009166    pred/act E change: -0.185D-03 -0.253D-03
Maxdispl :   0.2460   ||displ|| :   0.4103   Lambda : -0.438D-03
Largest |displ|/coords:  0.2460 (   1)  0.1497 (   2)  0.1390 (  13)
................................................................................
.............................. CYCLE   64 ......................................
................................................................................
   1    -45.6080532 -0.456081E+02  0.248E-01    8.87       0.0  T
   2    -45.6080634 -0.101367E-04  0.187E-01    8.88       1.0  T
   3    -45.6080735 -0.101776E-04  0.171E-02    8.91       1.2  T
   4    -45.6080745 -0.942327E-06  0.709E-03    8.90       2.9  T
   5    -45.6080745 -0.429390E-07  0.219E-03    8.90       9.5  T
   6    -45.6080745 -0.497449E-08  0.108E-03    8.90      19.3  T
speedup  0.87
cpu  time for SCC    0.00 s
wall time for SCC    0.00 s
speedup  1.01
cpu  time for grad    0.01 s
wall time for grad    0.01 s
 E :    -45.34896453  G :  0.011076    pred/act E change: -0.236D-03 -0.265D-03
Maxdispl :   0.1772   ||displ|| :   0.3352   Lambda : -0.466D-03
Largest |displ|/coords:  0.1772 (   1)  0.1391 (   3)  0.0975 (  13)
................................................................................
.............................. CYCLE   65 ......................................
................................................................................
   1    -45.6114025 -0.456114E+02  0.195E-01    8.92       0.0  T
   2    -45.6114119 -0.941273E-05  0.147E-01    8.93       1.0  T
   3    -45.6114190 -0.710265E-05  0.201E-02    8.95       1.0  T
   4    -45.6114203 -0.124560E-05  0.773E-03    8.95       2.7  T
   5    -45.6114204 -0.771274E-07  0.210E-03    8.94       9.9  T
   6    -45.6114204 -0.460468E-08  0.123E-03    8.94      16.9  T
speedup  1.09
cpu  time for SCC    0.00 s
wall time for SCC    0.00 s
speedup  1.00
cpu  time for grad    0.01 s
wall time for grad    0.01 s
 E :    -45.34924444  G :  0.010376    pred/act E change: -0.256D-03 -0.280D-03
Maxdispl :   0.3575   ||displ|| :   0.5537   Lambda : -0.546D-03
Largest |displ|/coords:  0.3575 (   1)  0.1549 (   2)  0.1545 (   3)
................................................................................
.............................. CYCLE   66 ......................................
................................................................................
   1    -45.6061282 -0.456061E+02  0.313E-01    8.90       0.0  T
   2    -45.6061476 -0.193573E-04  0.236E-01    8.91       1.0  T
   3    -45.6061645 -0.168813E-04  0.286E-02    8.93       1.0  T
   4    -45.6061668 -0.227721E-05  0.105E-02    8.93       2.0  T
   5    -45.6061669 -0.117093E-06  0.306E-03    8.93       6.8  T
   6    -45.6061669 -0.872220E-08  0.171E-03    8.93      12.2  T
[...]
   2    -45.6223827 -0.131707E-07  0.768E-03    8.78       2.7  T
   3    -45.6223827 -0.124295E-07  0.786E-04    8.78      26.5  T
   4    -45.6223827 -0.128288E-08  0.294E-04    8.78      71.0  T
speedup  0.94
cpu  time for SCC    0.00 s
wall time for SCC    0.00 s
speedup  0.99
cpu  time for grad    0.01 s
wall time for grad    0.01 s
 E :    -45.36365306  G :  0.000622    pred/act E change:  0.000D+00 -0.298D-05
Maxdispl :   0.0232   ||displ|| :   0.0459   Lambda : -0.771D-05
Largest |displ|/coords:  0.0232 (   7)  0.0229 (   6)  0.0205 (   3)
................................................................................
.............................. CYCLE  149 ......................................
................................................................................
   1    -45.6223745 -0.456224E+02  0.312E-02    8.78       0.0  T
   2    -45.6223746 -0.100547E-06  0.233E-02    8.78       1.0  T
   3    -45.6223747 -0.964463E-07  0.202E-03    8.78      10.3  T
   4    -45.6223747 -0.778431E-08  0.743E-04    8.78      28.1  T
   5    -45.6223747 -0.565805E-09  0.237E-04    8.78      87.9  T
speedup  1.00
cpu  time for SCC    0.00 s
wall time for SCC    0.00 s
speedup  1.00
cpu  time for grad    0.01 s
wall time for grad    0.01 s
 E :    -45.36365806  G :  0.000806    pred/act E change: -0.184D-05 -0.499D-05
Maxdispl :   0.0174   ||displ|| :   0.0350   Lambda : -0.338D-05
Largest |displ|/coords:  0.0174 (   6)  0.0156 (   3)  0.0152 (   7)
................................................................................
.............................. CYCLE  150 ......................................
................................................................................
   1    -45.6222369 -0.456222E+02  0.242E-02    8.78       0.0  T
   2    -45.6222370 -0.618139E-07  0.181E-02    8.78       1.2  T
   3    -45.6222370 -0.682593E-07  0.133E-03    8.78      15.7  T
   4    -45.6222371 -0.318387E-08  0.565E-04    8.78      36.9  T
   5    -45.6222371 -0.287436E-09  0.155E-04    8.78     134.5  T
speedup  1.00
cpu  time for SCC    0.00 s
wall time for SCC    0.00 s
speedup  1.00
cpu  time for grad    0.01 s
wall time for grad    0.01 s
 E :    -45.36366053  G :  0.000842    pred/act E change: -0.386D-05 -0.248D-05
Maxdispl :   0.0215   ||displ|| :   0.0413   Lambda : -0.326D-05
Largest |displ|/coords:  0.0215 (   6)  0.0200 (   3)  0.0141 (   7)
................................................................................
.............................. CYCLE  151 ......................................
................................................................................
   1    -45.6220820 -0.456221E+02  0.290E-02    8.78       0.0  T
   2    -45.6220820 -0.954354E-07  0.216E-02    8.78       1.0  T
   3    -45.6220822 -0.112196E-06  0.161E-03    8.78      12.9  T
   4    -45.6220822 -0.350483E-08  0.656E-04    8.78      31.8  T
   5    -45.6220822 -0.429139E-09  0.192E-04    8.78     108.5  T
speedup  1.05
cpu  time for SCC    0.00 s
wall time for SCC    0.00 s
speedup  1.02
cpu  time for grad    0.01 s
wall time for grad    0.01 s
 E :    -45.36366268  G :  0.000676    pred/act E change: -0.169D-05 -0.215D-05
Maxdispl :   0.0105   ||displ|| :   0.0200   Lambda : -0.166D-05
Largest |displ|/coords:  0.0105 (   3)  0.0090 (   6)  0.0070 (   4)
................................................................................
.............................. CYCLE  152 ......................................
................................................................................
   1    -45.6220811 -0.456221E+02  0.142E-02    8.78       0.0  T
   2    -45.6220811 -0.335194E-07  0.105E-02    8.78       2.0  T
   3    -45.6220811 -0.334419E-07  0.124E-03    8.78      16.8  T
   4    -45.6220812 -0.219922E-08  0.410E-04    8.78      50.8  T
   5    -45.6220812 -0.209504E-09  0.119E-04    8.78     175.7  T
speedup  1.05
cpu  time for SCC    0.00 s
wall time for SCC    0.00 s
speedup  1.02
cpu  time for grad    0.01 s
wall time for grad    0.01 s
 E :    -45.36366388  G :  0.000457    pred/act E change: -0.163D-05 -0.120D-05
Maxdispl :   0.0114   ||displ|| :   0.0191   Lambda : -0.141D-05
Largest |displ|/coords:  0.0114 (   3)  0.0075 (   6)  0.0068 (   4)
................................................................................
.............................. CYCLE  153 ......................................
................................................................................
   1    -45.6221353 -0.456221E+02  0.135E-02    8.78       0.0  T
   2    -45.6221353 -0.391524E-07  0.996E-03    8.78       2.1  T
   3    -45.6221354 -0.342905E-07  0.149E-03    8.78      14.0  T
   4    -45.6221354 -0.342485E-08  0.478E-04    8.78      43.6  T
   5    -45.6221354 -0.276167E-09  0.125E-04    8.78     166.6  T
speedup  1.00
cpu  time for SCC    0.00 s
wall time for SCC    0.00 s
speedup  1.00
cpu  time for grad    0.01 s
wall time for grad    0.01 s
 E :    -45.36366485  G :  0.000416    pred/act E change: -0.832D-06 -0.963D-06
Maxdispl :   0.0089   ||displ|| :   0.0156   Lambda : -0.891D-06
Largest |displ|/coords:  0.0089 (   3)  0.0063 (   1)  0.0048 (   4)
................................................................................
.............................. CYCLE  154 ......................................
................................................................................
   1    -45.6221974 -0.456222E+02  0.946E-03    8.78       0.0  T
   2    -45.6221974 -0.200745E-07  0.700E-03    8.78       3.0  T
   3    -45.6221974 -0.174144E-07  0.108E-03    8.78      19.4  T
   4    -45.6221974 -0.177058E-08  0.342E-04    8.78      61.0  T
   5    -45.6221974 -0.143871E-09  0.815E-05    8.78     255.8  T
speedup  1.00
cpu  time for SCC    0.00 s
wall time for SCC    0.00 s
speedup  1.00
cpu  time for grad    0.01 s
wall time for grad    0.01 s
 E :    -45.36366548  G :  0.000407    pred/act E change: -0.704D-06 -0.637D-06
Maxdispl :   0.0093   ||displ|| :   0.0166   Lambda : -0.785D-06
Largest |displ|/coords:  0.0093 (   3)  0.0057 (   1)  0.0050 (   8)
................................................................................
.............................. CYCLE  155 ......................................
................................................................................
   1    -45.6222434 -0.456222E+02  0.946E-03    8.78       0.0  T
   2    -45.6222434 -0.192662E-07  0.708E-03    8.78       2.9  T
   3    -45.6222434 -0.184895E-07  0.960E-04    8.78      21.7  T
   4    -45.6222434 -0.171605E-08  0.343E-04    8.78      60.7  T
speedup  1.14
cpu  time for SCC    0.00 s
wall time for SCC    0.00 s
speedup  1.05
cpu  time for grad    0.01 s
wall time for grad    0.01 s
 E :    -45.36366600  G :  0.000328    pred/act E change: -0.445D-06 -0.515D-06
Maxdispl :   0.0035   ||displ|| :   0.0084   Lambda : -0.399D-06
Largest |displ|/coords:  0.0035 (   7)  0.0031 (   3)  0.0028 (   1)
................................................................................
.............................. CYCLE  156 ......................................
................................................................................
   1    -45.6222709 -0.456223E+02  0.471E-03    8.77       0.0  T
   2    -45.6222709 -0.403044E-08  0.352E-03    8.77       5.9  T
   3    -45.6222709 -0.379299E-08  0.492E-04    8.77      42.4  T
   4    -45.6222709 -0.365709E-09  0.147E-04    8.77     141.8  T
speedup  0.94
cpu  time for SCC    0.00 s
wall time for SCC    0.00 s
speedup  0.98
cpu  time for grad    0.01 s
wall time for grad    0.01 s
 E :    -45.36366626  G :  0.000214    pred/act E change: -0.393D-06 -0.262D-06
Maxdispl :   0.0022   ||displ|| :   0.0048   Lambda : -0.192D-06
Largest |displ|/coords:  0.0022 (   7)  0.0017 (   3)  0.0015 (   8)
................................................................................
.............................. CYCLE  157 ......................................
................................................................................
   1    -45.6222638 -0.456223E+02  0.324E-03    8.77       0.0  T
   2    -45.6222638 -0.208431E-08  0.237E-03    8.77       8.8  T
   3    -45.6222638 -0.156041E-08  0.412E-04    8.77      50.6  T
   4    -45.6222638 -0.208665E-09  0.112E-04    8.77     186.4  T
speedup  0.94
cpu  time for SCC    0.00 s
wall time for SCC    0.00 s
speedup  0.99
cpu  time for grad    0.01 s
wall time for grad    0.01 s
 E :    -45.36366638  G :  0.000120    pred/act E change: -0.199D-06 -0.118D-06
Maxdispl :   0.0009   ||displ|| :   0.0019   Lambda : -0.575D-07
Largest |displ|/coords:  0.0009 (   7)  0.0008 (  13)  0.0007 (  11)
................................................................................
.............................. CYCLE  158 ......................................
................................................................................
   1    -45.6222549 -0.456223E+02  0.178E-03    8.77       0.0  T
   2    -45.6222549 -0.607436E-09  0.128E-03    8.77      16.3  T
   3    -45.6222549 -0.537838E-09  0.235E-04    8.77      88.8  T
   4    -45.6222549 -0.383267E-10  0.479E-05    8.77     435.6  T
speedup  0.91
cpu  time for SCC    0.00 s
wall time for SCC    0.00 s
speedup  0.96
cpu  time for grad    0.01 s
wall time for grad    0.01 s
 E :    -45.36366642  G :  0.000070    pred/act E change: -0.959D-07 -0.409D-07
Maxdispl :   0.0012   ||displ|| :   0.0023   Lambda : -0.335D-07
Largest |displ|/coords:  0.0012 (   7)  0.0009 (  13)  0.0008 (   5)

   *** GEOMETRY OPTIMIZATION CONVERGED AFTER 158 ITERATIONS ***

------------------------------------------------------------------------
 total energy gain (kcal):     -0.0103
------------------------------------------------------------------------
================
 final structure:
================
$coord
        0.75858499632383       -2.71996666375940        0.92411360499500      S 
        0.38362474326993       -1.05017858872723        3.03132882969532      O 
        1.51445487627385       -5.24778127680364        1.46481006669238      O 
        2.79797063974282       -1.43472235781648       -0.79875078902552      O 
       -1.59084712265605       -2.79541453383864       -0.75175324934954      O 
       -2.23477115213894       -0.96661760623538       -1.25476895094132      H 
        3.07480892285852       -2.77630680567457       -2.17195286214748      H 
       -0.05741566330402        3.76675255103309        4.06188826113131      O 
        0.09451994615668        1.93619293349858        3.76166430767045      H 
        0.38084467642317        4.02036954146866        5.80108899661012      H 
       -2.90562826313771        1.56695778230426       -1.92824212390261      O 
       -1.29806619760338        2.51663980370687       -1.89352795199866      H 
       -3.91589185105950        2.28265761900868       -0.54108510401212      H 
        1.55420623134876        3.69759656844291       -0.99441337397537      O 
        1.28388205482132        4.17864386693210        0.75042031136539      H 
        2.45371174990323        2.10740165895600       -0.94814902705438      H 
       -4.79998376909074        4.08701891447300        2.04557084868885      O 
       -5.12088787783477        5.82060175234499        1.62720176385121      H 
       -3.20104375330232        4.05229694832516        2.96724405456775      H 
        2.82725816397184       -5.29905606033891       -3.67309183479811      N 
        2.36631230696974       -6.28454604750304       -2.08688657071796      H 
        4.31006895543470       -6.13988143915683       -4.53834067060946      H 
        1.32428738654721       -5.31865857943168       -4.85436855548368      H 
$end
 
 Bond Distances (Angstroems)
 ---------------------------
S1-O2=1.4365         S1-O3=1.4252         S1-O4=1.5679         S1-O5=1.5277         O2-S1=1.4365         O3-S1=1.4252         
O4-S1=1.5679         O4-H7=1.0264         O5-S1=1.5277         O5-H6=1.0600         H6-O5=1.0600         H7-O4=1.0264         
O8-H9=0.9849         O8-H10=0.9586        H9-O8=0.9849         H10-O8=0.9586        O11-H12=0.9882       O11-H13=0.9839       
H12-O11=0.9882       H13-O11=0.9839       O14-H15=0.9684       O14-H16=0.9671       H15-O14=0.9684       H16-O14=0.9671       
O17-H18=0.9589       O17-H19=0.9768       H18-O17=0.9589       H19-O17=0.9768       N20-H21=1.0179       N20-H22=1.0116       
N20-H23=1.0116       H21-N20=1.0179       H22-N20=1.0116       H23-N20=1.0116       
 N  H  Rav=1.0137 sigma=0.0029  Rmin=1.0116  Rmax=1.0179     3
 O  H  Rav=0.9873 sigma=0.0306  Rmin=0.9586  Rmax=1.0600    10
 S  O  Rav=1.4893 sigma=0.0603  Rmin=1.4252  Rmax=1.5679     4
 
 selected bond angles (degree)
 --------------------
O3-S1-O2=117.40                O4-S1-O2=106.24                O4-S1-O3=109.31                O5-S1-O2=110.75                
O5-S1-O3=108.69                O5-S1-O4=103.53                H7-O4-S1=102.11                H6-O5-S1=112.55                
H10-O8-H9=105.83               
 
 selected dihedral angles (degree)
 ---------------------------------
H7-O4-S1-O2=175.67            H7-O4-S1-O3= 48.08            H7-O4-S1-O5=292.38            H6-O5-S1-O2= 50.70            
H6-O5-S1-O3=181.07            H6-O5-S1-O4=297.21            
 
 CMA Distance (Angstroems)
 ---------------------------
R(CMA):  2.4199

========================================================================
 FINAL SINGLEPOINT CALCULATION ON OPTIMIZED GEOMETRY
========================================================================

 Ncao       : 59
 Nao        : 58
 Nshell     : 34
 Nel        : 72
 T(el)      :   300.0
 intcut     :    25.0
 scfconv/Eh :  0.100E-05
   qconv/e  :  0.100E-03
 intneglect :  0.100E-07
 broydamp   :      0.250
 iter      E             dE          RMSdq      gap      omega  full diag
   1    -45.6222549 -0.456223E+02  0.217E-05    8.77       0.0  T
   2    -45.6222549 -0.419220E-12  0.134E-05    8.77    1550.8  T
   3    -45.6222549 -0.113687E-12  0.260E-06    8.77    8029.6  T
speedup  0.83
cpu  time for SCC    0.00 s
wall time for SCC    0.00 s

   *** convergence criteria satisfied after 3 iterations ***

          eigenvalues
 #    :          24         25         26         27         28         29         30         31
 occ. :        2.000      2.000      2.000      2.000      2.000      2.000      2.000      2.000
 eps  :       -13.696    -13.625    -13.546    -13.071    -12.740    -12.615    -12.489    -12.405
 #    :          32         33         34         35         36         37         38         39
 occ. :        2.000      2.000      2.000      2.000      2.000      0.000      0.000      0.000
 eps  :       -12.167    -12.132    -12.028    -11.995    -11.686     -2.914     -0.779     -0.039
 #    :          40         41         42         43         44         45         46         47
 occ. :        0.000      0.000      0.000      0.000      0.000      0.000      0.000      0.000
 eps  :         0.318      0.586      1.030      2.336      2.816      4.497      4.664      5.185


   #   Z            q   n(s)   n(p)   n(d)      C6AA      α(0)
   1  16 S      1.677  1.583  1.786  0.953    89.290    15.904
   2   8 O     -0.693  1.746  4.947  0.000    28.514     7.159
   3   8 O     -0.676  1.757  4.919  0.000    28.066     7.103
   4   8 O     -0.634  1.758  4.875  0.000    25.978     6.880
   5   8 O     -0.635  1.764  4.871  0.000    26.029     6.887
   6   1 H      0.396  0.604  0.000  0.000     0.487     1.093
   7   1 H      0.360  0.640  0.000  0.000     0.555     1.166
   8   8 O     -0.620  1.742  4.878  0.000    25.673     6.838
   9   1 H      0.340  0.660  0.000  0.000     0.612     1.229
  10   1 H      0.290  0.710  0.000  0.000     0.750     1.360
  11   8 O     -0.616  1.766  4.850  0.000    25.543     6.823
  12   1 H      0.336  0.664  0.000  0.000     0.623     1.240
  13   1 H      0.339  0.661  0.000  0.000     0.614     1.231
  14   8 O     -0.610  1.747  4.863  0.000    25.424     6.805
  15   1 H      0.319  0.681  0.000  0.000     0.666     1.282
  16   1 H      0.308  0.692  0.000  0.000     0.698     1.313
  17   8 O     -0.603  1.749  4.855  0.000    25.265     6.784
  18   1 H      0.286  0.714  0.000  0.000     0.763     1.372
  19   1 H      0.326  0.674  0.000  0.000     0.648     1.265
  20   7 N     -0.444  1.351  4.093  0.000    31.637     8.354
  21   1 H      0.198  0.802  0.000  0.000     1.115     1.654
  22   1 H      0.176  0.824  0.000  0.000     1.235     1.741
  23   1 H      0.178  0.822  0.000  0.000     1.224     1.733

 Mol. C6AA /au·bohr⁶  :       4496.059728
 Mol. C8AA /au·bohr⁸  :      98846.783659
 Mol. α(0) /au        :         97.215523

 
 Wiberg/Mayer (AO) data. WBOs > 0.1 written file <wbo>
 largest (>0.05) Wiberg bond orders for each atom
           total WBO             WBO to atom ...
     1  S   4.864    O    3 1.446    O    2 1.393    O    5 1.042    O    4 0.949
     2  O   1.766    S    1 1.393    O    3 0.116    O    5 0.094    O    4 0.074    H    9 0.060
     3  O   1.779    S    1 1.446    O    2 0.116    O    4 0.090    O    5 0.078
     4  O   1.962    S    1 0.949    H    7 0.681    O    3 0.090    O    2 0.074    O    5 0.069    N   20 0.060
     5  O   1.955    S    1 1.042    H    6 0.605    O    2 0.094    O    3 0.078    O    4 0.069    O   11 0.062
     6  H   0.843    O    5 0.605    O   11 0.220
     7  H   0.870    O    4 0.681    N   20 0.172
     8  O   1.869    H   10 0.907    H    9 0.818
     9  H   0.884    O    8 0.818    O    2 0.060
    10  H   0.916    O    8 0.907
    11  O   1.991    H   13 0.821    H   12 0.812    H    6 0.220    O    5 0.062
    12  H   0.887    O   11 0.812    O   14 0.072
    13  H   0.885    O   11 0.821    O   17 0.062
    14  O   1.887    H   16 0.878    H   15 0.870    H   12 0.072
    15  H   0.898    O   14 0.870
    16  H   0.905    O   14 0.878
    17  O   1.876    H   18 0.916    H   19 0.843    H   13 0.062
    18  H   0.918    O   17 0.916
    19  H   0.894    O   17 0.843
    20  N   3.121    H   23 0.966    H   22 0.965    H   21 0.940    H    7 0.172    O    4 0.060
    21  H   0.961    N   20 0.940
    22  H   0.969    N   20 0.965
    23  H   0.968    N   20 0.966
 MOs/occ written to file <molden.input>
 
molecular dipole:
                 x           y           z       tot (Debye)
 q only:        0.458       0.490      -0.716
   full:        0.691       0.231      -0.475       2.210
molecular quadrupole (traceless):
                xx          xy          yy          xz          yz          zz
 q only:       -3.396      -6.503       0.103      -4.130      16.605       3.293
  q+dip:       -7.066      -8.325       3.178      -4.269      22.009       3.887
   full:       -7.101      -8.580       3.084      -4.311      22.065       4.018

SCC energy    :     -45.6222549
rep           :       0.2584815
ES            :       0.2035924
AES           :      -0.0470701
AXC           :      -0.0068412
disp          :      -0.0161541
XB            :       0.0000000
fix           :       0.0000000
total E       :     -45.3636664
atomizationE  :       4.4467289     2790.36
(atE without considering molecular charge,
 total energy contains solvation terms)
H-L gap (eV)  :          8.7718
optimized geometry written to: xtbopt.xyz


------------------------------------------------------------------------
 * finished run on 2019/09/16 at 11:12:26.878     
------------------------------------------------------------------------
 total:
 * wall-time:     0 d,  0 h,  0 min,  2.972 sec
 *  cpu-time:     0 d,  0 h,  0 min,  2.900 sec
 * ratio c/w:     0.976 speedup
 SCF:
 * wall-time:     0 d,  0 h,  0 min,  0.123 sec
 *  cpu-time:     0 d,  0 h,  0 min,  0.120 sec
 * ratio c/w:     0.975 speedup
 ANC optimizer:
 * wall-time:     0 d,  0 h,  0 min,  2.825 sec
 *  cpu-time:     0 d,  0 h,  0 min,  2.759 sec
 * ratio c/w:     0.977 speedup

