      -----------------------------------------------------------      
     |                   =====================                   |     
     |                           x T B                           |     
     |                   =====================                   |     
     |                         S. Grimme                         |     
     |          Mulliken Center for Theoretical Chemistry        |     
     |                    University of Bonn                     |     
     |                 Version 6.0.1 (SAW181210)                 |     
      -----------------------------------------------------------      

   This program is distributed in the hope that it will be useful,
   but WITHOUT ANY WARRANTY; without even the implied warranty of
   MERCHANTABILITY or FITNESS FOR A PARTICULAR PURPOSE.
   
   FOR NON-COMMERCIAL, ACADEMIA USE ONLY.
   
   Cite this work as:
   S. Grimme, C. Bannwarth, P. Shushkov, J. Comput. Theory Chem., 2017,
   13, 1989-2009.
   C. Bannwarth, S. Ehlert and S. Grimme., ChemRxiv, 2018, preprint.
   http://doi.org/10.26434/chemrxiv.7246238.v1
   
   for sTDA-xTB:
   S. Grimme and C. Bannwarth, J. Chem. Phys., 2016, 145, 054103.
   
   in the mass-spec context:
   V. Asgeirsson, C. Bauer and S. Grimme, Chem. Sci., 2017, 8, 4879.
   
   if GBSA is used:
   P. Shushkov, F. März and S. Grimme, unpublished.
   
   for ANC optimizer:
   S. Grimme, unpublished.
   Rational Function algorithm used in ANCopt:
   F. Eckert, P. Pulay, H.-J. Werner, J. Comput. Chem., 1997, 18, 1473.
   
   with help from (in alphabetical order)
   C. Bannwarth, F. Bohle, G. Brandenburg, E. Caldeweyher, M. Checinski,
   S. Dohm, S. Ehlert, S. Ehrlich, F. März, H. Neugebauer, J. Pisarek,
   P. Pracht, P. Shushkov, and S. Spicher.
   
 * started run on 2019/09/16 at 11:23:18.550     
========================================================================
 # omp threads = 1
========================================================================
number of atoms            : 23
number of electrons        : 72
charge                     : 0
spin                       : .0
first test random number   : .3329

########################################################################
# WARNING! Please study the warnings concerning your input carefully
#  - XTBPATH is not set, using XTBHOME instead
#  - the use of '-opt' is discouraged, please use '--opt' next time
#  - the use of '-chrg' is discouraged, please use '--chrg' next time
#  - the use of '-uhf' is discouraged, please use '--uhf' next time
########################################################################

           ------------------------------------------------- 
          |                 G F N 2 - x T B                 |
          | Geometry, Frequencies, Noncovalent interactions |
          |            JCTC 2018 parametrisation            |
           ------------------------------------------------- 
      method parameters     
 k(s)        :  1.8500
 k(p)        :  2.2300
 k(d)        :  2.2300
 k(f)        :  2.0000
 kEN (H0ij)  : -2.0000
 D4 a1       :  0.5200
 D4 a2       :  5.0000
 D4 s6       :  1.0000
 D4 s8       :  2.7000
 D4 s9       :  5.0000
 alphaj      :  2.0000


            Z     q(EN)     CN     RAES       Cart. coordinates
     1  S   6.0    0.61    4.49    4.55     0.23661     1.50933    -3.65790
     2  O   6.0   -0.31    1.22    1.80     2.58020     1.42174    -2.09968
     3  O   6.0   -0.27    1.12    1.80     0.72937     2.97216    -6.01278
     4  O   6.0   -0.27    2.09    1.84    -1.79105     2.73826    -2.21194
     5  O   6.0   -0.25    2.10    1.84    -0.53324    -1.07600    -4.31812
     6  H   1.0    0.15    1.29    1.49    -2.19303    -1.39996    -3.66142
     7  H   1.0    0.15    1.21    1.47    -1.28895     4.42723    -1.78023
     8  O   6.0   -0.29    1.99    1.83     0.26501     2.83200     3.39168
     9  H   1.0    0.16    1.03    1.43     1.96627     2.28016     3.05139
    10  H   1.0    0.14    0.97    1.43     0.34160     3.65677     5.01294
    11  O   6.0   -0.29    2.00    1.83     2.62458    -3.42694     3.13553
    12  H   1.0    0.15    0.97    1.43     3.86756    -4.72588     3.42253
    13  H   1.0    0.16    1.03    1.43     3.57614    -1.89101     2.91178
    14  O   6.0   -0.31    2.07    1.83     4.97761     1.02444     2.21505
    15  H   1.0    0.18    1.06    1.44     4.26841     1.12108     0.54104
    16  H   1.0    0.15    0.97    1.43     6.67796     1.65509     2.05471
    17  O   6.0   -0.29    2.01    1.83    -1.76573    -1.48435     1.53386
    18  H   1.0    0.16    1.02    1.43    -1.43033     0.13037     2.30508
    19  H   1.0    0.17    1.03    1.43    -0.41274    -2.57112     2.08428
    20  N   5.0   -0.21    3.02    1.93    -5.35946    -2.11273    -2.40898
    21  H   1.0    0.10    0.99    1.43    -5.94260    -3.93461    -2.63649
    22  H   1.0    0.11    0.99    1.43    -6.96389    -1.07835    -2.15029
    23  H   1.0    0.12    1.03    1.43    -4.43031    -2.06766    -0.72205

  Z AO/shell   Hii/eV     exponent
  1     Wed Apr 25 08:07:45 CEST 2018   EN: 2.200 GM2: 0.406  GM3: 0.0800  RAES: 1.40
     1s    -10.707211    1.230000
  7     Wed Apr 25 08:07:45 CEST 2018   EN: 3.040 GM2: 0.461  GM3:-0.0640  RAES: 1.90
     2s    -16.686243    2.339881
     2p    -12.523956    2.014332
  8     Wed Apr 25 08:07:45 CEST 2018   EN: 3.440 GM2: 0.452  GM3:-0.0517  RAES: 1.80
     2s    -20.229985    2.439742
     2p    -15.503117    2.137023
 16     Tue Apr 24 11:44:34 CEST 2018   EN: 2.580 GM2: 0.340  GM3:-0.0502  RAES: 3.10
     3s    -20.029654    1.981333
     3p    -11.377694    2.025643
     3d     -0.420282    1.702555
 no old-style atom pair restraining (fixing) potential

molecular fragmentation (1/2 indicates fragments):
11111112222222222222222
# atoms in fragment 1/2:     7    16
 fragment masses (1/2) :       98.07       89.09
CMA distance (Bohr)    :   5.696
constraining FC (au)   :  0.0500
           ------------------------------------------------- 
          |        Self-Consistent Charge Iterations        |
           ------------------------------------------------- 

 Ncao       : 59
 Nao        : 58
 Nshell     : 34
 Nel        : 72
 T(el)      :   300.0
 intcut     :    25.0
 scfconv/Eh :  0.100E-05
   qconv/e  :  0.100E-03
 intneglect :  0.100E-07
 broydamp   :      0.250
 iter      E             dE          RMSdq      gap      omega  full diag
   1    -45.4950967 -0.454951E+02  0.718E+00   10.22       0.0  T
   2    -45.5488383 -0.537416E-01  0.517E+00    9.57       1.0  T
   3    -45.5853153 -0.364770E-01  0.154E+00    8.40       1.0  T
   4    -45.5912003 -0.588502E-02  0.592E-01    8.62       1.0  T
   5    -45.5917537 -0.553359E-03  0.382E-01    8.55       1.0  T
   6    -45.5923666 -0.612867E-03  0.166E-01    8.55       1.0  T
   7    -45.5925191 -0.152487E-03  0.665E-02    8.52       1.0  T
   8    -45.5925412 -0.221308E-04  0.378E-02    8.52       1.0  T
   9    -45.5925482 -0.703209E-05  0.166E-02    8.53       1.3  T
  10    -45.5925499 -0.172432E-05  0.303E-03    8.54       6.9  T
  11    -45.5925500 -0.244862E-07  0.148E-03    8.53      14.1  T
  12    -45.5925500 -0.863309E-08  0.644E-04    8.53      32.4  T
  13    -45.5925500 -0.199021E-08  0.159E-04    8.53     131.3  T
speedup  1.06
cpu  time for SCC    0.01 s
wall time for SCC    0.01 s

   *** convergence criteria satisfied after 13 iterations ***

          eigenvalues
 #    :          24         25         26         27         28         29         30         31
 occ. :        2.000      2.000      2.000      2.000      2.000      2.000      2.000      2.000
 eps  :       -13.646    -13.471    -12.634    -12.587    -12.374    -12.202    -12.119    -11.958
 #    :          32         33         34         35         36         37         38         39
 occ. :        2.000      2.000      2.000      2.000      2.000      0.000      0.000      0.000
 eps  :       -11.817    -11.637    -11.301    -11.064    -10.908     -2.374     -1.230     -0.269
 #    :          40         41         42         43         44         45         46         47
 occ. :        0.000      0.000      0.000      0.000      0.000      0.000      0.000      0.000
 eps  :         0.426      0.964      1.479      2.844      3.158      3.366      5.238      5.436


   #   Z            q   n(s)   n(p)   n(d)      C6AA      α(0)
   1  16 S      1.670  1.573  1.800  0.958    89.454    15.918
   2   8 O     -0.722  1.761  4.961  0.000    29.317     7.259
   3   8 O     -0.699  1.777  4.922  0.000    28.680     7.180
   4   8 O     -0.533  1.709  4.824  0.000    23.620     6.561
   5   8 O     -0.528  1.708  4.821  0.000    23.504     6.545
   6   1 H      0.404  0.596  0.000  0.000     0.471     1.074
   7   1 H      0.391  0.609  0.000  0.000     0.495     1.100
   8   8 O     -0.612  1.748  4.864  0.000    25.482     6.813
   9   1 H      0.329  0.671  0.000  0.000     0.640     1.256
  10   1 H      0.281  0.719  0.000  0.000     0.780     1.387
  11   8 O     -0.608  1.743  4.865  0.000    25.375     6.799
  12   1 H      0.276  0.724  0.000  0.000     0.799     1.404
  13   1 H      0.324  0.676  0.000  0.000     0.653     1.269
  14   8 O     -0.616  1.738  4.878  0.000    25.565     6.824
  15   1 H      0.347  0.653  0.000  0.000     0.596     1.212
  16   1 H      0.292  0.708  0.000  0.000     0.744     1.355
  17   8 O     -0.655  1.749  4.906  0.000    26.530     6.952
  18   1 H      0.310  0.690  0.000  0.000     0.690     1.305
  19   1 H      0.319  0.681  0.000  0.000     0.666     1.282
  20   7 N     -0.474  1.398  4.075  0.000    32.526     8.470
  21   1 H      0.150  0.850  0.000  0.000     1.401     1.854
  22   1 H      0.152  0.848  0.000  0.000     1.389     1.847
  23   1 H      0.202  0.798  0.000  0.000     1.096     1.640

 Mol. C6AA /au·bohr⁶  :       4499.708851
 Mol. C8AA /au·bohr⁸  :      98823.426950
 Mol. α(0) /au        :         97.306582

 
 Wiberg/Mayer (AO) data. WBOs > 0.1 written file <wbo>
 largest (>0.05) Wiberg bond orders for each atom
           total WBO             WBO to atom ...
     1  S   4.860    O    3 1.392    O    2 1.330    O    5 1.089    O    4 1.013
     2  O   1.696    S    1 1.330    O    3 0.132    O    4 0.084    O    5 0.079
     3  O   1.710    S    1 1.392    O    2 0.132    O    4 0.089    O    5 0.084
     4  O   2.059    S    1 1.013    H    7 0.823    O    3 0.089    O    2 0.084
     5  O   2.077    S    1 1.089    H    6 0.743    O    3 0.084    O    2 0.079
     6  H   0.837    O    5 0.743    N   20 0.069
     7  H   0.847    O    4 0.823
     8  O   1.842    H   10 0.915    H    9 0.848
     9  H   0.892    O    8 0.848
    10  H   0.921    O    8 0.915
    11  O   1.835    H   12 0.914    H   13 0.849
    12  H   0.924    O   11 0.914
    13  H   0.895    O   11 0.849
    14  O   1.873    H   16 0.902    H   15 0.824
    15  H   0.880    O   14 0.824
    16  H   0.914    O   14 0.902
    17  O   1.810    H   18 0.862    H   19 0.858
    18  H   0.904    O   17 0.862
    19  H   0.898    O   17 0.858
    20  N   2.991    H   21 0.975    H   22 0.972    H   23 0.926    H    6 0.069
    21  H   0.977    N   20 0.975
    22  H   0.977    N   20 0.972
    23  H   0.959    N   20 0.926
 MOs/occ written to file <molden.input>
 
molecular dipole:
                 x           y           z       tot (Debye)
 q only:       -0.274       0.163       1.292
   full:       -0.247       0.141       1.894       4.867
molecular quadrupole (traceless):
                xx          xy          yy          xz          yz          zz
 q only:       10.088      -1.783       4.838      11.878       9.790     -14.926
  q+dip:       15.378      -1.375       4.856      14.654      11.429     -20.234
   full:       15.618      -1.447       5.343      14.704      11.999     -20.961

SCC energy    :     -45.5925500
rep           :       0.2827465
ES            :       0.2205004
AES           :      -0.0388617
AXC           :      -0.0059688
disp          :      -0.0153459
XB            :       0.0000000
fix           :       0.0000000
total E       :     -45.3095853
atomizationE  :       4.3926478     2756.43
(atE without considering molecular charge,
 total energy contains solvation terms)
H-L gap (eV)  :          8.5336
           ------------------------------------------------- 
          |                 ===============                 |
          |                   A N C O P T                   |
          |                 ===============                 |
          |          Approximate Normal Coordinate          |
          |           Rational Function Optimizer           |
           ------------------------------------------------- 
dumping coords to <xtbopt.coord> and <xtbopt.log>
 optlevel               2
 Maxcycle             460
 Maxmicro              25
 Econv         1.000000000000000E-007
 Gconv         2.000000000000000E-004
 Maxdispl       1.00000000000000     
 Hlow          5.000000000000000E-003
 S6             20.0000000000000     
 Nvar               63

generating ANC from model Hessian ...
 Shifting diagonal of input Hessian by   5.074122798462278E-003
 Lowest  eigenvalues of input Hessian
    0.005000   -0.000000   -0.000000   -0.000000   -0.000000    0.000000
    0.000000    0.005129    0.005347    0.005657    0.005728    0.005953
    0.006166    0.006232    0.006305    0.006761    0.007965    0.008548
 Highest eigenvalues
    1.430201    1.448352    1.546017    3.213515    3.405658    3.458945
 
cpu  time for ANC gen    0.01 s
wall time for ANC gen    0.01 s
................................................................................
.............................. CYCLE    1 ......................................
................................................................................
   1    -45.5925500 -0.455925E+02  0.854E-05    8.53       0.0  T
   2    -45.5925500 -0.163567E-10  0.654E-05    8.53     319.0  T
   3    -45.5925500 -0.129745E-10  0.401E-05    8.53     520.6  T
speedup  1.07
cpu  time for SCC    0.00 s
wall time for SCC    0.00 s
speedup  1.01
cpu  time for grad    0.01 s
wall time for grad    0.01 s
 E :    -45.30958528  G :  0.191008    pred/act E change:  0.000D+00  0.407D-07
Maxdispl :   0.1258   ||displ|| :   0.3189   Lambda : -0.164D-01
Largest |displ|/coords:  0.1258 (  19)  0.0975 (  15)  0.0969 (  27)
................................................................................
.............................. CYCLE    2 ......................................
................................................................................
   1    -45.5973181 -0.455973E+02  0.404E-01    8.43       0.0  T
   2    -45.5976028 -0.284663E-03  0.304E-01    8.42       1.0  T
   3    -45.5976803 -0.775161E-04  0.159E-01    8.41       1.0  T
   4    -45.5976932 -0.128558E-04  0.226E-02    8.43       1.0  T
   5    -45.5976942 -0.997057E-06  0.708E-03    8.42       2.9  T
   6    -45.5976942 -0.420573E-07  0.290E-03    8.42       7.2  T
   7    -45.5976942 -0.134952E-07  0.151E-03    8.42      13.8  T
speedup  0.89
cpu  time for SCC    0.00 s
wall time for SCC    0.01 s
speedup  0.99
cpu  time for grad    0.01 s
wall time for grad    0.01 s
 E :    -45.32281689  G :  0.129727    pred/act E change:  0.000D+00 -0.132D-01
Maxdispl :   0.1796   ||displ|| :   0.3057   Lambda : -0.104D-01
Largest |displ|/coords:  0.1796 (  21)  0.0936 (  24)  0.0888 (   4)
................................................................................
.............................. CYCLE    3 ......................................
................................................................................
   1    -45.6060449 -0.456060E+02  0.262E-01    8.35       0.0  T
   2    -45.6062772 -0.232281E-03  0.202E-01    8.37       1.0  T
   3    -45.6063367 -0.594825E-04  0.130E-01    8.40       1.0  T
   4    -45.6063412 -0.452194E-05  0.218E-02    8.43       1.0  T
   5    -45.6063416 -0.380305E-06  0.446E-03    8.43       4.7  T
   6    -45.6063416 -0.213610E-07  0.220E-03    8.43       9.5  T
speedup  1.04
cpu  time for SCC    0.00 s
wall time for SCC    0.00 s
speedup  0.97
cpu  time for grad    0.01 s
wall time for grad    0.01 s
 E :    -45.33110124  G :  0.072715    pred/act E change: -0.905D-02 -0.828D-02
Maxdispl :   0.1327   ||displ|| :   0.3523   Lambda : -0.586D-02
Largest |displ|/coords:  0.1327 (   8)  0.1262 (  21)  0.1258 (  15)
................................................................................
.............................. CYCLE    4 ......................................
................................................................................
   1    -45.6063664 -0.456064E+02  0.356E-01    8.24       0.0  T
   2    -45.6065685 -0.202051E-03  0.269E-01    8.28       1.0  T
   3    -45.6066259 -0.574629E-04  0.121E-01    8.34       1.0  T
   4    -45.6066381 -0.121958E-04  0.242E-02    8.36       1.0  T
   5    -45.6066388 -0.720017E-06  0.537E-03    8.35       3.9  T
   6    -45.6066389 -0.269945E-07  0.272E-03    8.35       7.7  T
speedup  1.04
cpu  time for SCC    0.00 s
wall time for SCC    0.00 s
speedup  1.06
cpu  time for grad    0.01 s
wall time for grad    0.01 s
 E :    -45.33546745  G :  0.042074    pred/act E change: -0.569D-02 -0.437D-02
Maxdispl :   0.2576   ||displ|| :   0.5179   Lambda : -0.673D-02
Largest |displ|/coords:  0.2576 (  21)  0.2545 (   8)  0.1739 (   5)
................................................................................
.............................. CYCLE    5 ......................................
................................................................................
   1    -45.6162564 -0.456163E+02  0.487E-01    8.02       0.0  T
   2    -45.6167200 -0.463666E-03  0.370E-01    8.08       1.0  T
   3    -45.6168532 -0.133125E-03  0.172E-01    8.17       1.0  T
   4    -45.6168785 -0.253519E-04  0.392E-02    8.21       1.0  T
   5    -45.6168800 -0.148114E-05  0.741E-03    8.21       2.8  T
   6    -45.6168801 -0.685456E-07  0.448E-03    8.21       4.7  T
   7    -45.6168801 -0.336863E-07  0.175E-03    8.21      11.9  T
speedup  0.91
cpu  time for SCC    0.01 s
wall time for SCC    0.01 s
speedup  1.00
cpu  time for grad    0.01 s
wall time for grad    0.01 s
 E :    -45.33757642  G :  0.050030    pred/act E change: -0.329D-02 -0.211D-02
Maxdispl :   0.1644   ||displ|| :   0.3926   Lambda : -0.520D-02
Largest |displ|/coords:  0.1644 (   8)  0.1585 (  13)  0.1320 (  20)
................................................................................
.............................. CYCLE    6 ......................................
................................................................................
   1    -45.6026843 -0.456027E+02  0.551E-01    7.89       0.0  T
   2    -45.6027948 -0.110418E-03  0.417E-01    7.92       1.0  T
   3    -45.6028530 -0.581996E-04  0.666E-02    7.96       1.0  T
   4    -45.6028719 -0.189364E-04  0.214E-02    7.94       1.0  T
   5    -45.6028727 -0.811372E-06  0.459E-03    7.93       4.5  T
   6    -45.6028727 -0.947593E-08  0.273E-03    7.93       7.6  T
speedup  1.04
cpu  time for SCC    0.00 s
wall time for SCC    0.00 s
speedup  0.96
cpu  time for grad    0.01 s
wall time for grad    0.01 s
 E :    -45.33921210  G :  0.039263    pred/act E change: -0.427D-02 -0.164D-02
Maxdispl :   0.2169   ||displ|| :   0.3159   Lambda : -0.284D-02
Largest |displ|/coords:  0.2169 (   8)  0.1067 (  21)  0.0861 (  12)
................................................................................
.............................. CYCLE    7 ......................................
................................................................................
   1    -45.6080653 -0.456081E+02  0.268E-01    7.90       0.0  T
   2    -45.6081192 -0.538655E-04  0.198E-01    7.92       1.0  T
   3    -45.6081402 -0.210419E-04  0.494E-02    7.94       1.0  T
   4    -45.6081472 -0.701280E-05  0.148E-02    7.96       1.4  T
   5    -45.6081475 -0.263232E-06  0.367E-03    7.96       5.7  T
   6    -45.6081475 -0.126881E-07  0.215E-03    7.96       9.7  T
speedup  0.96
cpu  time for SCC    0.00 s
wall time for SCC    0.01 s
speedup  0.94
cpu  time for grad    0.01 s
wall time for grad    0.01 s
 E :    -45.34085311  G :  0.024670    pred/act E change: -0.300D-02 -0.164D-02
Maxdispl :   0.1877   ||displ|| :   0.4446   Lambda : -0.220D-02
Largest |displ|/coords:  0.1877 (   8)  0.1718 (  21)  0.1572 (   9)
................................................................................
.............................. CYCLE    8 ......................................
................................................................................
   1    -45.6084705 -0.456085E+02  0.326E-01    7.92       0.0  T
   2    -45.6086137 -0.143191E-03  0.242E-01    7.97       1.0  T
   3    -45.6086639 -0.502309E-04  0.849E-02    8.08       1.0  T
   4    -45.6086769 -0.129908E-04  0.220E-02    8.10       1.0  T
   5    -45.6086776 -0.723238E-06  0.569E-03    8.09       3.7  T
   6    -45.6086777 -0.401358E-07  0.327E-03    8.09       6.4  T
speedup  1.04
cpu  time for SCC    0.01 s
wall time for SCC    0.00 s
speedup  0.97
cpu  time for grad    0.01 s
wall time for grad    0.01 s
 E :    -45.34181063  G :  0.039501    pred/act E change: -0.156D-02 -0.958D-03
Maxdispl :   0.2550   ||displ|| :   0.4770   Lambda : -0.300D-02
Largest |displ|/coords:  0.2550 (   8)  0.1741 (  10)  0.1462 (   5)
................................................................................
.............................. CYCLE    9 ......................................
................................................................................
   1    -45.6114809 -0.456115E+02  0.324E-01    8.08       0.0  T
   2    -45.6115861 -0.105202E-03  0.238E-01    8.13       1.0  T
   3    -45.6116292 -0.430981E-04  0.640E-02    8.23       1.0  T
   4    -45.6116413 -0.121629E-04  0.180E-02    8.24       1.2  T
   5    -45.6116419 -0.540099E-06  0.620E-03    8.23       3.4  T
   6    -45.6116419 -0.589075E-07  0.336E-03    8.23       6.2  T
   7    -45.6116420 -0.155789E-07  0.121E-03    8.23      17.2  T
speedup  0.88
cpu  time for SCC    0.00 s
wall time for SCC    0.01 s
speedup  0.98
cpu  time for grad    0.01 s
wall time for grad    0.01 s
 E :    -45.34383598  G :  0.033815    pred/act E change: -0.132D-02 -0.203D-02
Maxdispl :   0.2527   ||displ|| :   0.5311   Lambda : -0.441D-02
Largest |displ|/coords:  0.2527 (  13)  0.1928 (   8)  0.1746 (  10)
................................................................................
.............................. CYCLE   10 ......................................
................................................................................
   1    -45.6070119 -0.456070E+02  0.382E-01    8.53       0.0  T
   2    -45.6071022 -0.903163E-04  0.284E-01    8.57       1.0  T
   3    -45.6071417 -0.394716E-04  0.636E-02    8.58       1.0  T
   4    -45.6071542 -0.125305E-04  0.195E-02    8.58       1.1  T
   5    -45.6071549 -0.664869E-06  0.664E-03    8.58       3.1  T
   6    -45.6071549 -0.490546E-07  0.351E-03    8.58       5.9  T
   7    -45.6071550 -0.194571E-07  0.120E-03    8.58      17.4  T
speedup  0.91
cpu  time for SCC    0.00 s
wall time for SCC    0.01 s
speedup  1.00
cpu  time for grad    0.01 s
wall time for grad    0.01 s
 E :    -45.34563531  G :  0.034419    pred/act E change: -0.184D-02 -0.180D-02
Maxdispl :   0.1961   ||displ|| :   0.4843   Lambda : -0.479D-02
Largest |displ|/coords:  0.1961 (  17)  0.1536 (  10)  0.1414 (  20)
................................................................................
.............................. CYCLE   11 ......................................
................................................................................
   1    -45.6203608 -0.456204E+02  0.460E-01    8.85       0.0  T
   2    -45.6206696 -0.308838E-03  0.340E-01    8.84       1.0  T
   3    -45.6208051 -0.135437E-03  0.107E-01    8.82       1.0  T
   4    -45.6208337 -0.286078E-04  0.322E-02    8.81       1.0  T
   5    -45.6208357 -0.201386E-05  0.926E-03    8.81       2.3  T
   6    -45.6208358 -0.125548E-06  0.531E-03    8.81       3.9  T
   7    -45.6208358 -0.390960E-07  0.199E-03    8.81      10.5  T
speedup  1.07
cpu  time for SCC    0.01 s
wall time for SCC    0.01 s
speedup  0.99
cpu  time for grad    0.01 s
wall time for grad    0.01 s
 E :    -45.34644291  G :  0.059238    pred/act E change: -0.283D-02 -0.808D-03
Maxdispl :   0.2032   ||displ|| :   0.4601   Lambda : -0.971D-02
Largest |displ|/coords:  0.2032 (  21)  0.1928 (   4)  0.1816 (  14)
................................................................................
.............................. CYCLE   12 ......................................
................................................................................
   1    -45.6087664 -0.456088E+02  0.614E-01    8.61       0.0  T
   2    -45.6091734 -0.406971E-03  0.458E-01    8.62       1.0  T
   3    -45.6093350 -0.161560E-03  0.142E-01    8.63       1.0  T
   4    -45.6093763 -0.413367E-04  0.383E-02    8.63       1.0  T
   5    -45.6093795 -0.317054E-05  0.811E-03    8.63       2.6  T
   6    -45.6093795 -0.589835E-07  0.525E-03    8.63       4.0  T
   7    -45.6093796 -0.377008E-07  0.130E-03    8.63      16.0  T
speedup  0.91
cpu  time for SCC    0.00 s
wall time for SCC    0.01 s
speedup  0.98
cpu  time for grad    0.01 s
wall time for grad    0.01 s
 E :    -45.34601560  G :  0.069727    pred/act E change: -0.295D-02  0.427D-03
Maxdispl :   0.2583   ||displ|| :   0.4922   Lambda : -0.150D-01
Largest |displ|/coords:  0.2583 (  14)  0.1618 (   6)  0.1575 (  15)
................................................................................
.............................. CYCLE   13 ......................................
................................................................................
   1    -45.6100770 -0.456101E+02  0.708E-01    8.53       0.0  T
   2    -45.6104514 -0.374402E-03  0.531E-01    8.53       1.0  T
   3    -45.6106492 -0.197813E-03  0.123E-01    8.52       1.0  T
   4    -45.6106943 -0.451270E-04  0.389E-02    8.53       1.0  T
   5    -45.6106977 -0.341692E-05  0.102E-02    8.53       2.1  T
   6    -45.6106978 -0.438044E-07  0.544E-03    8.53       3.8  T
   7    -45.6106978 -0.356711E-07  0.128E-03    8.53      16.3  T
speedup  0.89
cpu  time for SCC    0.00 s
wall time for SCC    0.01 s
speedup  0.98
cpu  time for grad    0.01 s
wall time for grad    0.01 s
 E :    -45.34699235  G :  0.067631    pred/act E change: -0.588D-02 -0.977D-03
Maxdispl :   0.1957   ||displ|| :   0.4425   Lambda : -0.108D-01
Largest |displ|/coords:  0.1957 (  17)  0.1930 (  12)  0.1592 (   8)
................................................................................
.............................. CYCLE   14 ......................................
................................................................................
   1    -45.6318083 -0.456318E+02  0.482E-01    8.95       0.0  T
   2    -45.6320807 -0.272434E-03  0.359E-01    8.94       1.0  T
   3    -45.6321962 -0.115427E-03  0.111E-01    8.92       1.0  T
   4    -45.6322223 -0.261407E-04  0.315E-02    8.91       1.0  T
   5    -45.6322237 -0.144080E-05  0.864E-03    8.91       2.4  T
   6    -45.6322238 -0.744650E-07  0.459E-03    8.91       4.5  T
   7    -45.6322238 -0.383909E-07  0.187E-03    8.91      11.2  T
speedup  0.89
cpu  time for SCC    0.01 s
wall time for SCC    0.01 s
speedup  0.98
cpu  time for grad    0.01 s
wall time for grad    0.01 s
 E :    -45.34690052  G :  0.078585    pred/act E change: -0.935D-02  0.918D-04
Maxdispl :   0.1992   ||displ|| :   0.4641   Lambda : -0.156D-01
Largest |displ|/coords:  0.1992 (  17)  0.1937 (  11)  0.1620 (  13)
................................................................................
.............................. CYCLE   15 ......................................
................................................................................
   1    -45.5963220 -0.455963E+02  0.466E-01    8.45       0.0  T
   2    -45.5964495 -0.127528E-03  0.343E-01    8.46       1.0  T
   3    -45.5965340 -0.844565E-04  0.640E-02    8.48       1.0  T
   4    -45.5965451 -0.111347E-04  0.246E-02    8.48       1.0  T
   5    -45.5965460 -0.869976E-06  0.715E-03    8.48       2.9  T
   6    -45.5965461 -0.789370E-07  0.392E-03    8.48       5.3  T
   7    -45.5965461 -0.297155E-07  0.143E-03    8.48      14.6  T
speedup  1.09
cpu  time for SCC    0.01 s
wall time for SCC    0.01 s
speedup  1.00
cpu  time for grad    0.01 s
wall time for grad    0.01 s
 E :    -45.34748438  G :  0.063996    pred/act E change: -0.647D-02 -0.584D-03
Maxdispl :   0.1955   ||displ|| :   0.4191   Lambda : -0.131D-01
Largest |displ|/coords:  0.1955 (  17)  0.1775 (  16)  0.1598 (  11)
................................................................................
.............................. CYCLE   16 ......................................
................................................................................
   1    -45.6227671 -0.456228E+02  0.386E-01    8.69       0.0  T
   2    -45.6228501 -0.829861E-04  0.284E-01    8.69       1.0  T
   3    -45.6229077 -0.575879E-04  0.493E-02    8.67       1.0  T
   4    -45.6229146 -0.697033E-05  0.201E-02    8.67       1.0  T
   5    -45.6229151 -0.493949E-06  0.544E-03    8.67       3.8  T
   6    -45.6229151 -0.227942E-07  0.295E-03    8.67       7.1  T
speedup  1.04
cpu  time for SCC    0.00 s
wall time for SCC    0.00 s
speedup  1.06
cpu  time for grad    0.01 s
wall time for grad    0.01 s
 E :    -45.34948275  G :  0.057648    pred/act E change: -0.948D-02 -0.200D-02
Maxdispl :   0.1725   ||displ|| :   0.3579   Lambda : -0.778D-02
Largest |displ|/coords:  0.1725 (  16)  0.1224 (  22)  0.1166 (  24)
................................................................................
.............................. CYCLE   17 ......................................
................................................................................
   1    -45.6133722 -0.456134E+02  0.354E-01    8.77       0.0  T
   2    -45.6135639 -0.191621E-03  0.259E-01    8.77       1.0  T
   3    -45.6136360 -0.721640E-04  0.827E-02    8.76       1.0  T
   4    -45.6136526 -0.165265E-04  0.231E-02    8.75       1.0  T
   5    -45.6136531 -0.552857E-06  0.649E-03    8.75       3.2  T
   6    -45.6136532 -0.609712E-07  0.366E-03    8.75       5.7  T
   7    -45.6136532 -0.200539E-07  0.119E-03    8.75      17.5  T
speedup  0.89
cpu  time for SCC    0.00 s
wall time for SCC    0.01 s
speedup  0.99
cpu  time for grad    0.01 s
wall time for grad    0.01 s
 E :    -45.35030331  G :  0.037406    pred/act E change: -0.770D-02 -0.821D-03
Maxdispl :   0.1391   ||displ|| :   0.2642   Lambda : -0.435D-02
Largest |displ|/coords:  0.1391 (   5)  0.0973 (   7)  0.0870 (   4)
................................................................................
.............................. CYCLE   18 ......................................
................................................................................
   1    -45.6098397 -0.456098E+02  0.248E-01    8.49       0.0  T
   2    -45.6099117 -0.719838E-04  0.183E-01    8.50       1.0  T
   3    -45.6099386 -0.269083E-04  0.512E-02    8.52       1.0  T
   4    -45.6099464 -0.777341E-05  0.160E-02    8.52       1.3  T
   5    -45.6099466 -0.286084E-06  0.424E-03    8.52       4.9  T
   6    -45.6099467 -0.297005E-07  0.222E-03    8.52       9.4  T
speedup  0.64
cpu  time for SCC    0.00 s
wall time for SCC    0.00 s
speedup  0.88
cpu  time for grad    0.01 s
wall time for grad    0.01 s
 E :    -45.35186572  G :  0.020971    pred/act E change: -0.439D-02 -0.156D-02
Maxdispl :   0.0831   ||displ|| :   0.1895   Lambda : -0.149D-02
Largest |displ|/coords:  0.0831 (   5)  0.0671 (  17)  0.0579 (   1)
................................................................................
.............................. CYCLE   19 ......................................
................................................................................
   1    -45.6204112 -0.456204E+02  0.151E-01    8.73       0.0  T
   2    -45.6204341 -0.229619E-04  0.112E-01    8.72       1.0  T
   3    -45.6204457 -0.115408E-04  0.268E-02    8.71       1.0  T
   4    -45.6204485 -0.281430E-05  0.936E-03    8.71       2.2  T
   5    -45.6204486 -0.122417E-06  0.280E-03    8.71       7.4  T
   6    -45.6204486 -0.123568E-07  0.158E-03    8.71      13.2  T
speedup  1.04
cpu  time for SCC    0.00 s
wall time for SCC    0.00 s
speedup  0.96
cpu  time for grad    0.01 s
wall time for grad    0.01 s
 E :    -45.35224987  G :  0.020365    pred/act E change: -0.233D-02 -0.384D-03
Maxdispl :   0.1040   ||displ|| :   0.1716   Lambda : -0.793D-03
Largest |displ|/coords:  0.1040 (   5)  0.0511 (  22)  0.0496 (   4)
................................................................................
.............................. CYCLE   20 ......................................
................................................................................
   1    -45.6169091 -0.456169E+02  0.137E-01    8.63       0.0  T
   2    -45.6169243 -0.152534E-04  0.102E-01    8.63       1.0  T
   3    -45.6169299 -0.559377E-05  0.265E-02    8.63       1.0  T
   4    -45.6169320 -0.207119E-05  0.716E-03    8.63       2.9  T
   5    -45.6169321 -0.845659E-07  0.212E-03    8.63       9.8  T
   6    -45.6169321 -0.614084E-08  0.112E-03    8.63      18.7  T
speedup  1.06
cpu  time for SCC    0.00 s
wall time for SCC    0.00 s
speedup  1.04
cpu  time for grad    0.01 s
wall time for grad    0.01 s
 E :    -45.35269136  G :  0.014523    pred/act E change: -0.772D-03 -0.441D-03
Maxdispl :   0.0640   ||displ|| :   0.1685   Lambda : -0.650D-03
Largest |displ|/coords:  0.0640 (  15)  0.0609 (   4)  0.0594 (   1)
................................................................................
.............................. CYCLE   21 ......................................
................................................................................
   1    -45.6131188 -0.456131E+02  0.922E-02    8.59       0.0  T
   2    -45.6131232 -0.434458E-05  0.680E-02    8.59       1.0  T
   3    -45.6131260 -0.277086E-05  0.137E-02    8.60       1.5  T
   4    -45.6131264 -0.433056E-06  0.461E-03    8.59       4.5  T
   5    -45.6131264 -0.292803E-07  0.129E-03    8.59      16.1  T
   6    -45.6131264 -0.191282E-08  0.731E-04    8.59      28.5  T
speedup  1.00
cpu  time for SCC    0.01 s
wall time for SCC    0.00 s
speedup  1.03
cpu  time for grad    0.01 s
wall time for grad    0.01 s
 E :    -45.35291685  G :  0.011807    pred/act E change: -0.408D-03 -0.225D-03
Maxdispl :   0.0726   ||displ|| :   0.1627   Lambda : -0.435D-03
Largest |displ|/coords:  0.0726 (   1)  0.0556 (  17)  0.0472 (   4)
................................................................................
.............................. CYCLE   22 ......................................
................................................................................
   1    -45.6137756 -0.456138E+02  0.887E-02    8.61       0.0  T
   2    -45.6137812 -0.560410E-05  0.661E-02    8.61       1.0  T
   3    -45.6137833 -0.207415E-05  0.152E-02    8.60       1.4  T
   4    -45.6137842 -0.840946E-06  0.438E-03    8.60       4.8  T
   5    -45.6137842 -0.222824E-07  0.134E-03    8.60      15.5  T
   6    -45.6137842 -0.324540E-08  0.682E-04    8.60      30.6  T
speedup  1.04
cpu  time for SCC    0.00 s
wall time for SCC    0.00 s
speedup  0.96
cpu  time for grad    0.01 s
wall time for grad    0.01 s
 E :    -45.35320728  G :  0.008705    pred/act E change: -0.334D-03 -0.290D-03
Maxdispl :   0.1062   ||displ|| :   0.2706   Lambda : -0.530D-03
Largest |displ|/coords:  0.1062 (  17)  0.0863 (   9)  0.0857 (   5)
................................................................................
.............................. CYCLE   23 ......................................
................................................................................
   1    -45.6141843 -0.456142E+02  0.146E-01    8.59       0.0  T
   2    -45.6141931 -0.876917E-05  0.109E-01    8.59       1.0  T
   3    -45.6141983 -0.526057E-05  0.216E-02    8.59       1.0  T
   4    -45.6141996 -0.129901E-05  0.697E-03    8.59       3.0  T
   5    -45.6141997 -0.577943E-07  0.224E-03    8.59       9.3  T
   6    -45.6141997 -0.554176E-08  0.115E-03    8.59      18.2  T
speedup  1.04
cpu  time for SCC    0.00 s
wall time for SCC    0.00 s
speedup  1.04
cpu  time for grad    0.01 s
wall time for grad    0.01 s
 E :    -45.35332454  G :  0.015408    pred/act E change: -0.223D-03 -0.117D-03
Maxdispl :   0.0706   ||displ|| :   0.1181   Lambda : -0.317D-03
Largest |displ|/coords:  0.0706 (   1)  0.0680 (   2)  0.0283 (   8)
................................................................................
.............................. CYCLE   24 ......................................
................................................................................
   1    -45.6154701 -0.456155E+02  0.662E-02    8.65       0.0  T
   2    -45.6154712 -0.104175E-05  0.492E-02    8.65       1.0  T
   3    -45.6154721 -0.966248E-06  0.714E-03    8.65       2.9  T
   4    -45.6154722 -0.949801E-07  0.255E-03    8.65       8.2  T
   5    -45.6154722 -0.746918E-08  0.723E-04    8.65      28.8  T
speedup  0.98
cpu  time for SCC    0.00 s
wall time for SCC    0.00 s
speedup  1.02
cpu  time for grad    0.01 s
wall time for grad    0.01 s
 E :    -45.35349240  G :  0.009220    pred/act E change: -0.285D-03 -0.168D-03
Maxdispl :   0.0451   ||displ|| :   0.0807   Lambda : -0.154D-03
Largest |displ|/coords:  0.0451 (   1)  0.0299 (   8)  0.0279 (   2)
................................................................................
.............................. CYCLE   25 ......................................
................................................................................
   1    -45.6137063 -0.456137E+02  0.481E-02    8.62       0.0  T
   2    -45.6137078 -0.150433E-05  0.345E-02    8.62       1.0  T
   3    -45.6137083 -0.526572E-06  0.936E-03    8.62       2.2  T
   4    -45.6137084 -0.128773E-06  0.247E-03    8.62       8.4  T
   5    -45.6137084 -0.917696E-08  0.659E-04    8.62      31.7  T
speedup  0.98
cpu  time for SCC    0.00 s
wall time for SCC    0.00 s
speedup  0.93
cpu  time for grad    0.01 s
wall time for grad    0.01 s
 E :    -45.35356862  G :  0.006531    pred/act E change: -0.161D-03 -0.762D-04
Maxdispl :   0.0678   ||displ|| :   0.1364   Lambda : -0.148D-03
Largest |displ|/coords:  0.0678 (   1)  0.0578 (   9)  0.0570 (   2)

generating ANC from model Hessian ...
 Shifting diagonal of input Hessian by   5.047373347753921E-003
 Lowest  eigenvalues of input Hessian
    0.005000   -0.000000   -0.000000   -0.000000    0.000000    0.000000
    0.000000    0.005387    0.005817    0.006321    0.006454    0.007733
    0.007759    0.008907    0.009738    0.010828    0.011393    0.011929
 Highest eigenvalues
    1.413008    1.421168    1.444258    2.322853    3.481226    3.713213
 
cpu  time for ANC gen    0.01 s
wall time for ANC gen    0.01 s
................................................................................
.............................. CYCLE   26 ......................................
................................................................................
   1    -45.6130594 -0.456131E+02  0.644E-02    8.63       0.0  T
   2    -45.6130605 -0.110108E-05  0.483E-02    8.63       1.0  T
   3    -45.6130610 -0.482489E-06  0.744E-03    8.63       2.8  T
   4    -45.6130612 -0.204343E-06  0.226E-03    8.63       9.2  T
   5    -45.6130612 -0.618745E-08  0.646E-04    8.63      32.3  T
   6    -45.6130612 -0.456154E-09  0.360E-04    8.63      58.0  T
speedup  1.04
cpu  time for SCC    0.00 s
wall time for SCC    0.00 s
speedup  1.00
cpu  time for grad    0.01 s
wall time for grad    0.01 s
 E :    -45.35368865  G :  0.006329    pred/act E change:  0.000D+00 -0.120D-03
Maxdispl :   0.0786   ||displ|| :   0.1754   Lambda : -0.378D-03
Largest |displ|/coords:  0.0786 (   3)  0.0655 (  15)  0.0565 (   1)
................................................................................
.............................. CYCLE   27 ......................................
................................................................................
   1    -45.6132696 -0.456133E+02  0.219E-01    8.64       0.0  T
   2    -45.6132751 -0.555685E-05  0.167E-01    8.64       1.0  T
   3    -45.6132819 -0.673980E-05  0.122E-02    8.64       1.7  T
   4    -45.6132822 -0.315176E-06  0.429E-03    8.64       4.9  T
   5    -45.6132822 -0.148619E-07  0.162E-03    8.64      12.9  T
   6    -45.6132822 -0.218611E-08  0.728E-04    8.64      28.6  T
speedup  1.04
cpu  time for SCC    0.00 s
wall time for SCC    0.00 s
speedup  1.04
cpu  time for grad    0.01 s
wall time for grad    0.01 s
 E :    -45.35396862  G :  0.007391    pred/act E change:  0.000D+00 -0.280D-03
Maxdispl :   0.2001   ||displ|| :   0.3167   Lambda : -0.421D-03
Largest |displ|/coords:  0.2001 (   3)  0.1258 (   1)  0.0966 (  13)
................................................................................
.............................. CYCLE   28 ......................................
................................................................................
   1    -45.6108410 -0.456108E+02  0.321E-01    8.65       0.0  T
   2    -45.6108529 -0.119447E-04  0.242E-01    8.65       1.0  T
   3    -45.6108655 -0.126251E-04  0.209E-02    8.65       1.0  T
   4    -45.6108667 -0.114738E-05  0.651E-03    8.65       3.2  T
   5    -45.6108667 -0.377276E-07  0.315E-03    8.65       6.6  T
   6    -45.6108667 -0.121252E-07  0.132E-03    8.65      15.8  T
   7    -45.6108667 -0.406168E-08  0.311E-04    8.65      67.1  T
speedup  0.89
cpu  time for SCC    0.01 s
wall time for SCC    0.01 s
speedup  0.98
cpu  time for grad    0.01 s
wall time for grad    0.01 s
 E :    -45.35402914  G :  0.024482    pred/act E change: -0.195D-03 -0.605D-04
Maxdispl :   0.0480   ||displ|| :   0.1055   Lambda : -0.649D-03
Largest |displ|/coords:  0.0480 (   2)  0.0438 (   9)  0.0323 (  15)
................................................................................
.............................. CYCLE   29 ......................................
................................................................................
   1    -45.6141494 -0.456141E+02  0.132E-01    8.65       0.0  T
   2    -45.6141585 -0.900855E-05  0.993E-02    8.65       1.0  T
   3    -45.6141651 -0.662589E-05  0.184E-02    8.65       1.1  T
   4    -45.6141663 -0.120415E-05  0.373E-03    8.65       5.6  T
   5    -45.6141663 -0.130304E-07  0.206E-03    8.65      10.1  T
speedup  0.98
cpu  time for SCC    0.00 s
wall time for SCC    0.00 s
speedup  1.02
cpu  time for grad    0.01 s
wall time for grad    0.01 s
 E :    -45.35430867  G :  0.008398    pred/act E change: -0.232D-03 -0.280D-03
Maxdispl :   0.0722   ||displ|| :   0.1486   Lambda : -0.295D-03
Largest |displ|/coords:  0.0722 (   1)  0.0631 (   5)  0.0435 (  16)
................................................................................
.............................. CYCLE   30 ......................................
................................................................................
   1    -45.6149992 -0.456150E+02  0.140E-01    8.64       0.0  T
   2    -45.6150028 -0.361119E-05  0.106E-01    8.65       1.0  T
   3    -45.6150059 -0.313249E-05  0.127E-02    8.65       1.6  T
   4    -45.6150063 -0.411847E-06  0.364E-03    8.65       5.7  T
   5    -45.6150063 -0.218654E-07  0.114E-03    8.65      18.3  T
   6    -45.6150063 -0.513211E-09  0.644E-04    8.65      32.4  T
speedup  1.02
cpu  time for SCC    0.00 s
wall time for SCC    0.00 s
speedup  1.03
cpu  time for grad    0.01 s
wall time for grad    0.01 s
 E :    -45.35449671  G :  0.004329    pred/act E change: -0.328D-03 -0.188D-03
Maxdispl :   0.1999   ||displ|| :   0.3962   Lambda : -0.451D-03
Largest |displ|/coords:  0.1999 (   1)  0.1760 (   3)  0.1454 (   5)
................................................................................
.............................. CYCLE   31 ......................................
................................................................................
   1    -45.6109948 -0.456110E+02  0.347E-01    8.60       0.0  T
   2    -45.6110092 -0.144214E-04  0.261E-01    8.61       1.0  T
   3    -45.6110234 -0.141876E-04  0.275E-02    8.61       1.0  T
   4    -45.6110249 -0.144421E-05  0.873E-03    8.61       2.4  T
   5    -45.6110249 -0.849379E-07  0.296E-03    8.61       7.0  T
   6    -45.6110250 -0.701385E-08  0.163E-03    8.61      12.8  T
speedup  1.00
cpu  time for SCC    0.00 s
wall time for SCC    0.01 s
speedup  1.03
cpu  time for grad    0.01 s
wall time for grad    0.01 s
 E :    -45.35475899  G :  0.018140    pred/act E change: -0.151D-03 -0.262D-03
Maxdispl :   0.0820   ||displ|| :   0.1919   Lambda : -0.375D-03
Largest |displ|/coords:  0.0820 (   3)  0.0757 (   1)  0.0709 (   5)
................................................................................
.............................. CYCLE   32 ......................................
................................................................................
   1    -45.6108517 -0.456109E+02  0.148E-01    8.59       0.0  T
   2    -45.6108550 -0.329755E-05  0.111E-01    8.59       1.0  T
   3    -45.6108580 -0.304070E-05  0.123E-02    8.59       1.7  T
   4    -45.6108583 -0.347796E-06  0.373E-03    8.59       5.6  T
   5    -45.6108584 -0.181139E-07  0.119E-03    8.59      17.6  T
   6    -45.6108584 -0.130507E-08  0.696E-04    8.59      30.0  T
speedup  1.02
cpu  time for SCC    0.00 s
wall time for SCC    0.00 s
speedup  1.04
cpu  time for grad    0.01 s
wall time for grad    0.01 s
 E :    -45.35505391  G :  0.011951    pred/act E change: -0.261D-03 -0.295D-03
Maxdispl :   0.1900   ||displ|| :   0.4176   Lambda : -0.608D-03
Largest |displ|/coords:  0.1900 (   1)  0.1557 (   5)  0.1201 (   9)
................................................................................
.............................. CYCLE   33 ......................................
................................................................................
   1    -45.6097822 -0.456098E+02  0.322E-01    8.56       0.0  T
   2    -45.6097961 -0.138575E-04  0.243E-01    8.56       1.0  T
   3    -45.6098102 -0.141077E-04  0.237E-02    8.56       1.0  T
   4    -45.6098116 -0.143135E-05  0.833E-03    8.56       2.5  T
   5    -45.6098117 -0.539771E-07  0.261E-03    8.56       8.0  T
   6    -45.6098117 -0.761745E-08  0.139E-03    8.56      15.0  T
speedup  0.82
cpu  time for SCC    0.00 s
wall time for SCC    0.00 s
speedup  0.95
cpu  time for grad    0.01 s
wall time for grad    0.01 s
 E :    -45.35548189  G :  0.015700    pred/act E change: -0.194D-03 -0.428D-03
Maxdispl :   0.1510   ||displ|| :   0.4309   Lambda : -0.835D-03
Largest |displ|/coords:  0.1510 (   1)  0.1404 (   3)  0.1302 (   5)
................................................................................
.............................. CYCLE   34 ......................................
................................................................................
   1    -45.6144129 -0.456144E+02  0.289E-01    8.58       0.0  T
   2    -45.6144338 -0.208932E-04  0.218E-01    8.58       1.0  T
   3    -45.6144509 -0.171287E-04  0.264E-02    8.58       1.0  T
   4    -45.6144538 -0.286751E-05  0.917E-03    8.58       2.3  T
   5    -45.6144539 -0.127616E-06  0.307E-03    8.58       6.8  T
   6    -45.6144540 -0.850841E-08  0.169E-03    8.58      12.4  T
   7    -45.6144540 -0.495296E-08  0.406E-04    8.58      51.4  T
speedup  1.07
cpu  time for SCC    0.01 s
wall time for SCC    0.01 s
speedup  0.98
cpu  time for grad    0.01 s
wall time for grad    0.01 s
 E :    -45.35562942  G :  0.027251    pred/act E change: -0.357D-03 -0.148D-03
Maxdispl :   0.1551   ||displ|| :   0.3761   Lambda : -0.111D-02
Largest |displ|/coords:  0.1551 (   1)  0.1453 (   5)  0.1137 (   7)
................................................................................
.............................. CYCLE   35 ......................................
................................................................................
   1    -45.6070503 -0.456071E+02  0.322E-01    8.56       0.0  T
   2    -45.6070702 -0.199219E-04  0.243E-01    8.56       1.0  T
   3    -45.6070865 -0.163110E-04  0.265E-02    8.56       1.0  T
   4    -45.6070891 -0.265571E-05  0.876E-03    8.56       2.4  T
   5    -45.6070893 -0.118940E-06  0.326E-03    8.56       6.4  T
   6    -45.6070893 -0.786379E-08  0.180E-03    8.56      11.6  T
speedup  1.04
cpu  time for SCC    0.01 s
wall time for SCC    0.00 s
speedup  1.03
cpu  time for grad    0.01 s
wall time for grad    0.01 s
 E :    -45.35628605  G :  0.022813    pred/act E change: -0.495D-03 -0.657D-03
Maxdispl :   0.1991   ||displ|| :   0.3723   Lambda : -0.220D-02
Largest |displ|/coords:  0.1991 (   3)  0.1474 (  12)  0.0946 (   6)
................................................................................
.............................. CYCLE   36 ......................................
................................................................................
   1    -45.6198109 -0.456198E+02  0.395E-01    9.17       0.0  T
   2    -45.6198868 -0.758424E-04  0.290E-01    9.16       1.0  T
   3    -45.6199389 -0.520707E-04  0.639E-02    9.15       1.0  T
   4    -45.6199468 -0.790535E-05  0.162E-02    9.15       1.3  T
   5    -45.6199472 -0.440671E-06  0.566E-03    9.15       3.7  T
   6    -45.6199472 -0.296860E-07  0.325E-03    9.15       6.4  T
speedup  1.02
cpu  time for SCC    0.01 s
wall time for SCC    0.00 s
speedup  1.03
cpu  time for grad    0.01 s
wall time for grad    0.01 s
 E :    -45.35274193  G :  0.067633    pred/act E change: -0.635D-03  0.354D-02
Maxdispl :   0.2045   ||displ|| :   0.4876   Lambda : -0.159D-01
Largest |displ|/coords:  0.2045 (   3)  0.1735 (  20)  0.1601 (   6)
................................................................................
.............................. CYCLE   37 ......................................
................................................................................
   1    -45.6018808 -0.456019E+02  0.612E-01    8.31       0.0  T
   2    -45.6020979 -0.217053E-03  0.453E-01    8.32       1.0  T
   3    -45.6022486 -0.150697E-03  0.999E-02    8.33       1.0  T
   4    -45.6022712 -0.225747E-04  0.250E-02    8.33       1.0  T
   5    -45.6022723 -0.115637E-05  0.102E-02    8.33       2.1  T
   6    -45.6022724 -0.828006E-07  0.515E-03    8.33       4.0  T
   7    -45.6022724 -0.429608E-07  0.132E-03    8.33      15.7  T
speedup  0.89
cpu  time for SCC    0.00 s
wall time for SCC    0.01 s
speedup  0.98
cpu  time for grad    0.01 s
wall time for grad    0.01 s
 E :    -45.35304186  G :  0.075819    pred/act E change: -0.125D-02 -0.300D-03
Maxdispl :   0.1173   ||displ|| :   0.3285   Lambda : -0.105D-01
Largest |displ|/coords:  0.1173 (   3)  0.1137 (  20)  0.1001 (  12)
................................................................................
.............................. CYCLE   38 ......................................
................................................................................
   1    -45.6185256 -0.456185E+02  0.413E-01    8.96       0.0  T
   2    -45.6186357 -0.110045E-03  0.303E-01    8.96       1.0  T
   3    -45.6187089 -0.732477E-04  0.724E-02    8.95       1.0  T
   4    -45.6187192 -0.103177E-04  0.183E-02    8.95       1.1  T
   5    -45.6187198 -0.566447E-06  0.650E-03    8.95       3.2  T
   6    -45.6187198 -0.311798E-07  0.366E-03    8.95       5.7  T
   7    -45.6187198 -0.198218E-07  0.925E-04    8.95      22.5  T
speedup  1.09
cpu  time for SCC    0.01 s
wall time for SCC    0.01 s
speedup  0.98
cpu  time for grad    0.01 s
wall time for grad    0.01 s
 E :    -45.35585253  G :  0.034374    pred/act E change: -0.983D-02 -0.281D-02
Maxdispl :   0.0691   ||displ|| :   0.1533   Lambda : -0.196D-02
Largest |displ|/coords:  0.0691 (   2)  0.0583 (   3)  0.0500 (  25)
................................................................................
.............................. CYCLE   39 ......................................
................................................................................
   1    -45.6150510 -0.456151E+02  0.163E-01    8.79       0.0  T
   2    -45.6150651 -0.140800E-04  0.121E-01    8.79       1.0  T
   3    -45.6150747 -0.961605E-05  0.255E-02    8.79       1.0  T
   4    -45.6150763 -0.156401E-05  0.700E-03    8.79       3.0  T
   5    -45.6150764 -0.811342E-07  0.251E-03    8.79       8.3  T
   6    -45.6150764 -0.562837E-08  0.141E-03    8.79      14.8  T
speedup  1.04
cpu  time for SCC    0.01 s
wall time for SCC    0.00 s
speedup  1.03
cpu  time for grad    0.01 s
wall time for grad    0.01 s
 E :    -45.35688828  G :  0.007835    pred/act E change: -0.581D-02 -0.104D-02
Maxdispl :   0.1321   ||displ|| :   0.2668   Lambda : -0.469D-03
Largest |displ|/coords:  0.1321 (   7)  0.1154 (   9)  0.0917 (   5)
................................................................................
.............................. CYCLE   40 ......................................
................................................................................
   1    -45.6081581 -0.456082E+02  0.227E-01    8.61       0.0  T
   2    -45.6081657 -0.761919E-05  0.171E-01    8.61       1.0  T
   3    -45.6081725 -0.685772E-05  0.204E-02    8.61       1.0  T
   4    -45.6081734 -0.865396E-06  0.703E-03    8.62       3.0  T
   5    -45.6081735 -0.483580E-07  0.184E-03    8.61      11.3  T
   6    -45.6081735 -0.319838E-08  0.109E-03    8.61      19.1  T
speedup  1.02
cpu  time for SCC    0.00 s
wall time for SCC    0.00 s
speedup  1.02
cpu  time for grad    0.01 s
wall time for grad    0.01 s
 E :    -45.35710161  G :  0.019192    pred/act E change: -0.101D-02 -0.213D-03
Maxdispl :   0.0927   ||displ|| :   0.2199   Lambda : -0.538D-03
Largest |displ|/coords:  0.0927 (   2)  0.0672 (   9)  0.0646 (   1)
................................................................................
.............................. CYCLE   41 ......................................
................................................................................
   1    -45.6085048 -0.456085E+02  0.189E-01    8.69       0.0  T
   2    -45.6085105 -0.575784E-05  0.144E-01    8.69       1.0  T
   3    -45.6085165 -0.595162E-05  0.124E-02    8.68       1.7  T
   4    -45.6085171 -0.588245E-06  0.398E-03    8.68       5.2  T
   5    -45.6085171 -0.201152E-07  0.171E-03    8.68      12.2  T
   6    -45.6085171 -0.283516E-08  0.886E-04    8.68      23.5  T
speedup  1.04
cpu  time for SCC    0.01 s
wall time for SCC    0.00 s
speedup  0.94
cpu  time for grad    0.01 s
wall time for grad    0.01 s
 E :    -45.35751749  G :  0.022292    pred/act E change: -0.251D-03 -0.416D-03
Maxdispl :   0.1695   ||displ|| :   0.3738   Lambda : -0.130D-02
Largest |displ|/coords:  0.1695 (   2)  0.1274 (   3)  0.1064 (   9)
................................................................................
.............................. CYCLE   42 ......................................
................................................................................
   1    -45.6140396 -0.456140E+02  0.301E-01    8.91       0.0  T
   2    -45.6140503 -0.107120E-04  0.228E-01    8.91       1.0  T
   3    -45.6140637 -0.133703E-04  0.196E-02    8.90       1.1  T
   4    -45.6140642 -0.512390E-06  0.467E-03    8.90       4.5  T
   5    -45.6140642 -0.231658E-07  0.244E-03    8.90       8.5  T
speedup  0.95
cpu  time for SCC    0.00 s
wall time for SCC    0.00 s
speedup  1.00
cpu  time for grad    0.01 s
wall time for grad    0.01 s
 E :    -45.35851518  G :  0.017099    pred/act E change: -0.282D-03 -0.998D-03
Maxdispl :   0.2416   ||displ|| :   0.6185   Lambda : -0.165D-02
Largest |displ|/coords:  0.2416 (   9)  0.1990 (   2)  0.1842 (   3)
................................................................................
.............................. CYCLE   43 ......................................
................................................................................
   1    -45.6105205 -0.456105E+02  0.513E-01    8.73       0.0  T
   2    -45.6105530 -0.325395E-04  0.389E-01    8.73       1.0  T
   3    -45.6105936 -0.406005E-04  0.287E-02    8.73       1.0  T
   4    -45.6105952 -0.152211E-05  0.112E-02    8.73       1.9  T
   5    -45.6105953 -0.120258E-06  0.361E-03    8.73       5.8  T
   6    -45.6105953 -0.190450E-07  0.197E-03    8.73      10.6  T
   7    -45.6105953 -0.506932E-08  0.402E-04    8.73      51.9  T
speedup  0.89
cpu  time for SCC    0.00 s
wall time for SCC    0.01 s
speedup  0.97
cpu  time for grad    0.01 s
wall time for grad    0.01 s
 E :    -45.35964607  G :  0.026944    pred/act E change: -0.738D-03 -0.113D-02
Maxdispl :   0.1419   ||displ|| :   0.4388   Lambda : -0.278D-02
Largest |displ|/coords:  0.1419 (   3)  0.1418 (  28)  0.1098 (   7)
................................................................................
.............................. CYCLE   44 ......................................
................................................................................
   1    -45.6234309 -0.456234E+02  0.355E-01    9.03       0.0  T
   2    -45.6234730 -0.420997E-04  0.262E-01    9.03       1.0  T
   3    -45.6234946 -0.215961E-04  0.493E-02    9.02       1.0  T
   4    -45.6235002 -0.559544E-05  0.143E-02    9.02       1.5  T
   5    -45.6235005 -0.288139E-06  0.327E-03    9.02       6.4  T
   6    -45.6235005 -0.105436E-07  0.182E-03    9.02      11.4  T
speedup  1.02
cpu  time for SCC    0.01 s
wall time for SCC    0.00 s
speedup  1.03
cpu  time for grad    0.01 s
wall time for grad    0.01 s
 E :    -45.36074584  G :  0.027728    pred/act E change: -0.114D-02 -0.110D-02
Maxdispl :   0.2376   ||displ|| :   0.5973   Lambda : -0.261D-02
Largest |displ|/coords:  0.2376 (   3)  0.2184 (   2)  0.2082 (   7)
................................................................................
.............................. CYCLE   45 ......................................
................................................................................
   1    -45.6087313 -0.456087E+02  0.498E-01    8.88       0.0  T
   2    -45.6087861 -0.547887E-04  0.374E-01    8.88       1.0  T
   3    -45.6088355 -0.493321E-04  0.463E-02    8.87       1.0  T
   4    -45.6088419 -0.647662E-05  0.126E-02    8.88       1.7  T
   5    -45.6088421 -0.149002E-06  0.620E-03    8.88       3.4  T
   6    -45.6088421 -0.465367E-07  0.278E-03    8.88       7.5  T
   7    -45.6088421 -0.116723E-07  0.771E-04    8.88      27.1  T
speedup  0.91
cpu  time for SCC    0.00 s
wall time for SCC    0.01 s
speedup  0.89
cpu  time for grad    0.01 s
wall time for grad    0.01 s
 E :    -45.36093985  G :  0.035614    pred/act E change: -0.166D-02 -0.194D-03
Maxdispl :   0.1543   ||displ|| :   0.2431   Lambda : -0.278D-02
Largest |displ|/coords:  0.1543 (   7)  0.1115 (   2)  0.0635 (  20)
................................................................................
.............................. CYCLE   46 ......................................
................................................................................
   1    -45.6184264 -0.456184E+02  0.200E-01    9.08       0.0  T
   2    -45.6184357 -0.938292E-05  0.150E-01    9.08       1.0  T
   3    -45.6184432 -0.742917E-05  0.205E-02    9.07       1.0  T
   4    -45.6184442 -0.100571E-05  0.697E-03    9.07       3.0  T
   5    -45.6184442 -0.594570E-07  0.229E-03    9.07       9.1  T
   6    -45.6184442 -0.312804E-08  0.113E-03    9.07      18.5  T
speedup  1.04
cpu  time for SCC    0.00 s
wall time for SCC    0.00 s
speedup  1.03
cpu  time for grad    0.01 s
wall time for grad    0.01 s
 E :    -45.36177875  G :  0.031762    pred/act E change: -0.177D-02 -0.839D-03
Maxdispl :   0.0855   ||displ|| :   0.2214   Lambda : -0.227D-02
Largest |displ|/coords:  0.0855 (  18)  0.0838 (   7)  0.0754 (  14)
................................................................................
.............................. CYCLE   47 ......................................
................................................................................
   1    -45.6191158 -0.456191E+02  0.245E-01    8.98       0.0  T
   2    -45.6191488 -0.329712E-04  0.182E-01    8.98       1.0  T
   3    -45.6191736 -0.248603E-04  0.376E-02    8.98       1.0  T
   4    -45.6191769 -0.326862E-05  0.128E-02    8.98       1.6  T
   5    -45.6191772 -0.294124E-06  0.404E-03    8.98       5.2  T
   6    -45.6191772 -0.156558E-07  0.217E-03    8.98       9.6  T
speedup  1.04
cpu  time for SCC    0.00 s
wall time for SCC    0.00 s
speedup  1.03
cpu  time for grad    0.01 s
wall time for grad    0.01 s
 E :    -45.36151033  G :  0.037466    pred/act E change: -0.147D-02  0.268D-03
Maxdispl :   0.1061   ||displ|| :   0.1855   Lambda : -0.247D-02
Largest |displ|/coords:  0.1061 (   7)  0.0471 (   4)  0.0458 (  28)
................................................................................
.............................. CYCLE   48 ......................................
................................................................................
   1    -45.6226447 -0.456226E+02  0.198E-01    9.10       0.0  T
   2    -45.6226639 -0.191997E-04  0.148E-01    9.10       1.0  T
   3    -45.6226775 -0.136719E-04  0.266E-02    9.10       1.0  T
   4    -45.6226799 -0.233996E-05  0.807E-03    9.10       2.6  T
   5    -45.6226800 -0.118734E-06  0.318E-03    9.10       6.6  T
   6    -45.6226800 -0.775965E-08  0.164E-03    9.10      12.7  T
speedup  1.00
cpu  time for SCC    0.00 s
wall time for SCC    0.00 s
speedup  1.01
cpu  time for grad    0.01 s
wall time for grad    0.01 s
 E :    -45.36280911  G :  0.010694    pred/act E change: -0.119D-02 -0.130D-02
Maxdispl :   0.1681   ||displ|| :   0.4477   Lambda : -0.111D-02
Largest |displ|/coords:  0.1681 (   9)  0.1383 (   3)  0.1185 (  27)
................................................................................
.............................. CYCLE   49 ......................................
................................................................................
   1    -45.6102436 -0.456102E+02  0.377E-01    8.78       0.0  T
   2    -45.6102693 -0.257452E-04  0.283E-01    8.78       1.0  T
   3    -45.6102951 -0.257720E-04  0.338E-02    8.78       1.0  T
   4    -45.6102975 -0.243302E-05  0.131E-02    8.78       1.6  T
   5    -45.6102977 -0.200244E-06  0.392E-03    8.78       5.3  T
   6    -45.6102977 -0.179806E-07  0.240E-03    8.78       8.7  T
   7    -45.6102977 -0.110120E-07  0.698E-04    8.78      29.9  T
speedup  0.89
cpu  time for SCC    0.00 s
wall time for SCC    0.01 s
speedup  0.96
cpu  time for grad    0.01 s
wall time for grad    0.01 s
 E :    -45.36260095  G :  0.037339    pred/act E change: -0.128D-02  0.208D-03
Maxdispl :   0.0521   ||displ|| :   0.1599   Lambda : -0.182D-02
Largest |displ|/coords:  0.0521 (   2)  0.0465 (   9)  0.0423 (  17)
................................................................................
.............................. CYCLE   50 ......................................
................................................................................
   1    -45.6181084 -0.456181E+02  0.150E-01    9.18       0.0  T
   2    -45.6181191 -0.107049E-04  0.108E-01    9.18       1.0  T
   3    -45.6181243 -0.520564E-05  0.266E-02    9.17       1.0  T
   4    -45.6181254 -0.105478E-05  0.722E-03    9.17       2.9  T
   5    -45.6181255 -0.779254E-07  0.168E-03    9.17      12.4  T
   6    -45.6181255 -0.331727E-08  0.101E-03    9.17      20.6  T
speedup  0.98
cpu  time for SCC    0.00 s
wall time for SCC    0.01 s
speedup  1.01
cpu  time for grad    0.01 s
wall time for grad    0.01 s
 E :    -45.36352224  G :  0.019422    pred/act E change: -0.668D-03 -0.921D-03
Maxdispl :   0.1049   ||displ|| :   0.2296   Lambda : -0.131D-02
Largest |displ|/coords:  0.1049 (  28)  0.0777 (  27)  0.0753 (  25)
................................................................................
.............................. CYCLE   51 ......................................
................................................................................
   1    -45.6260324 -0.456260E+02  0.210E-01    9.06       0.0  T
   2    -45.6260448 -0.124381E-04  0.155E-01    9.06       1.0  T
   3    -45.6260555 -0.107062E-04  0.287E-02    9.06       1.0  T
   4    -45.6260565 -0.951499E-06  0.921E-03    9.06       2.3  T
   5    -45.6260565 -0.865402E-07  0.216E-03    9.06       9.6  T
   6    -45.6260566 -0.357073E-08  0.129E-03    9.06      16.2  T
speedup  1.04
cpu  time for SCC    0.00 s
wall time for SCC    0.00 s
speedup  1.02
cpu  time for grad    0.01 s
wall time for grad    0.01 s
 E :    -45.36349052  G :  0.025463    pred/act E change: -0.935D-03  0.317D-04
Maxdispl :   0.1279   ||displ|| :   0.2581   Lambda : -0.150D-02
Largest |displ|/coords:  0.1279 (  14)  0.0997 (  13)  0.0751 (   1)
................................................................................
.............................. CYCLE   52 ......................................
................................................................................
   1    -45.6232444 -0.456232E+02  0.202E-01    9.14       0.0  T
   2    -45.6232510 -0.663024E-05  0.152E-01    9.14       1.0  T
   3    -45.6232582 -0.717358E-05  0.170E-02    9.14       1.2  T
   4    -45.6232587 -0.565668E-06  0.581E-03    9.14       3.6  T
   5    -45.6232588 -0.422066E-07  0.231E-03    9.14       9.0  T
speedup  0.98
cpu  time for SCC    0.00 s
wall time for SCC    0.00 s
speedup  0.99
cpu  time for grad    0.01 s
wall time for grad    0.01 s
 E :    -45.36445435  G :  0.013195    pred/act E change: -0.689D-03 -0.964D-03
Maxdispl :   0.1616   ||displ|| :   0.4066   Lambda : -0.103D-02
Largest |displ|/coords:  0.1616 (   9)  0.1330 (  13)  0.1259 (   3)

generating ANC from model Hessian ...
 Shifting diagonal of input Hessian by   4.478202291735209E-003
 Lowest  eigenvalues of input Hessian
   -0.000000   -0.000000   -0.000000    0.000000    0.000000    0.000000
    0.005000    0.005207    0.005614    0.006719    0.007195    0.007617
    0.007854    0.008250    0.008657    0.009483    0.009552    0.011095
 Highest eigenvalues
    1.367960    1.382803    1.387646    2.426777    3.378584    3.741609
 
cpu  time for ANC gen    0.02 s
wall time for ANC gen    0.02 s
................................................................................
.............................. CYCLE   53 ......................................
................................................................................
   1    -45.6118364 -0.456118E+02  0.342E-01    9.10       0.0  T
   2    -45.6118576 -0.211674E-04  0.255E-01    9.10       1.0  T
   3    -45.6118769 -0.193609E-04  0.360E-02    9.09       1.0  T
   4    -45.6118791 -0.220899E-05  0.121E-02    9.10       1.7  T
   5    -45.6118793 -0.182286E-06  0.372E-03    9.10       5.6  T
   6    -45.6118793 -0.199790E-07  0.231E-03    9.10       9.0  T
   7    -45.6118793 -0.991383E-08  0.706E-04    9.10      29.5  T
   8    -45.6118794 -0.224927E-08  0.297E-04    9.10      70.2  T
speedup  1.11
cpu  time for SCC    0.01 s
wall time for SCC    0.01 s
speedup  1.02
cpu  time for grad    0.01 s
wall time for grad    0.01 s
 E :    -45.36463792  G :  0.030035    pred/act E change:  0.000D+00 -0.184D-03
Maxdispl :   0.1135   ||displ|| :   0.2216   Lambda : -0.156D-02
Largest |displ|/coords:  0.1135 (   7)  0.0717 (   8)  0.0705 (   3)
................................................................................
.............................. CYCLE   54 ......................................
................................................................................
   1    -45.6202133 -0.456202E+02  0.187E-01    9.13       0.0  T
   2    -45.6202208 -0.754726E-05  0.141E-01    9.13       1.0  T
   3    -45.6202260 -0.519035E-05  0.178E-02    9.13       1.2  T
   4    -45.6202271 -0.103685E-05  0.567E-03    9.13       3.7  T
   5    -45.6202271 -0.701249E-07  0.204E-03    9.13      10.2  T
speedup  0.98
cpu  time for SCC    0.00 s
wall time for SCC    0.00 s
speedup  0.99
cpu  time for grad    0.01 s
wall time for grad    0.01 s
 E :    -45.36570124  G :  0.011097    pred/act E change:  0.000D+00 -0.106D-02
Maxdispl :   0.1189   ||displ|| :   0.3063   Lambda : -0.958D-03
Largest |displ|/coords:  0.1189 (  10)  0.1116 (   7)  0.1063 (   5)
................................................................................
.............................. CYCLE   55 ......................................
................................................................................
   1    -45.6247811 -0.456248E+02  0.276E-01    9.16       0.0  T
   2    -45.6247913 -0.101208E-04  0.209E-01    9.16       1.0  T
   3    -45.6248028 -0.115314E-04  0.201E-02    9.16       1.0  T
   4    -45.6248036 -0.822191E-06  0.661E-03    9.16       3.2  T
   5    -45.6248037 -0.491144E-07  0.299E-03    9.16       7.0  T
   6    -45.6248037 -0.113362E-07  0.129E-03    9.16      16.1  T
speedup  0.82
cpu  time for SCC    0.00 s
wall time for SCC    0.00 s
speedup  0.92
cpu  time for grad    0.01 s
wall time for grad    0.01 s
 E :    -45.36630821  G :  0.010172    pred/act E change: -0.817D-03 -0.607D-03
Maxdispl :   0.2177   ||displ|| :   0.4718   Lambda : -0.964D-03
Largest |displ|/coords:  0.2177 (   7)  0.1896 (   3)  0.1806 (  16)
................................................................................
.............................. CYCLE   56 ......................................
................................................................................
   1    -45.6223777 -0.456224E+02  0.382E-01    9.16       0.0  T
   2    -45.6223930 -0.152326E-04  0.287E-01    9.16       1.0  T
   3    -45.6224112 -0.182665E-04  0.258E-02    9.16       1.0  T
   4    -45.6224125 -0.130249E-05  0.983E-03    9.16       2.1  T
   5    -45.6224127 -0.112406E-06  0.428E-03    9.16       4.9  T
   6    -45.6224127 -0.308855E-07  0.189E-03    9.16      11.0  T
   7    -45.6224127 -0.689897E-08  0.494E-04    9.16      42.2  T
speedup  0.91
cpu  time for SCC    0.00 s
wall time for SCC    0.01 s
speedup  0.95
cpu  time for grad    0.01 s
wall time for grad    0.01 s
 E :    -45.36685845  G :  0.021982    pred/act E change: -0.524D-03 -0.550D-03
Maxdispl :   0.1309   ||displ|| :   0.3167   Lambda : -0.982D-03
Largest |displ|/coords:  0.1309 (   4)  0.1263 (   5)  0.1199 (  16)
................................................................................
.............................. CYCLE   57 ......................................
................................................................................
   1    -45.6243702 -0.456244E+02  0.224E-01    9.16       0.0  T
   2    -45.6243843 -0.140860E-04  0.168E-01    9.16       1.0  T
   3    -45.6243942 -0.983410E-05  0.260E-02    9.16       1.0  T
   4    -45.6243962 -0.205365E-05  0.766E-03    9.16       2.7  T
   5    -45.6243963 -0.835314E-07  0.290E-03    9.16       7.2  T
   6    -45.6243963 -0.971694E-08  0.165E-03    9.16      12.6  T
speedup  0.00
cpu  time for SCC    0.00 s
wall time for SCC    0.00 s
speedup  0.00
cpu  time for grad    0.00 s
wall time for grad    0.01 s
 E :    -45.36734812  G :  0.013340    pred/act E change: -0.589D-03 -0.490D-03
Maxdispl :   0.1311   ||displ|| :   0.3179   Lambda : -0.773D-03
Largest |displ|/coords:  0.1311 (   5)  0.1271 (   3)  0.0999 (   1)
................................................................................
.............................. CYCLE   58 ......................................
................................................................................
   1    -45.6261444 -0.456261E+02  0.191E-01    9.17       0.0  T
   2    -45.6261530 -0.860939E-05  0.143E-01    9.16       1.0  T
   3    -45.6261596 -0.655974E-05  0.199E-02    9.16       1.0  T
   4    -45.6261607 -0.110260E-05  0.639E-03    9.16       3.3  T
   5    -45.6261607 -0.551491E-07  0.213E-03    9.16       9.8  T
   6    -45.6261607 -0.629633E-08  0.120E-03    9.16      17.4  T
speedup  0.00
cpu  time for SCC    0.00 s
wall time for SCC    0.00 s
speedup  0.00
cpu  time for grad    0.00 s
wall time for grad    0.01 s
 E :    -45.36773121  G :  0.011609    pred/act E change: -0.540D-03 -0.383D-03
Maxdispl :   0.2019   ||displ|| :   0.4781   Lambda : -0.788D-03
Largest |displ|/coords:  0.2019 (   8)  0.1506 (   5)  0.1501 (   7)
................................................................................
.............................. CYCLE   59 ......................................
................................................................................
   1    -45.6162635 -0.456163E+02  0.341E-01    9.12       0.0  T
   2    -45.6162930 -0.294790E-04  0.257E-01    9.12       1.0  T
   3    -45.6163211 -0.281819E-04  0.355E-02    9.12       1.0  T
   4    -45.6163245 -0.338273E-05  0.130E-02    9.12       1.6  T
   5    -45.6163248 -0.240655E-06  0.488E-03    9.12       4.3  T
   6    -45.6163248 -0.297721E-07  0.271E-03    9.12       7.7  T
   7    -45.6163248 -0.165339E-07  0.724E-04    9.12      28.8  T
speedup  0.89
cpu  time for SCC    0.00 s
wall time for SCC    0.01 s
speedup  0.88
cpu  time for grad    0.01 s
wall time for grad    0.01 s
 E :    -45.36751302  G :  0.030006    pred/act E change: -0.426D-03  0.218D-03
Maxdispl :   0.1024   ||displ|| :   0.1910   Lambda : -0.136D-02
Largest |displ|/coords:  0.1024 (  16)  0.0663 (   7)  0.0591 (  10)
................................................................................
.............................. CYCLE   60 ......................................
................................................................................
   1    -45.6246013 -0.456246E+02  0.149E-01    9.16       0.0  T
   2    -45.6246092 -0.789719E-05  0.112E-01    9.16       1.0  T
   3    -45.6246159 -0.663270E-05  0.180E-02    9.16       1.2  T
   4    -45.6246167 -0.879625E-06  0.653E-03    9.16       3.2  T
   5    -45.6246168 -0.544834E-07  0.245E-03    9.16       8.5  T
   6    -45.6246168 -0.751769E-08  0.129E-03    9.16      16.2  T
speedup  1.02
cpu  time for SCC    0.00 s
wall time for SCC    0.00 s
speedup  1.00
cpu  time for grad    0.01 s
wall time for grad    0.01 s
 E :    -45.36807292  G :  0.010682    pred/act E change: -0.484D-03 -0.560D-03
Maxdispl :   0.0899   ||displ|| :   0.1589   Lambda : -0.452D-03
Largest |displ|/coords:  0.0899 (   5)  0.0518 (   1)  0.0505 (   9)
................................................................................
.............................. CYCLE   61 ......................................
................................................................................
   1    -45.6294458 -0.456294E+02  0.159E-01    9.18       0.0  T
   2    -45.6294612 -0.153831E-04  0.119E-01    9.18       1.0  T
   3    -45.6294713 -0.101321E-04  0.243E-02    9.18       1.0  T
   4    -45.6294732 -0.189927E-05  0.595E-03    9.18       3.5  T
   5    -45.6294733 -0.643188E-07  0.262E-03    9.18       7.9  T
   6    -45.6294733 -0.436697E-08  0.137E-03    9.18      15.2  T
speedup  1.06
cpu  time for SCC    0.00 s
wall time for SCC    0.00 s
speedup  1.04
cpu  time for grad    0.01 s
wall time for grad    0.01 s
 E :    -45.36776063  G :  0.022782    pred/act E change: -0.703D-03  0.312D-03
Maxdispl :   0.0897   ||displ|| :   0.1840   Lambda : -0.897D-03
Largest |displ|/coords:  0.0897 (   5)  0.0760 (   3)  0.0662 (   4)
................................................................................
.............................. CYCLE   62 ......................................
................................................................................
   1    -45.6252133 -0.456252E+02  0.167E-01    9.18       0.0  T
   2    -45.6252239 -0.106721E-04  0.125E-01    9.18       1.0  T
   3    -45.6252317 -0.774538E-05  0.196E-02    9.18       1.1  T
   4    -45.6252331 -0.145605E-05  0.600E-03    9.18       3.5  T
   5    -45.6252332 -0.676556E-07  0.248E-03    9.18       8.4  T
   6    -45.6252332 -0.525975E-08  0.135E-03    9.18      15.4  T
speedup  1.06
cpu  time for SCC    0.00 s
wall time for SCC    0.00 s
speedup  1.04
cpu  time for grad    0.01 s
wall time for grad    0.01 s
 E :    -45.36823743  G :  0.007868    pred/act E change: -0.232D-03 -0.477D-03
Maxdispl :   0.0943   ||displ|| :   0.1737   Lambda : -0.247D-03
Largest |displ|/coords:  0.0943 (   5)  0.0656 (   8)  0.0645 (   2)
................................................................................
.............................. CYCLE   63 ......................................
................................................................................
   1    -45.6243023 -0.456243E+02  0.121E-01    9.17       0.0  T
   2    -45.6243058 -0.346779E-05  0.918E-02    9.17       1.0  T
   3    -45.6243096 -0.384619E-05  0.109E-02    9.17       1.9  T
   4    -45.6243100 -0.320181E-06  0.437E-03    9.17       4.8  T
   5    -45.6243100 -0.247050E-07  0.152E-03    9.17      13.7  T
   6    -45.6243100 -0.314950E-08  0.727E-04    9.17      28.7  T
speedup  1.06
cpu  time for SCC    0.00 s
wall time for SCC    0.00 s
speedup  0.95
cpu  time for grad    0.01 s
wall time for grad    0.01 s
 E :    -45.36826634  G :  0.010850    pred/act E change: -0.464D-03 -0.289D-04
Maxdispl :   0.0761   ||displ|| :   0.1374   Lambda : -0.252D-03
Largest |displ|/coords:  0.0761 (   2)  0.0588 (   7)  0.0575 (   4)
................................................................................
.............................. CYCLE   64 ......................................
................................................................................
   1    -45.6246344 -0.456246E+02  0.974E-02    9.18       0.0  T
   2    -45.6246362 -0.183061E-05  0.735E-02    9.18       1.0  T
   3    -45.6246379 -0.171324E-05  0.798E-03    9.18       2.6  T
   4    -45.6246381 -0.207088E-06  0.246E-03    9.18       8.5  T
   5    -45.6246381 -0.649306E-08  0.112E-03    9.18      18.6  T
speedup  1.00
cpu  time for SCC    0.00 s
wall time for SCC    0.00 s
speedup  1.01
cpu  time for grad    0.01 s
wall time for grad    0.01 s
 E :    -45.36841652  G :  0.008052    pred/act E change: -0.127D-03 -0.150D-03
Maxdispl :   0.1343   ||displ|| :   0.2652   Lambda : -0.279D-03
Largest |displ|/coords:  0.1343 (   4)  0.1288 (   2)  0.1034 (   3)
................................................................................
.............................. CYCLE   65 ......................................
................................................................................
   1    -45.6241729 -0.456242E+02  0.155E-01    9.18       0.0  T
   2    -45.6241756 -0.270772E-05  0.116E-01    9.18       1.0  T
   3    -45.6241781 -0.244530E-05  0.105E-02    9.18       2.0  T
   4    -45.6241784 -0.318611E-06  0.321E-03    9.18       6.5  T
   5    -45.6241784 -0.147490E-07  0.154E-03    9.18      13.5  T
   6    -45.6241784 -0.280983E-08  0.679E-04    9.18      30.7  T
speedup  0.85
cpu  time for SCC    0.00 s
wall time for SCC    0.00 s
speedup  0.95
cpu  time for grad    0.01 s
wall time for grad    0.01 s
 E :    -45.36847458  G :  0.010962    pred/act E change: -0.129D-03 -0.581D-04
Maxdispl :   0.0563   ||displ|| :   0.1095   Lambda : -0.231D-03
[...]
   3    -45.6329868 -0.126899E-06  0.239E-03    9.36       8.7  T
   4    -45.6329868 -0.131689E-07  0.917E-04    9.36      22.7  T
   5    -45.6329868 -0.701981E-09  0.251E-04    9.36      83.2  T
speedup  1.00
cpu  time for SCC    0.00 s
wall time for SCC    0.00 s
speedup  1.06
cpu  time for grad    0.01 s
wall time for grad    0.01 s
 E :    -45.37620977  G :  0.001257    pred/act E change: -0.136D-04 -0.858D-05
Maxdispl :   0.0646   ||displ|| :   0.0985   Lambda : -0.953D-05
Largest |displ|/coords:  0.0646 (   2)  0.0519 (   1)  0.0302 (   3)
................................................................................
.............................. CYCLE  154 ......................................
................................................................................
   1    -45.6325971 -0.456326E+02  0.650E-02    9.36       0.0  T
   2    -45.6325975 -0.406470E-06  0.491E-02    9.36       1.0  T
   3    -45.6325979 -0.435619E-06  0.356E-03    9.36       5.9  T
   4    -45.6325980 -0.360584E-07  0.153E-03    9.36      13.7  T
   5    -45.6325980 -0.213131E-08  0.517E-04    9.36      40.4  T
   6    -45.6325980 -0.237620E-09  0.261E-04    9.36      79.8  T
speedup  0.85
cpu  time for SCC    0.00 s
wall time for SCC    0.00 s
speedup  1.00
cpu  time for grad    0.01 s
wall time for grad    0.01 s
 E :    -45.37621307  G :  0.001967    pred/act E change: -0.739D-05 -0.330D-05
Maxdispl :   0.0108   ||displ|| :   0.0208   Lambda : -0.692D-05
Largest |displ|/coords:  0.0108 (   4)  0.0081 (   1)  0.0072 (   3)
................................................................................
.............................. CYCLE  155 ......................................
................................................................................
   1    -45.6329421 -0.456329E+02  0.135E-02    9.36       0.0  T
   2    -45.6329421 -0.574758E-07  0.102E-02    9.36       2.1  T
   3    -45.6329422 -0.447931E-07  0.155E-03    9.36      13.5  T
   4    -45.6329422 -0.737825E-08  0.516E-04    9.36      40.4  T
   5    -45.6329422 -0.319332E-09  0.170E-04    9.36     122.6  T
speedup  1.00
cpu  time for SCC    0.00 s
wall time for SCC    0.00 s
speedup  0.96
cpu  time for grad    0.01 s
wall time for grad    0.01 s
 E :    -45.37621738  G :  0.000896    pred/act E change: -0.481D-05 -0.431D-05
Maxdispl :   0.0116   ||displ|| :   0.0207   Lambda : -0.388D-05
Largest |displ|/coords:  0.0116 (   4)  0.0103 (   5)  0.0058 (  14)
................................................................................
.............................. CYCLE  156 ......................................
................................................................................
   1    -45.6329551 -0.456330E+02  0.171E-02    9.36       0.0  T
   2    -45.6329552 -0.382528E-07  0.129E-02    9.36       1.6  T
   3    -45.6329552 -0.373939E-07  0.117E-03    9.36      17.9  T
   4    -45.6329552 -0.418448E-08  0.489E-04    9.36      42.6  T
   5    -45.6329552 -0.208104E-09  0.129E-04    9.36     162.0  T
speedup  1.03
cpu  time for SCC    0.00 s
wall time for SCC    0.00 s
speedup  1.07
cpu  time for grad    0.01 s
wall time for grad    0.01 s
 E :    -45.37621989  G :  0.000911    pred/act E change: -0.347D-05 -0.251D-05
Maxdispl :   0.0158   ||displ|| :   0.0276   Lambda : -0.346D-05
Largest |displ|/coords:  0.0158 (   2)  0.0151 (   4)  0.0066 (  14)
................................................................................
.............................. CYCLE  157 ......................................
................................................................................
   1    -45.6329030 -0.456329E+02  0.214E-02    9.36       0.0  T
   2    -45.6329030 -0.400380E-07  0.161E-02    9.36       1.3  T
   3    -45.6329030 -0.384820E-07  0.118E-03    9.36      17.6  T
   4    -45.6329030 -0.448381E-08  0.494E-04    9.36      42.2  T
   5    -45.6329030 -0.230003E-09  0.152E-04    9.36     137.2  T
speedup  1.00
cpu  time for SCC    0.00 s
wall time for SCC    0.00 s
speedup  0.97
cpu  time for grad    0.01 s
wall time for grad    0.01 s
 E :    -45.37622205  G :  0.000698    pred/act E change: -0.194D-05 -0.217D-05
Maxdispl :   0.0137   ||displ|| :   0.0246   Lambda : -0.192D-05
Largest |displ|/coords:  0.0137 (   2)  0.0133 (   4)  0.0078 (   5)
................................................................................
.............................. CYCLE  158 ......................................
................................................................................
   1    -45.6327732 -0.456328E+02  0.191E-02    9.36       0.0  T
   2    -45.6327732 -0.373520E-07  0.143E-02    9.36       1.5  T
   3    -45.6327732 -0.380301E-07  0.128E-03    9.36      16.3  T
   4    -45.6327732 -0.358779E-08  0.404E-04    9.36      51.6  T
   5    -45.6327732 -0.194476E-09  0.155E-04    9.36     134.2  T
speedup  1.03
cpu  time for SCC    0.00 s
wall time for SCC    0.00 s
speedup  1.07
cpu  time for grad    0.01 s
wall time for grad    0.01 s
 E :    -45.37622328  G :  0.000533    pred/act E change: -0.173D-05 -0.123D-05
Maxdispl :   0.0098   ||displ|| :   0.0169   Lambda : -0.137D-05
Largest |displ|/coords:  0.0098 (   2)  0.0088 (   4)  0.0049 (  17)
................................................................................
.............................. CYCLE  159 ......................................
................................................................................
   1    -45.6327321 -0.456327E+02  0.112E-02    9.36       0.0  T
   2    -45.6327321 -0.167218E-07  0.827E-03    9.36       2.5  T
   3    -45.6327321 -0.128009E-07  0.113E-03    9.36      18.5  T
   4    -45.6327321 -0.190329E-08  0.274E-04    9.36      76.0  T
   5    -45.6327321 -0.127095E-09  0.915E-05    9.36     227.9  T
speedup  1.00
cpu  time for SCC    0.00 s
wall time for SCC    0.00 s
speedup  0.97
cpu  time for grad    0.01 s
wall time for grad    0.01 s
 E :    -45.37622405  G :  0.000340    pred/act E change: -0.962D-06 -0.767D-06
Maxdispl :   0.0082   ||displ|| :   0.0127   Lambda : -0.637D-06
Largest |displ|/coords:  0.0082 (   2)  0.0059 (   4)  0.0037 (   3)
................................................................................
.............................. CYCLE  160 ......................................
................................................................................
   1    -45.6327447 -0.456327E+02  0.732E-03    9.36       0.0  T
   2    -45.6327448 -0.684481E-08  0.545E-03    9.36       3.8  T
   3    -45.6327448 -0.736550E-08  0.725E-04    9.36      28.8  T
   4    -45.6327448 -0.554003E-09  0.199E-04    9.36     104.8  T
speedup  0.94
cpu  time for SCC    0.00 s
wall time for SCC    0.00 s
speedup  1.05
cpu  time for grad    0.01 s
wall time for grad    0.01 s
 E :    -45.37622446  G :  0.000298    pred/act E change: -0.686D-06 -0.410D-06
Maxdispl :   0.0056   ||displ|| :   0.0085   Lambda : -0.323D-06
Largest |displ|/coords:  0.0056 (   2)  0.0034 (   4)  0.0028 (   1)
................................................................................
.............................. CYCLE  161 ......................................
................................................................................
   1    -45.6328084 -0.456328E+02  0.449E-03    9.36       0.0  T
   2    -45.6328084 -0.482473E-08  0.333E-03    9.36       6.3  T
   3    -45.6328084 -0.386014E-08  0.567E-04    9.36      36.8  T
   4    -45.6328084 -0.602164E-09  0.214E-04    9.36      97.6  T
speedup  0.91
cpu  time for SCC    0.00 s
wall time for SCC    0.00 s
speedup  1.05
cpu  time for grad    0.01 s
wall time for grad    0.01 s
 E :    -45.37622468  G :  0.000184    pred/act E change: -0.319D-06 -0.226D-06
Maxdispl :   0.0041   ||displ|| :   0.0076   Lambda : -0.177D-06
Largest |displ|/coords:  0.0041 (   2)  0.0039 (   4)  0.0039 (   1)
................................................................................
.............................. CYCLE  162 ......................................
................................................................................
   1    -45.6328329 -0.456328E+02  0.320E-03    9.36       0.0  T
   2    -45.6328329 -0.253168E-08  0.239E-03    9.36       8.7  T
   3    -45.6328329 -0.195779E-08  0.385E-04    9.36      54.2  T
   4    -45.6328329 -0.327120E-09  0.149E-04    9.36     140.2  T
speedup  0.97
cpu  time for SCC    0.00 s
wall time for SCC    0.00 s
speedup  0.95
cpu  time for grad    0.01 s
wall time for grad    0.01 s
 E :    -45.37622480  G :  0.000100    pred/act E change: -0.172D-06 -0.120D-06
Maxdispl :   0.0051   ||displ|| :   0.0081   Lambda : -0.122D-06
Largest |displ|/coords:  0.0051 (   2)  0.0045 (   1)  0.0036 (   4)
................................................................................
.............................. CYCLE  163 ......................................
................................................................................
   1    -45.6328395 -0.456328E+02  0.385E-03    9.36       0.0  T
   2    -45.6328395 -0.282289E-08  0.290E-03    9.36       7.2  T
   3    -45.6328395 -0.247079E-08  0.359E-04    9.36      58.0  T
   4    -45.6328395 -0.379757E-09  0.156E-04    9.36     133.4  T
speedup  1.25
cpu  time for SCC    0.00 s
wall time for SCC    0.00 s
speedup  1.04
cpu  time for grad    0.01 s
wall time for grad    0.01 s
 E :    -45.37622489  G :  0.000120    pred/act E change: -0.887D-07 -0.860D-07
Maxdispl :   0.0059   ||displ|| :   0.0077   Lambda : -0.100D-06
Largest |displ|/coords:  0.0059 (   1)  0.0027 (   2)  0.0026 (   4)

   *** GEOMETRY OPTIMIZATION CONVERGED AFTER 163 ITERATIONS ***

------------------------------------------------------------------------
 total energy gain (kcal):     -0.1287
------------------------------------------------------------------------
================
 final structure:
================
$coord
        1.00233625343312        0.61174468231088       -2.23026177941041      S 
        1.65216516890140       -0.85885162247494        0.04356255485431      O 
        3.06448337566732        2.17758329646711       -3.05611424631312      O 
       -1.27990105304427        2.36659655625388       -1.43320786115258      O 
       -0.12742756518066       -1.00960617548191       -4.14193195353042      O 
       -2.43843206267288       -1.88173372307699       -2.62057344528213      H 
       -0.78352623401439        3.36911372578464        0.06520267624384      H 
        0.17690947408340        4.68855886190257        2.68404595209916      O 
        1.98453987204278        4.18320543413750        2.50009525406659      H 
        0.15640301327859        6.49773323328929        2.57884043397917      H 
        0.48552541165471       -5.69701495333736       -0.67733171844057      O 
        1.19601568728954       -4.03571200676587       -0.24415302637069      H 
        1.14966697173860       -6.08297231875278       -2.32000021590077      H 
        4.73011104919407        3.15736024077326        1.53273985375586      O 
        4.83754003535717        1.43636267851020        2.10688252169317      H 
        4.40900842779227        3.00350075772485       -0.29155406649090      H 
       -2.31090605362367       -0.42334396169865        3.06162846458883      O 
       -2.38034410116712        1.33513218131314        3.51479812499976      H 
       -0.62747781893041       -0.65600001610483        2.32114774304079      H 
       -3.55919063289368       -2.81808172343733       -1.20756640563461      N 
       -2.46629575238066       -4.43303804387246       -0.82891913636621      H 
       -5.33669264374555       -3.22103887228049       -1.79966870115722      H 
       -3.53451086056834       -1.70949821222826        0.44233893895344      H 
$end
 
 Bond Distances (Angstroems)
 ---------------------------
S1-O2=1.4737         S1-O3=1.4382         S1-O4=1.5808         S1-O5=1.4550         O2-S1=1.4737         O3-S1=1.4382         
O4-S1=1.5808         O4-H7=0.9895         O5-S1=1.4550         H6-N20=1.0753        H7-O4=0.9895         O8-H9=0.9980         
O8-H10=0.9591        H9-O8=0.9980         H10-O8=0.9591        O11-H12=0.9832       O11-H13=0.9596       H12-O11=0.9832       
H13-O11=0.9596       O14-H15=0.9617       O14-H16=0.9836       H15-O14=0.9617       H16-O14=0.9836       O17-H18=0.9617       
O17-H19=0.9810       H18-O17=0.9617       H19-O17=0.9810       N20-H6=1.0753        N20-H21=1.0512       N20-H22=1.0141       
N20-H23=1.0520       H21-N20=1.0512       H22-N20=1.0141       H23-N20=1.0520       
 N  H  Rav=1.0481 sigma=0.0219  Rmin=1.0141  Rmax=1.0753     4
 O  H  Rav=0.9753 sigma=0.0140  Rmin=0.9591  Rmax=0.9980     9
 S  O  Rav=1.4869 sigma=0.0556  Rmin=1.4382  Rmax=1.5808     4
 
 selected bond angles (degree)
 --------------------
O3-S1-O2=112.04                O4-S1-O2=105.70                O4-S1-O3=108.80                O5-S1-O2=110.62                
O5-S1-O3=116.12                O5-S1-O4=102.59                H7-O4-S1=109.02                H10-O8-H9=105.82               
 
 selected dihedral angles (degree)
 ---------------------------------
H7-O4-S1-O2= 55.05            H7-O4-S1-O3=294.55            H7-O4-S1-O5=171.01            
 
 CMA Distance (Angstroems)
 ---------------------------
R(CMA):  1.8265

========================================================================
 FINAL SINGLEPOINT CALCULATION ON OPTIMIZED GEOMETRY
========================================================================

 Ncao       : 59
 Nao        : 58
 Nshell     : 34
 Nel        : 72
 T(el)      :   300.0
 intcut     :    25.0
 scfconv/Eh :  0.100E-05
   qconv/e  :  0.100E-03
 intneglect :  0.100E-07
 broydamp   :      0.250
 iter      E             dE          RMSdq      gap      omega  full diag
   1    -45.6328395 -0.456328E+02  0.528E-05    9.36       0.0  T
   2    -45.6328395 -0.171241E-11  0.339E-05    9.36     614.6  T
   3    -45.6328395 -0.909495E-12  0.715E-06    9.36    2915.0  T
speedup  0.83
cpu  time for SCC    0.00 s
wall time for SCC    0.00 s

   *** convergence criteria satisfied after 3 iterations ***

          eigenvalues
 #    :          24         25         26         27         28         29         30         31
 occ. :        2.000      2.000      2.000      2.000      2.000      2.000      2.000      2.000
 eps  :       -13.897    -13.558    -13.102    -12.614    -12.403    -12.282    -12.248    -12.227
 #    :          32         33         34         35         36         37         38         39
 occ. :        2.000      2.000      2.000      2.000      2.000      0.000      0.000      0.000
 eps  :       -12.143    -12.038    -11.866    -11.833    -11.658     -2.298     -0.953     -0.238
 #    :          40         41         42         43         44         45         46         47
 occ. :        0.000      0.000      0.000      0.000      0.000      0.000      0.000      0.000
 eps  :         0.746      1.179      1.707      2.558      2.899      3.818      4.909      5.448


   #   Z            q   n(s)   n(p)   n(d)      C6AA      α(0)
   1  16 S      1.671  1.589  1.789  0.952    89.438    15.917
   2   8 O     -0.785  1.779  5.006  0.000    31.132     7.481
   3   8 O     -0.710  1.767  4.943  0.000    28.970     7.216
   4   8 O     -0.648  1.765  4.883  0.000    26.337     6.928
   5   8 O     -0.721  1.765  4.957  0.000    29.291     7.257
   6   1 H      0.295  0.705  0.000  0.000     0.729     1.337
   7   1 H      0.370  0.630  0.000  0.000     0.540     1.153
   8   8 O     -0.627  1.755  4.872  0.000    25.833     6.860
   9   1 H      0.339  0.661  0.000  0.000     0.616     1.233
  10   1 H      0.292  0.708  0.000  0.000     0.745     1.356
  11   8 O     -0.601  1.743  4.858  0.000    25.209     6.776
  12   1 H      0.328  0.672  0.000  0.000     0.643     1.260
  13   1 H      0.291  0.709  0.000  0.000     0.747     1.358
  14   8 O     -0.607  1.744  4.863  0.000    25.361     6.797
  15   1 H      0.300  0.700  0.000  0.000     0.721     1.334
  16   1 H      0.324  0.676  0.000  0.000     0.654     1.271
  17   8 O     -0.613  1.744  4.869  0.000    25.506     6.816
  18   1 H      0.307  0.693  0.000  0.000     0.702     1.316
  19   1 H      0.326  0.674  0.000  0.000     0.648     1.265
  20   7 N     -0.347  1.271  4.076  0.000    28.917     7.987
  21   1 H      0.291  0.709  0.000  0.000     0.739     1.347
  22   1 H      0.233  0.767  0.000  0.000     0.954     1.530
  23   1 H      0.293  0.707  0.000  0.000     0.736     1.344

 Mol. C6AA /au·bohr⁶  :       4504.023631
 Mol. C8AA /au·bohr⁸  :      99227.557839
 Mol. α(0) /au        :         97.136440

 
 Wiberg/Mayer (AO) data. WBOs > 0.1 written file <wbo>
 largest (>0.05) Wiberg bond orders for each atom
           total WBO             WBO to atom ...
     1  S   4.858    O    3 1.374    O    5 1.303    O    2 1.231    O    4 0.917
     2  O   1.687    S    1 1.231    O    3 0.107    O    5 0.103    O    4 0.077    H   12 0.057    H   19 0.056
     3  O   1.760    S    1 1.374    O    2 0.107    O    5 0.104    O    4 0.083    H   16 0.060
     4  O   1.934    S    1 0.917    H    7 0.746    O    3 0.083    O    2 0.077    O    5 0.064
     5  O   1.769    S    1 1.303    H    6 0.127    O    3 0.104    O    2 0.103    O    4 0.064    N   20 0.053
     6  H   0.913    N   20 0.777    O    5 0.127
     7  H   0.863    O    4 0.746    O    8 0.098
     8  O   1.890    H   10 0.911    H    9 0.789    H    7 0.098
     9  H   0.885    O    8 0.789    O   14 0.094
    10  H   0.914    O    8 0.911
    11  O   1.899    H   13 0.912    H   12 0.831    H   21 0.081
    12  H   0.892    O   11 0.831    O    2 0.057
    13  H   0.915    O   11 0.912
    14  O   1.904    H   15 0.903    H   16 0.831    H    9 0.094
    15  H   0.910    O   14 0.903
    16  H   0.895    O   14 0.831    O    3 0.060
    17  O   1.892    H   18 0.893    H   19 0.833    H   23 0.086
    18  H   0.906    O   17 0.893
    19  H   0.894    O   17 0.833    O    2 0.056
    20  N   3.523    H   22 0.942    H   21 0.828    H   23 0.822    H    6 0.777    O    5 0.053
    21  H   0.915    N   20 0.828    O   11 0.081
    22  H   0.946    N   20 0.942
    23  H   0.914    N   20 0.822    O   17 0.086
 MOs/occ written to file <molden.input>
 
molecular dipole:
                 x           y           z       tot (Debye)
 q only:       -2.112      -0.878       0.599
   full:       -1.726      -0.435       0.300       4.587
molecular quadrupole (traceless):
                xx          xy          yy          xz          yz          zz
 q only:        4.753       2.424       6.543       6.591       9.451     -11.296
  q+dip:        4.433      -0.148       6.811       6.683      11.055     -11.244
   full:        4.292      -0.219       7.151       6.522      11.438     -11.443

SCC energy    :     -45.6328395
rep           :       0.2564445
ES            :       0.2377161
AES           :      -0.0680328
AXC           :      -0.0082909
disp          :      -0.0180337
XB            :       0.0000000
fix           :       0.0000000
total E       :     -45.3762249
atomizationE  :       4.4592874     2798.25
(atE without considering molecular charge,
 total energy contains solvation terms)
H-L gap (eV)  :          9.3606
optimized geometry written to: xtbopt.xyz


------------------------------------------------------------------------
 * finished run on 2019/09/16 at 11:23:21.816     
------------------------------------------------------------------------
 total:
 * wall-time:     0 d,  0 h,  0 min,  3.264 sec
 *  cpu-time:     0 d,  0 h,  0 min,  3.179 sec
 * ratio c/w:     0.974 speedup
 SCF:
 * wall-time:     0 d,  0 h,  0 min,  0.130 sec
 *  cpu-time:     0 d,  0 h,  0 min,  0.123 sec
 * ratio c/w:     0.949 speedup
 ANC optimizer:
 * wall-time:     0 d,  0 h,  0 min,  3.105 sec
 *  cpu-time:     0 d,  0 h,  0 min,  3.032 sec
 * ratio c/w:     0.976 speedup

