      -----------------------------------------------------------      
     |                   =====================                   |     
     |                           x T B                           |     
     |                   =====================                   |     
     |                         S. Grimme                         |     
     |          Mulliken Center for Theoretical Chemistry        |     
     |                    University of Bonn                     |     
     |                 Version 6.0.1 (SAW181210)                 |     
      -----------------------------------------------------------      

   This program is distributed in the hope that it will be useful,
   but WITHOUT ANY WARRANTY; without even the implied warranty of
   MERCHANTABILITY or FITNESS FOR A PARTICULAR PURPOSE.
   
   FOR NON-COMMERCIAL, ACADEMIA USE ONLY.
   
   Cite this work as:
   S. Grimme, C. Bannwarth, P. Shushkov, J. Comput. Theory Chem., 2017,
   13, 1989-2009.
   C. Bannwarth, S. Ehlert and S. Grimme., ChemRxiv, 2018, preprint.
   http://doi.org/10.26434/chemrxiv.7246238.v1
   
   for sTDA-xTB:
   S. Grimme and C. Bannwarth, J. Chem. Phys., 2016, 145, 054103.
   
   in the mass-spec context:
   V. Asgeirsson, C. Bauer and S. Grimme, Chem. Sci., 2017, 8, 4879.
   
   if GBSA is used:
   P. Shushkov, F. März and S. Grimme, unpublished.
   
   for ANC optimizer:
   S. Grimme, unpublished.
   Rational Function algorithm used in ANCopt:
   F. Eckert, P. Pulay, H.-J. Werner, J. Comput. Chem., 1997, 18, 1473.
   
   with help from (in alphabetical order)
   C. Bannwarth, F. Bohle, G. Brandenburg, E. Caldeweyher, M. Checinski,
   S. Dohm, S. Ehlert, S. Ehrlich, F. März, H. Neugebauer, J. Pisarek,
   P. Pracht, P. Shushkov, and S. Spicher.
   
 * started run on 2019/09/16 at 11:24:03.129     
========================================================================
 # omp threads = 1
========================================================================
number of atoms            : 23
number of electrons        : 72
charge                     : 0
spin                       : .0
first test random number   : .8841

########################################################################
# WARNING! Please study the warnings concerning your input carefully
#  - XTBPATH is not set, using XTBHOME instead
#  - the use of '-opt' is discouraged, please use '--opt' next time
#  - the use of '-chrg' is discouraged, please use '--chrg' next time
#  - the use of '-uhf' is discouraged, please use '--uhf' next time
########################################################################

           ------------------------------------------------- 
          |                 G F N 2 - x T B                 |
          | Geometry, Frequencies, Noncovalent interactions |
          |            JCTC 2018 parametrisation            |
           ------------------------------------------------- 
      method parameters     
 k(s)        :  1.8500
 k(p)        :  2.2300
 k(d)        :  2.2300
 k(f)        :  2.0000
 kEN (H0ij)  : -2.0000
 D4 a1       :  0.5200
 D4 a2       :  5.0000
 D4 s6       :  1.0000
 D4 s8       :  2.7000
 D4 s9       :  5.0000
 alphaj      :  2.0000


            Z     q(EN)     CN     RAES       Cart. coordinates
     1  S   6.0    0.61    4.52    4.58     1.09734     1.51401     3.76374
     2  O   6.0   -0.31    1.20    1.80     0.27584    -1.09359     4.43731
     3  O   6.0   -0.31    1.20    1.80    -0.73989     2.63776     1.94993
     4  O   6.0   -0.26    2.10    1.84     3.61368     1.41835     2.59267
     5  O   6.0   -0.25    2.08    1.84     1.20334     3.07321     6.05943
     6  H   1.0    0.14    1.22    1.47     2.89301     3.69017     6.29495
     7  H   1.0    0.16    1.27    1.49     3.54533     0.39997     1.09290
     8  O   6.0   -0.30    2.07    1.83    -0.92534     1.90284    -3.02110
     9  H   1.0    0.17    1.04    1.43    -1.18901     2.40460    -1.29098
    10  H   1.0    0.15    1.03    1.43    -2.26563     0.72754    -3.39113
    11  O   6.0   -0.26    1.93    1.82     3.47903     4.40621    -2.31672
    12  H   1.0    0.16    1.03    1.43     1.86153     3.65705    -2.68695
    13  H   1.0    0.14    0.97    1.43     4.05411     5.11343    -3.89271
    14  O   6.0   -0.31    2.03    1.83    -1.21442    -4.57717     1.07802
    15  H   1.0    0.17    1.05    1.44    -0.86793    -3.38241     2.40735
    16  H   1.0    0.15    0.97    1.43    -1.53979    -6.15664     1.92302
    17  O   6.0   -0.28    2.04    1.83     2.35835    -1.68331    -1.21286
    18  H   1.0    0.15    1.01    1.43     1.42039    -0.63626    -2.36981
    19  H   1.0    0.16    1.02    1.43     1.21368    -3.01508    -0.73250
    20  N   5.0   -0.22    2.99    1.92    -4.29919    -2.16010    -2.89870
    21  H   1.0    0.10    0.99    1.43    -4.72270    -3.52969    -4.18553
    22  H   1.0    0.11    0.99    1.43    -5.97435    -1.67530    -2.08025
    23  H   1.0    0.12    1.02    1.43    -3.27740    -3.03557    -1.52009

  Z AO/shell   Hii/eV     exponent
  1     Wed Apr 25 08:07:45 CEST 2018   EN: 2.200 GM2: 0.406  GM3: 0.0800  RAES: 1.40
     1s    -10.707211    1.230000
  7     Wed Apr 25 08:07:45 CEST 2018   EN: 3.040 GM2: 0.461  GM3:-0.0640  RAES: 1.90
     2s    -16.686243    2.339881
     2p    -12.523956    2.014332
  8     Wed Apr 25 08:07:45 CEST 2018   EN: 3.440 GM2: 0.452  GM3:-0.0517  RAES: 1.80
     2s    -20.229985    2.439742
     2p    -15.503117    2.137023
 16     Tue Apr 24 11:44:34 CEST 2018   EN: 2.580 GM2: 0.340  GM3:-0.0502  RAES: 3.10
     3s    -20.029654    1.981333
     3p    -11.377694    2.025643
     3d     -0.420282    1.702555
 no old-style atom pair restraining (fixing) potential

molecular fragmentation (1/2 indicates fragments):
11111112222222222222222
# atoms in fragment 1/2:     7    16
 fragment masses (1/2) :       98.07       89.09
CMA distance (Bohr)    :   5.884
constraining FC (au)   :  0.0500
           ------------------------------------------------- 
          |        Self-Consistent Charge Iterations        |
           ------------------------------------------------- 

 Ncao       : 59
 Nao        : 58
 Nshell     : 34
 Nel        : 72
 T(el)      :   300.0
 intcut     :    25.0
 scfconv/Eh :  0.100E-05
   qconv/e  :  0.100E-03
 intneglect :  0.100E-07
 broydamp   :      0.250
 iter      E             dE          RMSdq      gap      omega  full diag
   1    -45.5031263 -0.455031E+02  0.716E+00   10.29       0.0  T
   2    -45.5575491 -0.544228E-01  0.516E+00    9.31       1.0  T
   3    -45.5935890 -0.360400E-01  0.152E+00    7.50       1.0  T
   4    -45.5998517 -0.626268E-02  0.598E-01    7.77       1.0  T
   5    -45.6005000 -0.648229E-03  0.373E-01    7.65       1.0  T
   6    -45.6011273 -0.627333E-03  0.166E-01    7.65       1.0  T
   7    -45.6012886 -0.161291E-03  0.628E-02    7.66       1.0  T
   8    -45.6013080 -0.194570E-04  0.369E-02    7.66       1.0  T
   9    -45.6013157 -0.764218E-05  0.145E-02    7.67       1.4  T
  10    -45.6013170 -0.129013E-05  0.266E-03    7.67       7.8  T
  11    -45.6013170 -0.176682E-07  0.133E-03    7.67      15.6  T
  12    -45.6013170 -0.587281E-08  0.537E-04    7.67      38.9  T
  13    -45.6013170 -0.107327E-08  0.171E-04    7.67     122.1  T
speedup  1.02
cpu  time for SCC    0.01 s
wall time for SCC    0.01 s

   *** convergence criteria satisfied after 13 iterations ***

          eigenvalues
 #    :          24         25         26         27         28         29         30         31
 occ. :        2.000      2.000      2.000      2.000      2.000      2.000      2.000      2.000
 eps  :       -13.413    -13.248    -12.964    -12.679    -12.589    -12.520    -12.117    -12.034
 #    :          32         33         34         35         36         37         38         39
 occ. :        2.000      2.000      2.000      2.000      2.000      0.000      0.000      0.000
 eps  :       -11.879    -11.630    -11.273    -11.069    -10.604     -2.930     -1.730     -0.545
 #    :          40         41         42         43         44         45         46         47
 occ. :        0.000      0.000      0.000      0.000      0.000      0.000      0.000      0.000
 eps  :         0.318      0.721      2.378      2.688      3.575      4.174      5.085      5.482


   #   Z            q   n(s)   n(p)   n(d)      C6AA      α(0)
   1  16 S      1.711  1.572  1.776  0.942    88.528    15.836
   2   8 O     -0.717  1.771  4.947  0.000    29.187     7.243
   3   8 O     -0.703  1.771  4.932  0.000    28.793     7.194
   4   8 O     -0.569  1.714  4.855  0.000    24.431     6.673
   5   8 O     -0.529  1.716  4.814  0.000    23.524     6.548
   6   1 H      0.384  0.616  0.000  0.000     0.507     1.114
   7   1 H      0.430  0.570  0.000  0.000     0.426     1.022
   8   8 O     -0.642  1.742  4.900  0.000    26.203     6.909
   9   1 H      0.323  0.677  0.000  0.000     0.656     1.273
  10   1 H      0.314  0.686  0.000  0.000     0.681     1.296
  11   8 O     -0.616  1.751  4.866  0.000    25.579     6.826
  12   1 H      0.323  0.677  0.000  0.000     0.657     1.273
  13   1 H      0.271  0.729  0.000  0.000     0.814     1.417
  14   8 O     -0.610  1.737  4.873  0.000    25.429     6.806
  15   1 H      0.331  0.669  0.000  0.000     0.635     1.251
  16   1 H      0.287  0.713  0.000  0.000     0.761     1.370
  17   8 O     -0.647  1.752  4.895  0.000    26.342     6.927
  18   1 H      0.324  0.676  0.000  0.000     0.652     1.269
  19   1 H      0.321  0.679  0.000  0.000     0.662     1.278
  20   7 N     -0.457  1.399  4.058  0.000    32.030     8.405
  21   1 H      0.142  0.858  0.000  0.000     1.458     1.891
  22   1 H      0.143  0.857  0.000  0.000     1.450     1.886
  23   1 H      0.188  0.812  0.000  0.000     1.171     1.695

 Mol. C6AA /au·bohr⁶  :       4510.721609
 Mol. C8AA /au·bohr⁸  :      98952.428684
 Mol. α(0) /au        :         97.401880

 
 Wiberg/Mayer (AO) data. WBOs > 0.1 written file <wbo>
 largest (>0.05) Wiberg bond orders for each atom
           total WBO             WBO to atom ...
     1  S   4.816    O    3 1.351    O    2 1.335    O    4 1.056    O    5 1.031
     2  O   1.706    S    1 1.335    O    3 0.136    O    4 0.091    O    5 0.073
     3  O   1.715    S    1 1.351    O    2 0.136    O    4 0.093    O    5 0.074
     4  O   2.036    S    1 1.056    H    7 0.719    O    3 0.093    O    2 0.091
     5  O   2.065    S    1 1.031    H    6 0.828    O    3 0.074    O    2 0.073
     6  H   0.852    O    5 0.828
     7  H   0.815    O    4 0.719    O   17 0.072
     8  O   1.852    H    9 0.853    H   10 0.845
     9  H   0.896    O    8 0.853
    10  H   0.901    O    8 0.845
    11  O   1.808    H   13 0.926    H   12 0.857
    12  H   0.896    O   11 0.857
    13  H   0.926    O   11 0.926
    14  O   1.860    H   16 0.908    H   15 0.841
    15  H   0.890    O   14 0.841
    16  H   0.917    O   14 0.908
    17  O   1.855    H   19 0.857    H   18 0.851    H    7 0.072
    18  H   0.895    O   17 0.851
    19  H   0.897    O   17 0.857
    20  N   2.975    H   22 0.977    H   21 0.976    H   23 0.938
    21  H   0.980    N   20 0.976
    22  H   0.980    N   20 0.977
    23  H   0.965    N   20 0.938
 MOs/occ written to file <molden.input>
 
molecular dipole:
                 x           y           z       tot (Debye)
 q only:        0.359      -0.191       0.673
   full:        0.128      -0.421       1.106       3.027
molecular quadrupole (traceless):
                xx          xy          yy          xz          yz          zz
 q only:       -1.778       7.731      -1.357       9.609       5.692       3.135
  q+dip:       -2.335      11.844      -0.398      12.218       6.338       2.733
   full:       -2.325      12.306      -0.782      12.150       6.793       3.108

SCC energy    :     -45.6013170
rep           :       0.2827523
ES            :       0.2171247
AES           :      -0.0429636
AXC           :      -0.0060950
disp          :      -0.0158072
XB            :       0.0000000
fix           :       0.0000000
total E       :     -45.3183820
atomizationE  :       4.4014445     2761.95
(atE without considering molecular charge,
 total energy contains solvation terms)
H-L gap (eV)  :          7.6735
           ------------------------------------------------- 
          |                 ===============                 |
          |                   A N C O P T                   |
          |                 ===============                 |
          |          Approximate Normal Coordinate          |
          |           Rational Function Optimizer           |
           ------------------------------------------------- 
dumping coords to <xtbopt.coord> and <xtbopt.log>
 optlevel               2
 Maxcycle             460
 Maxmicro              25
 Econv         1.000000000000000E-007
 Gconv         2.000000000000000E-004
 Maxdispl       1.00000000000000     
 Hlow          5.000000000000000E-003
 S6             20.0000000000000     
 Nvar               63

generating ANC from model Hessian ...
 Shifting diagonal of input Hessian by   4.944024924130257E-003
 Lowest  eigenvalues of input Hessian
   -0.000000   -0.000000   -0.000000   -0.000000    0.000000    0.000000
    0.005000    0.005129    0.005328    0.005816    0.005939    0.006084
    0.006398    0.006600    0.007435    0.008298    0.008660    0.009256
 Highest eigenvalues
    1.429874    1.444230    1.551539    3.213504    3.413033    3.463040
 
cpu  time for ANC gen    0.01 s
wall time for ANC gen    0.01 s
................................................................................
.............................. CYCLE    1 ......................................
................................................................................
   1    -45.6013170 -0.456013E+02  0.599E-05    7.67       0.0  T
   2    -45.6013170 -0.758860E-11  0.477E-05    7.67     437.5  T
   3    -45.6013170 -0.621014E-11  0.278E-05    7.67     749.5  T
speedup  0.80
cpu  time for SCC    0.00 s
wall time for SCC    0.00 s
speedup  0.95
cpu  time for grad    0.01 s
wall time for grad    0.01 s
 E :    -45.31838201  G :  0.200624    pred/act E change:  0.000D+00  0.301D-07
Maxdispl :   0.1286   ||displ|| :   0.2940   Lambda : -0.170D-01
Largest |displ|/coords:  0.1286 (  22)  0.0991 (  20)  0.0943 (  18)
................................................................................
.............................. CYCLE    2 ......................................
................................................................................
   1    -45.6069972 -0.456070E+02  0.258E-01    7.67       0.0  T
   2    -45.6071843 -0.187073E-03  0.200E-01    7.68       1.0  T
   3    -45.6072418 -0.575279E-04  0.116E-01    7.69       1.0  T
   4    -45.6072480 -0.618543E-05  0.236E-02    7.71       1.0  T
   5    -45.6072487 -0.675282E-06  0.455E-03    7.71       4.6  T
   6    -45.6072487 -0.262875E-07  0.259E-03    7.71       8.0  T
speedup  0.85
cpu  time for SCC    0.00 s
wall time for SCC    0.00 s
speedup  0.96
cpu  time for grad    0.01 s
wall time for grad    0.01 s
 E :    -45.33214075  G :  0.132738    pred/act E change:  0.000D+00 -0.138D-01
Maxdispl :   0.1086   ||displ|| :   0.2673   Lambda : -0.117D-01
Largest |displ|/coords:  0.1086 (  22)  0.0824 (  10)  0.0805 (  20)
................................................................................
.............................. CYCLE    3 ......................................
................................................................................
   1    -45.6154522 -0.456155E+02  0.200E-01    7.66       0.0  T
   2    -45.6157037 -0.251522E-03  0.162E-01    7.69       1.0  T
   3    -45.6157653 -0.616090E-04  0.124E-01    7.72       1.0  T
   4    -45.6157736 -0.824128E-05  0.226E-02    7.75       1.0  T
   5    -45.6157739 -0.305759E-06  0.455E-03    7.76       4.6  T
   6    -45.6157739 -0.234174E-07  0.203E-03    7.76      10.3  T
speedup  1.06
cpu  time for SCC    0.01 s
wall time for SCC    0.00 s
speedup  0.97
cpu  time for grad    0.01 s
wall time for grad    0.01 s
 E :    -45.34094185  G :  0.063133    pred/act E change: -0.922D-02 -0.880D-02
Maxdispl :   0.0973   ||displ|| :   0.2727   Lambda : -0.467D-02
Largest |displ|/coords:  0.0973 (  10)  0.0936 (  22)  0.0888 (  13)
................................................................................
.............................. CYCLE    4 ......................................
................................................................................
   1    -45.6178794 -0.456179E+02  0.196E-01    7.61       0.0  T
   2    -45.6180124 -0.133043E-03  0.153E-01    7.64       1.0  T
   3    -45.6180495 -0.371428E-04  0.934E-02    7.68       1.0  T
   4    -45.6180529 -0.333375E-05  0.182E-02    7.71       1.1  T
   5    -45.6180532 -0.276968E-06  0.387E-03    7.71       5.4  T
   6    -45.6180532 -0.179734E-07  0.189E-03    7.71      11.0  T
speedup  1.06
cpu  time for SCC    0.00 s
wall time for SCC    0.00 s
speedup  0.99
cpu  time for grad    0.01 s
wall time for grad    0.01 s
 E :    -45.34427597  G :  0.024393    pred/act E change: -0.625D-02 -0.333D-02
Maxdispl :   0.1253   ||displ|| :   0.3363   Lambda : -0.229D-02
Largest |displ|/coords:  0.1253 (  13)  0.1229 (  10)  0.0914 (  19)
................................................................................
.............................. CYCLE    5 ......................................
................................................................................
   1    -45.6146525 -0.456147E+02  0.244E-01    7.47       0.0  T
   2    -45.6147256 -0.730947E-04  0.184E-01    7.50       1.0  T
   3    -45.6147475 -0.219027E-04  0.672E-02    7.56       1.0  T
   4    -45.6147548 -0.724702E-05  0.179E-02    7.56       1.2  T
   5    -45.6147551 -0.273502E-06  0.347E-03    7.56       6.0  T
   6    -45.6147551 -0.169400E-07  0.205E-03    7.56      10.2  T
speedup  1.06
cpu  time for SCC    0.00 s
wall time for SCC    0.00 s
speedup  0.99
cpu  time for grad    0.01 s
wall time for grad    0.01 s
 E :    -45.34576371  G :  0.018539    pred/act E change: -0.251D-02 -0.149D-02
Maxdispl :   0.0926   ||displ|| :   0.2355   Lambda : -0.744D-03
Largest |displ|/coords:  0.0926 (  10)  0.0893 (  13)  0.0678 (  16)
................................................................................
.............................. CYCLE    6 ......................................
................................................................................
   1    -45.6121963 -0.456122E+02  0.152E-01    7.44       0.0  T
   2    -45.6122080 -0.117555E-04  0.113E-01    7.46       1.0  T
   3    -45.6122138 -0.573126E-05  0.266E-02    7.50       1.0  T
   4    -45.6122154 -0.161343E-05  0.961E-03    7.50       2.2  T
   5    -45.6122155 -0.810945E-07  0.187E-03    7.50      11.2  T
   6    -45.6122155 -0.387560E-08  0.126E-03    7.50      16.5  T
speedup  0.85
cpu  time for SCC    0.00 s
wall time for SCC    0.00 s
speedup  0.98
cpu  time for grad    0.01 s
wall time for grad    0.01 s
 E :    -45.34630380  G :  0.018304    pred/act E change: -0.128D-02 -0.540D-03
Maxdispl :   0.1154   ||displ|| :   0.2720   Lambda : -0.713D-03
Largest |displ|/coords:  0.1154 (  13)  0.0897 (  10)  0.0833 (  16)
................................................................................
.............................. CYCLE    7 ......................................
................................................................................
   1    -45.6117375 -0.456117E+02  0.154E-01    7.42       0.0  T
   2    -45.6117485 -0.109747E-04  0.113E-01    7.44       1.0  T
   3    -45.6117556 -0.711654E-05  0.253E-02    7.48       1.0  T
   4    -45.6117568 -0.116409E-05  0.944E-03    7.48       2.2  T
   5    -45.6117569 -0.966380E-07  0.228E-03    7.48       9.1  T
   6    -45.6117569 -0.592280E-08  0.139E-03    7.48      15.0  T
speedup  1.06
cpu  time for SCC    0.00 s
wall time for SCC    0.00 s
speedup  0.98
cpu  time for grad    0.01 s
wall time for grad    0.01 s
 E :    -45.34671155  G :  0.015409    pred/act E change: -0.393D-03 -0.408D-03
Maxdispl :   0.1666   ||displ|| :   0.4068   Lambda : -0.941D-03
Largest |displ|/coords:  0.1666 (   3)  0.1546 (   7)  0.1468 (   5)
................................................................................
.............................. CYCLE    8 ......................................
................................................................................
   1    -45.6041653 -0.456042E+02  0.416E-01    7.49       0.0  T
   2    -45.6042224 -0.571274E-04  0.315E-01    7.50       1.0  T
   3    -45.6042609 -0.384708E-04  0.512E-02    7.54       1.0  T
   4    -45.6042689 -0.798060E-05  0.154E-02    7.54       1.4  T
   5    -45.6042692 -0.312240E-06  0.428E-03    7.54       4.9  T
   6    -45.6042692 -0.119589E-07  0.252E-03    7.54       8.3  T
   7    -45.6042692 -0.938910E-08  0.648E-04    7.54      32.2  T
speedup  0.94
cpu  time for SCC    0.00 s
wall time for SCC    0.01 s
speedup  1.02
cpu  time for grad    0.01 s
wall time for grad    0.01 s
 E :    -45.34653449  G :  0.034512    pred/act E change: -0.383D-03  0.177D-03
Maxdispl :   0.1740   ||displ|| :   0.1934   Lambda : -0.195D-02
Largest |displ|/coords:  0.1740 (   3)  0.0484 (   5)  0.0270 (  18)
................................................................................
.............................. CYCLE    9 ......................................
................................................................................
   1    -45.6118262 -0.456118E+02  0.286E-01    7.62       0.0  T
   2    -45.6118687 -0.425014E-04  0.215E-01    7.62       1.0  T
   3    -45.6118936 -0.248975E-04  0.402E-02    7.62       1.0  T
   4    -45.6118996 -0.601902E-05  0.967E-03    7.62       2.2  T
   5    -45.6118998 -0.191263E-06  0.347E-03    7.62       6.0  T
   6    -45.6118998 -0.425381E-08  0.186E-03    7.62      11.2  T
speedup  1.14
cpu  time for SCC    0.00 s
wall time for SCC    0.00 s
speedup  1.02
cpu  time for grad    0.01 s
wall time for grad    0.01 s
 E :    -45.34717992  G :  0.013858    pred/act E change: -0.548D-03 -0.645D-03
Maxdispl :   0.0578   ||displ|| :   0.1517   Lambda : -0.524D-03
Largest |displ|/coords:  0.0578 (   7)  0.0552 (  18)  0.0509 (  17)
................................................................................
.............................. CYCLE   10 ......................................
................................................................................
   1    -45.6101820 -0.456102E+02  0.150E-01    7.66       0.0  T
   2    -45.6101931 -0.111479E-04  0.112E-01    7.66       1.0  T
   3    -45.6101999 -0.683105E-05  0.216E-02    7.66       1.0  T
   4    -45.6102014 -0.142801E-05  0.638E-03    7.66       3.3  T
   5    -45.6102015 -0.913703E-07  0.209E-03    7.66      10.0  T
   6    -45.6102015 -0.340987E-08  0.117E-03    7.66      17.8  T
speedup  1.02
cpu  time for SCC    0.00 s
wall time for SCC    0.00 s
speedup  0.96
cpu  time for grad    0.01 s
wall time for grad    0.01 s
 E :    -45.34718588  G :  0.020368    pred/act E change: -0.101D-02 -0.595D-05
Maxdispl :   0.0468   ||displ|| :   0.1136   Lambda : -0.605D-03
Largest |displ|/coords:  0.0468 (  11)  0.0454 (   7)  0.0454 (   9)
................................................................................
.............................. CYCLE   11 ......................................
................................................................................
   1    -45.6118360 -0.456118E+02  0.116E-01    7.72       0.0  T
   2    -45.6118430 -0.703483E-05  0.875E-02    7.72       1.0  T
   3    -45.6118482 -0.517828E-05  0.159E-02    7.72       1.3  T
   4    -45.6118491 -0.894346E-06  0.490E-03    7.72       4.3  T
   5    -45.6118491 -0.309199E-07  0.173E-03    7.72      12.1  T
speedup  1.00
cpu  time for SCC    0.00 s
wall time for SCC    0.00 s
speedup  0.96
cpu  time for grad    0.01 s
wall time for grad    0.01 s
 E :    -45.34748751  G :  0.006777    pred/act E change: -0.268D-03 -0.302D-03
Maxdispl :   0.1162   ||displ|| :   0.2255   Lambda : -0.436D-03
Largest |displ|/coords:  0.1162 (   7)  0.0900 (  18)  0.0768 (  10)
................................................................................
.............................. CYCLE   12 ......................................
................................................................................
   1    -45.6094665 -0.456095E+02  0.169E-01    7.74       0.0  T
   2    -45.6094844 -0.179543E-04  0.126E-01    7.75       1.0  T
   3    -45.6094926 -0.814540E-05  0.295E-02    7.77       1.0  T
   4    -45.6094949 -0.237074E-05  0.868E-03    7.77       2.4  T
   5    -45.6094951 -0.183456E-06  0.248E-03    7.77       8.4  T
   6    -45.6094951 -0.642680E-08  0.145E-03    7.77      14.4  T
speedup  0.89
cpu  time for SCC    0.00 s
wall time for SCC    0.00 s
speedup  1.00
cpu  time for grad    0.01 s
wall time for grad    0.01 s
 E :    -45.34757028  G :  0.010337    pred/act E change: -0.306D-03 -0.828D-04
Maxdispl :   0.0581   ||displ|| :   0.1053   Lambda : -0.315D-03
Largest |displ|/coords:  0.0581 (   7)  0.0384 (  13)  0.0348 (  18)
................................................................................
.............................. CYCLE   13 ......................................
................................................................................
   1    -45.6106814 -0.456107E+02  0.735E-02    7.80       0.0  T
   2    -45.6106832 -0.180797E-05  0.549E-02    7.81       1.0  T
   3    -45.6106841 -0.900983E-06  0.908E-03    7.82       2.3  T
   4    -45.6106844 -0.268022E-06  0.377E-03    7.82       5.5  T
   5    -45.6106844 -0.132111E-07  0.597E-04    7.82      34.9  T
   6    -45.6106844 -0.272273E-09  0.404E-04    7.82      51.7  T
speedup  0.87
cpu  time for SCC    0.00 s
wall time for SCC    0.00 s
speedup  0.99
cpu  time for grad    0.01 s
wall time for grad    0.01 s
 E :    -45.34776902  G :  0.006646    pred/act E change: -0.229D-03 -0.199D-03
Maxdispl :   0.1027   ||displ|| :   0.1885   Lambda : -0.250D-03
Largest |displ|/coords:  0.1027 (   7)  0.0694 (  13)  0.0530 (  16)
................................................................................
.............................. CYCLE   14 ......................................
................................................................................
   1    -45.6097164 -0.456097E+02  0.126E-01    7.83       0.0  T
   2    -45.6097210 -0.462503E-05  0.939E-02    7.83       1.0  T
   3    -45.6097246 -0.358097E-05  0.152E-02    7.84       1.4  T
   4    -45.6097251 -0.537317E-06  0.488E-03    7.84       4.3  T
   5    -45.6097252 -0.344182E-07  0.161E-03    7.84      13.0  T
   6    -45.6097252 -0.329842E-08  0.987E-04    7.84      21.1  T
speedup  1.06
cpu  time for SCC    0.00 s
wall time for SCC    0.00 s
speedup  1.04
cpu  time for grad    0.01 s
wall time for grad    0.01 s
 E :    -45.34785783  G :  0.009194    pred/act E change: -0.159D-03 -0.888D-04
Maxdispl :   0.0909   ||displ|| :   0.1497   Lambda : -0.200D-03
Largest |displ|/coords:  0.0909 (   7)  0.0443 (  17)  0.0407 (   2)
................................................................................
.............................. CYCLE   15 ......................................
................................................................................
   1    -45.6099513 -0.456100E+02  0.104E-01    7.86       0.0  T
   2    -45.6099583 -0.698743E-05  0.774E-02    7.87       1.0  T
   3    -45.6099609 -0.265126E-05  0.190E-02    7.89       1.1  T
   4    -45.6099618 -0.885144E-06  0.621E-03    7.89       3.4  T
   5    -45.6099619 -0.558187E-07  0.126E-03    7.89      16.6  T
   6    -45.6099619 -0.206254E-08  0.792E-04    7.89      26.3  T
speedup  0.89
cpu  time for SCC    0.00 s
wall time for SCC    0.00 s
speedup  1.00
cpu  time for grad    0.01 s
wall time for grad    0.01 s
 E :    -45.34798914  G :  0.006943    pred/act E change: -0.130D-03 -0.131D-03
Maxdispl :   0.0903   ||displ|| :   0.1769   Lambda : -0.156D-03
Largest |displ|/coords:  0.0903 (   7)  0.0551 (   1)  0.0543 (  13)
................................................................................
.............................. CYCLE   16 ......................................
................................................................................
   1    -45.6097050 -0.456097E+02  0.124E-01    7.90       0.0  T
   2    -45.6097138 -0.886316E-05  0.914E-02    7.91       1.0  T
   3    -45.6097176 -0.377049E-05  0.209E-02    7.92       1.0  T
   4    -45.6097187 -0.109450E-05  0.687E-03    7.92       3.0  T
   5    -45.6097188 -0.778298E-07  0.170E-03    7.92      12.2  T
   6    -45.6097188 -0.388022E-08  0.106E-03    7.92      19.7  T
speedup  1.06
cpu  time for SCC    0.01 s
wall time for SCC    0.00 s
speedup  1.08
cpu  time for grad    0.01 s
wall time for grad    0.01 s
 E :    -45.34809020  G :  0.004054    pred/act E change: -0.102D-03 -0.101D-03
Maxdispl :   0.0765   ||displ|| :   0.1840   Lambda : -0.128D-03
Largest |displ|/coords:  0.0765 (   7)  0.0721 (   1)  0.0581 (  17)
................................................................................
.............................. CYCLE   17 ......................................
................................................................................
   1    -45.6090596 -0.456091E+02  0.150E-01    7.93       0.0  T
   2    -45.6090668 -0.725174E-05  0.109E-01    7.94       1.0  T
   3    -45.6090702 -0.336997E-05  0.208E-02    7.95       1.0  T
   4    -45.6090711 -0.944600E-06  0.657E-03    7.95       3.2  T
   5    -45.6090712 -0.515499E-07  0.172E-03    7.95      12.1  T
   6    -45.6090712 -0.329903E-08  0.108E-03    7.95      19.3  T
speedup  1.04
cpu  time for SCC    0.00 s
wall time for SCC    0.00 s
speedup  0.97
cpu  time for grad    0.01 s
wall time for grad    0.01 s
 E :    -45.34816793  G :  0.003450    pred/act E change: -0.806D-04 -0.777D-04
Maxdispl :   0.0767   ||displ|| :   0.1697   Lambda : -0.851D-04
Largest |displ|/coords:  0.0767 (   1)  0.0537 (  17)  0.0520 (  16)
................................................................................
.............................. CYCLE   18 ......................................
................................................................................
   1    -45.6073286 -0.456073E+02  0.133E-01    7.94       0.0  T
   2    -45.6073340 -0.537783E-05  0.978E-02    7.94       1.0  T
   3    -45.6073365 -0.244287E-05  0.178E-02    7.96       1.2  T
   4    -45.6073372 -0.731924E-06  0.571E-03    7.96       3.7  T
   5    -45.6073372 -0.407602E-07  0.146E-03    7.96      14.3  T
   6    -45.6073372 -0.237414E-08  0.938E-04    7.96      22.2  T
   7    -45.6073372 -0.147919E-08  0.303E-04    7.96      68.7  T
speedup  0.89
cpu  time for SCC    0.00 s
wall time for SCC    0.01 s
speedup  0.96
cpu  time for grad    0.01 s
wall time for grad    0.01 s
 E :    -45.34821148  G :  0.005106    pred/act E change: -0.661D-04 -0.436D-04
Maxdispl :   0.0972   ||displ|| :   0.1558   Lambda : -0.128D-03
Largest |displ|/coords:  0.0972 (   1)  0.0463 (  16)  0.0405 (  33)
................................................................................
.............................. CYCLE   19 ......................................
................................................................................
   1    -45.6088017 -0.456088E+02  0.134E-01    7.98       0.0  T
   2    -45.6088054 -0.363611E-05  0.977E-02    7.98       1.0  T
   3    -45.6088074 -0.207087E-05  0.164E-02    7.98       1.3  T
   4    -45.6088079 -0.459676E-06  0.535E-03    7.98       3.9  T
   5    -45.6088079 -0.270551E-07  0.136E-03    7.98      15.4  T
   6    -45.6088079 -0.134411E-08  0.859E-04    7.98      24.3  T
speedup  0.87
cpu  time for SCC    0.00 s
wall time for SCC    0.00 s
speedup  0.99
cpu  time for grad    0.01 s
wall time for grad    0.01 s
 E :    -45.34827983  G :  0.006208    pred/act E change: -0.438D-04 -0.684D-04
Maxdispl :   0.1022   ||displ|| :   0.1610   Lambda : -0.132D-03
Largest |displ|/coords:  0.1022 (   1)  0.0498 (   3)  0.0452 (   9)
................................................................................
.............................. CYCLE   20 ......................................
................................................................................
   1    -45.6084287 -0.456084E+02  0.126E-01    8.00       0.0  T
   2    -45.6084320 -0.334902E-05  0.927E-02    8.00       1.0  T
   3    -45.6084335 -0.151259E-05  0.147E-02    7.99       1.4  T
   4    -45.6084341 -0.524832E-06  0.506E-03    7.99       4.1  T
   5    -45.6084341 -0.183427E-07  0.115E-03    7.99      18.2  T
   6    -45.6084341 -0.103747E-08  0.718E-04    7.99      29.0  T
speedup  1.04
cpu  time for SCC    0.01 s
wall time for SCC    0.00 s
speedup  0.96
cpu  time for grad    0.01 s
wall time for grad    0.01 s
 E :    -45.34838394  G :  0.007116    pred/act E change: -0.655D-04 -0.104D-03
Maxdispl :   0.2226   ||displ|| :   0.3890   Lambda : -0.333D-03
Largest |displ|/coords:  0.2226 (   1)  0.1432 (   3)  0.1411 (   5)
................................................................................
.............................. CYCLE   21 ......................................
................................................................................
   1    -45.6071541 -0.456072E+02  0.297E-01    8.06       0.0  T
   2    -45.6071692 -0.151292E-04  0.219E-01    8.05       1.0  T
   3    -45.6071748 -0.561608E-05  0.352E-02    8.04       1.0  T
   4    -45.6071773 -0.250066E-05  0.112E-02    8.04       1.9  T
   5    -45.6071774 -0.761192E-07  0.227E-03    8.04       9.2  T
   6    -45.6071774 -0.378533E-08  0.138E-03    8.04      15.2  T
speedup  0.85
cpu  time for SCC    0.00 s
wall time for SCC    0.00 s
speedup  0.98
cpu  time for grad    0.01 s
wall time for grad    0.01 s
 E :    -45.34852313  G :  0.015915    pred/act E change: -0.676D-04 -0.139D-03
Maxdispl :   0.1155   ||displ|| :   0.2415   Lambda : -0.397D-03
Largest |displ|/coords:  0.1155 (   7)  0.0991 (   5)  0.0680 (  10)
................................................................................
.............................. CYCLE   22 ......................................
................................................................................
   1    -45.6125194 -0.456125E+02  0.157E-01    8.07       0.0  T
   2    -45.6125385 -0.191165E-04  0.116E-01    8.05       1.0  T
   3    -45.6125496 -0.110662E-04  0.284E-02    8.01       1.0  T
   4    -45.6125519 -0.225468E-05  0.115E-02    8.02       1.8  T
   5    -45.6125521 -0.198296E-06  0.299E-03    8.02       7.0  T
   6    -45.6125521 -0.122435E-07  0.177E-03    8.02      11.8  T
speedup  0.87
cpu  time for SCC    0.00 s
wall time for SCC    0.00 s
speedup  0.99
cpu  time for grad    0.01 s
wall time for grad    0.01 s
 E :    -45.34855400  G :  0.011326    pred/act E change: -0.192D-03 -0.309D-04
Maxdispl :   0.0734   ||displ|| :   0.1804   Lambda : -0.304D-03
Largest |displ|/coords:  0.0734 (   1)  0.0734 (   7)  0.0549 (   2)
................................................................................
.............................. CYCLE   23 ......................................
................................................................................
   1    -45.6090254 -0.456090E+02  0.146E-01    7.98       0.0  T
   2    -45.6090319 -0.655374E-05  0.107E-01    7.99       1.0  T
   3    -45.6090358 -0.387975E-05  0.193E-02    8.00       1.1  T
   4    -45.6090366 -0.802571E-06  0.703E-03    8.00       3.0  T
   5    -45.6090367 -0.503193E-07  0.183E-03    8.00      11.4  T
   6    -45.6090367 -0.474429E-08  0.113E-03    8.00      18.5  T
speedup  0.87
cpu  time for SCC    0.00 s
wall time for SCC    0.00 s
speedup  0.99
cpu  time for grad    0.01 s
wall time for grad    0.01 s
 E :    -45.34874264  G :  0.007931    pred/act E change: -0.210D-03 -0.189D-03
Maxdispl :   0.0692   ||displ|| :   0.1717   Lambda : -0.230D-03
Largest |displ|/coords:  0.0692 (   1)  0.0617 (   5)  0.0609 (   3)
................................................................................
.............................. CYCLE   24 ......................................
................................................................................
   1    -45.6085534 -0.456086E+02  0.139E-01    8.00       0.0  T
   2    -45.6085581 -0.461943E-05  0.102E-01    8.00       1.0  T
   3    -45.6085606 -0.251657E-05  0.179E-02    8.01       1.2  T
   4    -45.6085613 -0.685409E-06  0.608E-03    8.01       3.4  T
   5    -45.6085613 -0.400595E-07  0.154E-03    8.01      13.6  T
   6    -45.6085613 -0.279061E-08  0.102E-03    8.01      20.4  T
speedup  1.06
cpu  time for SCC    0.00 s
wall time for SCC    0.00 s
speedup  0.97
cpu  time for grad    0.01 s
wall time for grad    0.01 s
 E :    -45.34883444  G :  0.013096    pred/act E change: -0.157D-03 -0.918D-04
Maxdispl :   0.1067   ||displ|| :   0.1826   Lambda : -0.182D-03
Largest |displ|/coords:  0.1067 (   5)  0.0891 (   1)  0.0545 (   2)
................................................................................
.............................. CYCLE   25 ......................................
................................................................................
   1    -45.6074029 -0.456074E+02  0.118E-01    7.99       0.0  T
   2    -45.6074057 -0.288425E-05  0.875E-02    7.99       1.0  T
   3    -45.6074074 -0.166791E-05  0.146E-02    7.99       1.4  T
   4    -45.6074079 -0.446060E-06  0.496E-03    7.99       4.2  T
   5    -45.6074079 -0.191477E-07  0.115E-03    7.99      18.2  T
   6    -45.6074079 -0.126619E-08  0.738E-04    7.99      28.2  T
speedup  1.06
cpu  time for SCC    0.00 s
wall time for SCC    0.00 s
speedup  0.98
cpu  time for grad    0.01 s
wall time for grad    0.01 s
 E :    -45.34896156  G :  0.013126    pred/act E change: -0.118D-03 -0.127D-03
Maxdispl :   0.2274   ||displ|| :   0.3334   Lambda : -0.522D-03
Largest |displ|/coords:  0.2274 (   5)  0.0979 (   3)  0.0931 (   2)

generating ANC from model Hessian ...
 Shifting diagonal of input Hessian by   4.981429637303646E-003
 Lowest  eigenvalues of input Hessian
   -0.000000   -0.000000    0.000000    0.000000    0.000000    0.000000
    0.005000    0.005103    0.005212    0.005478    0.005562    0.006002
    0.006313    0.006610    0.007069    0.007391    0.008983    0.009694
 Highest eigenvalues
    1.398515    1.405366    1.435929    2.614461    3.350098    3.705528
 
cpu  time for ANC gen    0.01 s
wall time for ANC gen    0.01 s
................................................................................
.............................. CYCLE   26 ......................................
................................................................................
   1    -45.6090236 -0.456090E+02  0.155E-01    7.92       0.0  T
   2    -45.6090335 -0.983304E-05  0.115E-01    7.92       1.0  T
   3    -45.6090393 -0.580272E-05  0.245E-02    7.92       1.0  T
   4    -45.6090407 -0.144559E-05  0.536E-03    7.91       3.9  T
   5    -45.6090408 -0.614788E-07  0.231E-03    7.91       9.0  T
   6    -45.6090408 -0.465293E-08  0.117E-03    7.91      17.7  T
   7    -45.6090408 -0.299913E-08  0.236E-04    7.91      88.4  T
   8    -45.6090408 -0.193104E-09  0.116E-04    7.91     180.2  T
speedup  0.98
cpu  time for SCC    0.01 s
wall time for SCC    0.01 s
speedup  0.99
cpu  time for grad    0.01 s
wall time for grad    0.01 s
 E :    -45.34909044  G :  0.014386    pred/act E change:  0.000D+00 -0.129D-03
Maxdispl :   0.0781   ||displ|| :   0.1391   Lambda : -0.379D-03
Largest |displ|/coords:  0.0781 (   3)  0.0527 (   9)  0.0492 (   8)
................................................................................
.............................. CYCLE   27 ......................................
................................................................................
   1    -45.6096733 -0.456097E+02  0.125E-01    7.97       0.0  T
   2    -45.6096755 -0.225268E-05  0.936E-02    7.96       1.0  T
   3    -45.6096773 -0.175525E-05  0.909E-03    7.95       2.3  T
   4    -45.6096776 -0.343367E-06  0.331E-03    7.96       6.3  T
   5    -45.6096776 -0.121756E-07  0.124E-03    7.96      16.8  T
   6    -45.6096776 -0.159105E-08  0.610E-04    7.96      34.2  T
speedup  0.85
cpu  time for SCC    0.00 s
wall time for SCC    0.00 s
speedup  0.97
cpu  time for grad    0.01 s
wall time for grad    0.01 s
 E :    -45.34934431  G :  0.006465    pred/act E change:  0.000D+00 -0.254D-03
Maxdispl :   0.1398   ||displ|| :   0.2200   Lambda : -0.337D-03
Largest |displ|/coords:  0.1398 (   3)  0.0894 (   4)  0.0767 (   2)
................................................................................
.............................. CYCLE   28 ......................................
................................................................................
   1    -45.6100433 -0.456100E+02  0.194E-01    8.00       0.0  T
   2    -45.6100479 -0.461822E-05  0.146E-01    8.00       1.0  T
   3    -45.6100509 -0.298557E-05  0.138E-02    7.98       1.5  T
   4    -45.6100517 -0.776526E-06  0.501E-03    7.98       4.2  T
   5    -45.6100517 -0.251371E-07  0.175E-03    7.99      11.9  T
   6    -45.6100517 -0.209022E-08  0.878E-04    7.99      23.7  T
speedup  0.85
cpu  time for SCC    0.00 s
wall time for SCC    0.00 s
speedup  0.98
cpu  time for grad    0.01 s
wall time for grad    0.01 s
 E :    -45.34953160  G :  0.010707    pred/act E change: -0.193D-03 -0.187D-03
Maxdispl :   0.0797   ||displ|| :   0.1685   Lambda : -0.195D-03
Largest |displ|/coords:  0.0797 (   4)  0.0710 (   5)  0.0626 (   2)
................................................................................
.............................. CYCLE   29 ......................................
................................................................................
   1    -45.6112458 -0.456112E+02  0.140E-01    8.01       0.0  T
   2    -45.6112503 -0.441803E-05  0.106E-01    8.01       1.0  T
   3    -45.6112534 -0.311032E-05  0.139E-02    8.00       1.5  T
   4    -45.6112540 -0.676735E-06  0.455E-03    8.00       4.6  T
   5    -45.6112541 -0.293283E-07  0.130E-03    8.00      16.0  T
   6    -45.6112541 -0.858826E-09  0.761E-04    8.00      27.4  T
speedup  1.11
cpu  time for SCC    0.00 s
wall time for SCC    0.00 s
speedup  1.00
cpu  time for grad    0.01 s
wall time for grad    0.01 s
 E :    -45.34963793  G :  0.010310    pred/act E change: -0.177D-03 -0.106D-03
Maxdispl :   0.2342   ||displ|| :   0.3424   Lambda : -0.360D-03
Largest |displ|/coords:  0.2342 (   3)  0.1463 (   2)  0.0861 (   4)
................................................................................
.............................. CYCLE   30 ......................................
................................................................................
   1    -45.6111463 -0.456111E+02  0.242E-01    8.01       0.0  T
   2    -45.6111530 -0.662836E-05  0.183E-01    8.01       1.0  T
   3    -45.6111596 -0.662868E-05  0.154E-02    7.99       1.4  T
   4    -45.6111603 -0.696005E-06  0.682E-03    7.99       3.1  T
   5    -45.6111603 -0.350500E-07  0.193E-03    7.99      10.8  T
   6    -45.6111603 -0.319513E-08  0.114E-03    7.99      18.3  T
speedup  1.00
cpu  time for SCC    0.00 s
wall time for SCC    0.01 s
speedup  1.03
cpu  time for grad    0.01 s
wall time for grad    0.01 s
 E :    -45.34990867  G :  0.011964    pred/act E change: -0.100D-03 -0.271D-03
Maxdispl :   0.2766   ||displ|| :   0.4387   Lambda : -0.475D-03
Largest |displ|/coords:  0.2766 (   3)  0.2016 (   2)  0.1459 (   5)
................................................................................
.............................. CYCLE   31 ......................................
................................................................................
   1    -45.6115471 -0.456115E+02  0.223E-01    8.01       0.0  T
   2    -45.6115553 -0.814255E-05  0.169E-01    8.00       1.0  T
   3    -45.6115608 -0.549335E-05  0.182E-02    7.98       1.1  T
   4    -45.6115622 -0.138428E-05  0.683E-03    7.98       3.1  T
   5    -45.6115622 -0.616913E-07  0.204E-03    7.98      10.2  T
   6    -45.6115622 -0.404506E-08  0.124E-03    7.98      16.9  T
speedup  1.06
cpu  time for SCC    0.00 s
wall time for SCC    0.00 s
speedup  0.97
cpu  time for grad    0.01 s
wall time for grad    0.01 s
 E :    -45.35027158  G :  0.013452    pred/act E change: -0.201D-03 -0.363D-03
Maxdispl :   0.2500   ||displ|| :   0.5273   Lambda : -0.691D-03
Largest |displ|/coords:  0.2500 (   5)  0.2399 (   2)  0.2258 (   3)
................................................................................
.............................. CYCLE   32 ......................................
................................................................................
   1    -45.6154541 -0.456155E+02  0.181E-01    8.01       0.0  T
   2    -45.6154690 -0.149312E-04  0.136E-01    8.00       1.0  T
   3    -45.6154768 -0.773332E-05  0.288E-02    7.98       1.0  T
   4    -45.6154791 -0.232774E-05  0.877E-03    7.98       2.4  T
   5    -45.6154792 -0.127039E-06  0.257E-03    7.98       8.1  T
   6    -45.6154792 -0.680852E-08  0.154E-03    7.98      13.5  T
speedup  1.09
cpu  time for SCC    0.00 s
wall time for SCC    0.00 s
speedup  1.05
cpu  time for grad    0.01 s
wall time for grad    0.01 s
 E :    -45.35061054  G :  0.015660    pred/act E change: -0.283D-03 -0.339D-03
Maxdispl :   0.3660   ||displ|| :   0.6268   Lambda : -0.853D-03
Largest |displ|/coords:  0.3660 (   3)  0.2752 (   2)  0.2549 (   4)
................................................................................
.............................. CYCLE   33 ......................................
................................................................................
   1    -45.6103981 -0.456104E+02  0.299E-01    8.00       0.0  T
   2    -45.6104173 -0.192360E-04  0.225E-01    7.98       1.0  T
   3    -45.6104274 -0.100256E-04  0.272E-02    7.95       1.0  T
   4    -45.6104309 -0.356615E-05  0.103E-02    7.95       2.0  T
   5    -45.6104311 -0.201242E-06  0.344E-03    7.95       6.1  T
   6    -45.6104311 -0.113613E-07  0.205E-03    7.95      10.2  T
   7    -45.6104311 -0.107411E-07  0.479E-04    7.95      43.5  T
speedup  1.11
cpu  time for SCC    0.01 s
wall time for SCC    0.01 s
speedup  1.06
cpu  time for grad    0.01 s
wall time for grad    0.01 s
 E :    -45.35110351  G :  0.021027    pred/act E change: -0.441D-03 -0.493D-03
Maxdispl :   0.2149   ||displ|| :   0.3603   Lambda : -0.947D-03
Largest |displ|/coords:  0.2149 (   1)  0.1940 (   4)  0.1219 (   2)
................................................................................
.............................. CYCLE   34 ......................................
................................................................................
   1    -45.6134581 -0.456135E+02  0.238E-01    7.98       0.0  T
   2    -45.6134740 -0.159163E-04  0.180E-01    7.98       1.0  T
   3    -45.6134900 -0.160026E-04  0.249E-02    7.96       1.0  T
   4    -45.6134918 -0.179397E-05  0.863E-03    7.96       2.4  T
   5    -45.6134919 -0.888785E-07  0.303E-03    7.96       6.9  T
   6    -45.6134919 -0.933933E-08  0.141E-03    7.96      14.8  T
speedup  0.87
cpu  time for SCC    0.00 s
wall time for SCC    0.00 s
speedup  0.98
cpu  time for grad    0.01 s
wall time for grad    0.01 s
 E :    -45.35127122  G :  0.030863    pred/act E change: -0.594D-03 -0.168D-03
Maxdispl :   0.1714   ||displ|| :   0.3437   Lambda : -0.149D-02
Largest |displ|/coords:  0.1714 (   2)  0.1688 (   1)  0.1530 (   4)
................................................................................
.............................. CYCLE   35 ......................................
................................................................................
   1    -45.6177593 -0.456178E+02  0.166E-01    7.93       0.0  T
   2    -45.6177776 -0.182537E-04  0.123E-01    7.92       1.0  T
   3    -45.6177878 -0.102661E-04  0.277E-02    7.91       1.0  T
   4    -45.6177899 -0.210318E-05  0.871E-03    7.91       2.4  T
   5    -45.6177901 -0.192432E-06  0.259E-03    7.91       8.1  T
   6    -45.6177901 -0.413618E-08  0.145E-03    7.91      14.4  T
speedup  1.09
cpu  time for SCC    0.00 s
wall time for SCC    0.00 s
speedup  1.06
cpu  time for grad    0.01 s
wall time for grad    0.01 s
 E :    -45.35223395  G :  0.012377    pred/act E change: -0.535D-03 -0.963D-03
Maxdispl :   0.4071   ||displ|| :   0.7586   Lambda : -0.143D-02
Largest |displ|/coords:  0.4071 (   1)  0.3952 (   2)  0.3021 (   4)
................................................................................
.............................. CYCLE   36 ......................................
................................................................................
   1    -45.6175604 -0.456176E+02  0.276E-01    7.86       0.0  T
   2    -45.6175771 -0.167496E-04  0.208E-01    7.85       1.0  T
   3    -45.6175914 -0.142345E-04  0.275E-02    7.83       1.0  T
   4    -45.6175936 -0.226658E-05  0.116E-02    7.83       1.8  T
   5    -45.6175938 -0.151525E-06  0.314E-03    7.83       6.7  T
   6    -45.6175938 -0.117146E-07  0.199E-03    7.83      10.5  T
   7    -45.6175938 -0.749407E-08  0.489E-04    7.83      42.7  T
speedup  0.94
cpu  time for SCC    0.00 s
wall time for SCC    0.01 s
speedup  1.00
cpu  time for grad    0.01 s
wall time for grad    0.01 s
 E :    -45.35357950  G :  0.023040    pred/act E change: -0.835D-03 -0.135D-02
Maxdispl :   0.5343   ||displ|| :   0.8509   Lambda : -0.190D-02
Largest |displ|/coords:  0.5343 (   1)  0.4571 (   2)  0.2523 (   4)
................................................................................
.............................. CYCLE   37 ......................................
................................................................................
   1    -45.6159150 -0.456159E+02  0.297E-01    7.69       0.0  T
   2    -45.6159319 -0.169431E-04  0.221E-01    7.68       1.0  T
   3    -45.6159508 -0.189080E-04  0.348E-02    7.67       1.0  T
   4    -45.6159523 -0.147305E-05  0.108E-02    7.67       1.9  T
   5    -45.6159525 -0.186146E-06  0.387E-03    7.67       5.4  T
   6    -45.6159525 -0.166383E-07  0.239E-03    7.67       8.7  T
speedup  1.04
cpu  time for SCC    0.00 s
wall time for SCC    0.00 s
speedup  1.05
cpu  time for grad    0.01 s
wall time for grad    0.01 s
 E :    -45.35511974  G :  0.038876    pred/act E change: -0.113D-02 -0.154D-02
Maxdispl :   0.3373   ||displ|| :   0.5353   Lambda : -0.263D-02
Largest |displ|/coords:  0.3373 (   1)  0.2103 (   2)  0.1412 (  12)
................................................................................
.............................. CYCLE   38 ......................................
................................................................................
   1    -45.6172913 -0.456173E+02  0.290E-01    7.56       0.0  T
   2    -45.6173219 -0.306045E-04  0.209E-01    7.56       1.0  T
   3    -45.6173381 -0.161635E-04  0.551E-02    7.57       1.0  T
   4    -45.6173412 -0.305162E-05  0.112E-02    7.57       1.9  T
   5    -45.6173414 -0.247819E-06  0.342E-03    7.57       6.1  T
   6    -45.6173414 -0.119477E-07  0.194E-03    7.57      10.7  T
speedup  1.06
cpu  time for SCC    0.00 s
wall time for SCC    0.00 s
speedup  0.96
cpu  time for grad    0.01 s
wall time for grad    0.01 s
 E :    -45.35622328  G :  0.034247    pred/act E change: -0.164D-02 -0.110D-02
Maxdispl :   0.4162   ||displ|| :   0.6809   Lambda : -0.297D-02
Largest |displ|/coords:  0.4162 (   4)  0.2691 (   3)  0.2634 (   2)
................................................................................
.............................. CYCLE   39 ......................................
................................................................................
   1    -45.6105910 -0.456106E+02  0.328E-01    7.53       0.0  T
   2    -45.6106366 -0.456279E-04  0.246E-01    7.53       1.0  T
   3    -45.6106805 -0.438591E-04  0.545E-02    7.54       1.0  T
   4    -45.6106867 -0.617495E-05  0.190E-02    7.54       1.1  T
   5    -45.6106871 -0.428054E-06  0.482E-03    7.54       4.3  T
   6    -45.6106871 -0.378645E-07  0.274E-03    7.54       7.6  T
speedup  1.09
cpu  time for SCC    0.01 s
wall time for SCC    0.00 s
speedup  0.97
cpu  time for grad    0.01 s
wall time for grad    0.01 s
 E :    -45.35667644  G :  0.043066    pred/act E change: -0.169D-02 -0.453D-03
Maxdispl :   0.1742   ||displ|| :   0.4196   Lambda : -0.522D-02
Largest |displ|/coords:  0.1742 (   3)  0.1700 (  14)  0.1236 (  21)
................................................................................
.............................. CYCLE   40 ......................................
................................................................................
   1    -45.6222839 -0.456223E+02  0.376E-01    8.05       0.0  T
   2    -45.6223382 -0.542751E-04  0.278E-01    8.06       1.0  T
   3    -45.6223805 -0.423188E-04  0.493E-02    8.06       1.0  T
   4    -45.6223862 -0.576881E-05  0.132E-02    8.05       1.6  T
   5    -45.6223865 -0.267549E-06  0.600E-03    8.05       3.5  T
   6    -45.6223866 -0.506317E-07  0.296E-03    8.05       7.1  T
speedup  1.02
cpu  time for SCC    0.01 s
wall time for SCC    0.00 s
speedup  1.03
cpu  time for grad    0.01 s
wall time for grad    0.01 s
 E :    -45.35732213  G :  0.041214    pred/act E change: -0.217D-02 -0.646D-03
Maxdispl :   0.1922   ||displ|| :   0.3921   Lambda : -0.358D-02
Largest |displ|/coords:  0.1922 (   1)  0.1730 (   2)  0.1158 (  16)
................................................................................
.............................. CYCLE   41 ......................................
................................................................................
   1    -45.6247653 -0.456248E+02  0.262E-01    7.85       0.0  T
   2    -45.6248043 -0.389505E-04  0.192E-01    7.85       1.0  T
   3    -45.6248233 -0.189951E-04  0.374E-02    7.86       1.0  T
   4    -45.6248277 -0.441720E-05  0.137E-02    7.87       1.5  T
   5    -45.6248280 -0.268279E-06  0.360E-03    7.87       5.8  T
   6    -45.6248280 -0.114603E-07  0.216E-03    7.87       9.6  T
speedup  1.06
cpu  time for SCC    0.00 s
wall time for SCC    0.00 s
speedup  0.96
cpu  time for grad    0.01 s
wall time for grad    0.01 s
 E :    -45.35859100  G :  0.029583    pred/act E change: -0.307D-02 -0.127D-02
Maxdispl :   0.1911   ||displ|| :   0.3925   Lambda : -0.263D-02
Largest |displ|/coords:  0.1911 (   1)  0.1730 (   5)  0.1683 (   4)
................................................................................
.............................. CYCLE   42 ......................................
................................................................................
   1    -45.6185746 -0.456186E+02  0.286E-01    7.94       0.0  T
   2    -45.6186349 -0.602523E-04  0.213E-01    7.94       1.0  T
   3    -45.6186659 -0.310079E-04  0.563E-02    7.94       1.0  T
   4    -45.6186729 -0.700342E-05  0.178E-02    7.95       1.2  T
   5    -45.6186734 -0.546390E-06  0.445E-03    7.95       4.7  T
   6    -45.6186735 -0.229719E-07  0.267E-03    7.95       7.8  T
speedup  1.06
cpu  time for SCC    0.00 s
wall time for SCC    0.00 s
speedup  1.06
cpu  time for grad    0.01 s
wall time for grad    0.01 s
 E :    -45.35773702  G :  0.042461    pred/act E change: -0.206D-02  0.854D-03
Maxdispl :   0.2401   ||displ|| :   0.3715   Lambda : -0.320D-02
Largest |displ|/coords:  0.2401 (   1)  0.1946 (   2)  0.1621 (   5)
................................................................................
.............................. CYCLE   43 ......................................
................................................................................
   1    -45.6215213 -0.456215E+02  0.204E-01    7.90       0.0  T
   2    -45.6215467 -0.253794E-04  0.152E-01    7.91       1.0  T
   3    -45.6215605 -0.138892E-04  0.359E-02    7.94       1.0  T
   4    -45.6215639 -0.330218E-05  0.119E-02    7.93       1.8  T
   5    -45.6215640 -0.194321E-06  0.317E-03    7.93       6.6  T
   6    -45.6215641 -0.832846E-08  0.182E-03    7.93      11.4  T
speedup  0.85
cpu  time for SCC    0.00 s
wall time for SCC    0.00 s
speedup  0.96
cpu  time for grad    0.01 s
wall time for grad    0.01 s
 E :    -45.35942078  G :  0.015818    pred/act E change: -0.151D-02 -0.168D-02
Maxdispl :   0.2077   ||displ|| :   0.3551   Lambda : -0.110D-02
Largest |displ|/coords:  0.2077 (   4)  0.1668 (   1)  0.1228 (   2)
................................................................................
.............................. CYCLE   44 ......................................
................................................................................
   1    -45.6190108 -0.456190E+02  0.198E-01    8.03       0.0  T
   2    -45.6190252 -0.143727E-04  0.148E-01    8.03       1.0  T
   3    -45.6190354 -0.102011E-04  0.230E-02    8.04       1.0  T
   4    -45.6190372 -0.181516E-05  0.763E-03    8.04       2.7  T
   5    -45.6190373 -0.904984E-07  0.294E-03    8.04       7.1  T
   6    -45.6190373 -0.837754E-08  0.167E-03    8.04      12.5  T
speedup  1.04
cpu  time for SCC    0.00 s
wall time for SCC    0.00 s
speedup  0.96
cpu  time for grad    0.01 s
wall time for grad    0.01 s
 E :    -45.35962206  G :  0.020882    pred/act E change: -0.182D-02 -0.201D-03
Maxdispl :   0.0903   ||displ|| :   0.1677   Lambda : -0.773D-03
Largest |displ|/coords:  0.0903 (   1)  0.0768 (   4)  0.0712 (   2)
................................................................................
.............................. CYCLE   45 ......................................
................................................................................
   1    -45.6217972 -0.456218E+02  0.107E-01    8.05       0.0  T
   2    -45.6218006 -0.337504E-05  0.791E-02    8.05       1.0  T
   3    -45.6218029 -0.227823E-05  0.134E-02    8.06       1.6  T
   4    -45.6218033 -0.443072E-06  0.479E-03    8.06       4.4  T
   5    -45.6218033 -0.212633E-07  0.134E-03    8.06      15.6  T
speedup  1.00
cpu  time for SCC    0.00 s
wall time for SCC    0.00 s
speedup  0.93
cpu  time for grad    0.01 s
wall time for grad    0.01 s
 E :    -45.36007976  G :  0.011791    pred/act E change: -0.618D-03 -0.458D-03
Maxdispl :   0.1049   ||displ|| :   0.2034   Lambda : -0.408D-03
Largest |displ|/coords:  0.1049 (   3)  0.0933 (   1)  0.0729 (   5)
................................................................................
.............................. CYCLE   46 ......................................
................................................................................
   1    -45.6224802 -0.456225E+02  0.115E-01    8.08       0.0  T
   2    -45.6224838 -0.364936E-05  0.841E-02    8.08       1.0  T
   3    -45.6224858 -0.196750E-05  0.150E-02    8.09       1.4  T
   4    -45.6224862 -0.461586E-06  0.563E-03    8.09       3.7  T
   5    -45.6224863 -0.250544E-07  0.117E-03    8.09      17.9  T
   6    -45.6224863 -0.160232E-08  0.750E-04    8.09      27.8  T
speedup  1.04
cpu  time for SCC    0.00 s
wall time for SCC    0.00 s
speedup  0.96
cpu  time for grad    0.01 s
wall time for grad    0.01 s
 E :    -45.36034686  G :  0.006997    pred/act E change: -0.397D-03 -0.267D-03
Maxdispl :   0.2830   ||displ|| :   0.4452   Lambda : -0.564D-03
Largest |displ|/coords:  0.2830 (   1)  0.1886 (   2)  0.1534 (  12)
................................................................................
.............................. CYCLE   47 ......................................
................................................................................
   1    -45.6199941 -0.456200E+02  0.226E-01    8.12       0.0  T
   2    -45.6200143 -0.201729E-04  0.167E-01    8.13       1.0  T
   3    -45.6200269 -0.125750E-04  0.306E-02    8.17       1.0  T
   4    -45.6200293 -0.244489E-05  0.111E-02    8.17       1.9  T
   5    -45.6200295 -0.157057E-06  0.301E-03    8.17       6.9  T
   6    -45.6200295 -0.985639E-08  0.184E-03    8.17      11.4  T
   7    -45.6200295 -0.446838E-08  0.475E-04    8.17      43.9  T
speedup  0.91
cpu  time for SCC    0.00 s
wall time for SCC    0.01 s
speedup  0.99
cpu  time for grad    0.01 s
wall time for grad    0.01 s
 E :    -45.36070387  G :  0.012447    pred/act E change: -0.213D-03 -0.357D-03
Maxdispl :   0.1582   ||displ|| :   0.3742   Lambda : -0.647D-03
Largest |displ|/coords:  0.1582 (   1)  0.1431 (   4)  0.1198 (   7)
................................................................................
.............................. CYCLE   48 ......................................
................................................................................
   1    -45.6216369 -0.456216E+02  0.219E-01    8.25       0.0  T
   2    -45.6216470 -0.101896E-04  0.164E-01    8.25       1.0  T
   3    -45.6216529 -0.590434E-05  0.242E-02    8.26       1.0  T
   4    -45.6216545 -0.157091E-05  0.980E-03    8.26       2.1  T
   5    -45.6216546 -0.796218E-07  0.192E-03    8.26      10.9  T
   6    -45.6216546 -0.380885E-08  0.123E-03    8.26      16.9  T
speedup  1.06
cpu  time for SCC    0.00 s
wall time for SCC    0.00 s
speedup  1.05
cpu  time for grad    0.01 s
wall time for grad    0.01 s
 E :    -45.36113037  G :  0.016317    pred/act E change: -0.338D-03 -0.426D-03
Maxdispl :   0.1370   ||displ|| :   0.3607   Lambda : -0.887D-03
Largest |displ|/coords:  0.1370 (   8)  0.1183 (   1)  0.1146 (  14)
................................................................................
.............................. CYCLE   49 ......................................
................................................................................
   1    -45.6203843 -0.456204E+02  0.216E-01    8.16       0.0  T
   2    -45.6203982 -0.139219E-04  0.161E-01    8.17       1.0  T
   3    -45.6204073 -0.908354E-05  0.272E-02    8.18       1.0  T
   4    -45.6204090 -0.175911E-05  0.780E-03    8.18       2.7  T
   5    -45.6204091 -0.782143E-07  0.256E-03    8.18       8.1  T
   6    -45.6204091 -0.891205E-08  0.157E-03    8.18      13.3  T
speedup  0.85
cpu  time for SCC    0.00 s
wall time for SCC    0.00 s
speedup  0.96
cpu  time for grad    0.01 s
wall time for grad    0.01 s
 E :    -45.36170825  G :  0.016145    pred/act E change: -0.369D-03 -0.578D-03
Maxdispl :   0.1305   ||displ|| :   0.2858   Lambda : -0.685D-03
Largest |displ|/coords:  0.1305 (  12)  0.0946 (   1)  0.0934 (   8)
................................................................................
.............................. CYCLE   50 ......................................
................................................................................
   1    -45.6175978 -0.456176E+02  0.181E-01    8.04       0.0  T
   2    -45.6176031 -0.529601E-05  0.135E-01    8.04       1.0  T
   3    -45.6176080 -0.493336E-05  0.196E-02    8.04       1.1  T
   4    -45.6176085 -0.488332E-06  0.580E-03    8.04       3.6  T
   5    -45.6176086 -0.458533E-07  0.171E-03    8.04      12.2  T
   6    -45.6176086 -0.431842E-08  0.112E-03    8.04      18.7  T
speedup  0.85
cpu  time for SCC    0.00 s
wall time for SCC    0.00 s
speedup  0.96
cpu  time for grad    0.01 s
wall time for grad    0.01 s
 E :    -45.36217698  G :  0.016199    pred/act E change: -0.501D-03 -0.469D-03
Maxdispl :   0.1448   ||displ|| :   0.3206   Lambda : -0.892D-03
Largest |displ|/coords:  0.1448 (   5)  0.1177 (   3)  0.1062 (  12)
................................................................................
.............................. CYCLE   51 ......................................
................................................................................
   1    -45.6197633 -0.456198E+02  0.217E-01    7.92       0.0  T
   2    -45.6197778 -0.144572E-04  0.158E-01    7.92       1.0  T
   3    -45.6197871 -0.931181E-05  0.289E-02    7.90       1.0  T
   4    -45.6197885 -0.138319E-05  0.881E-03    7.91       2.4  T
   5    -45.6197885 -0.956710E-07  0.243E-03    7.91       8.6  T
   6    -45.6197886 -0.771571E-08  0.139E-03    7.91      15.0  T
speedup  1.06
cpu  time for SCC    0.01 s
wall time for SCC    0.00 s
speedup  0.96
cpu  time for grad    0.01 s
wall time for grad    0.01 s
 E :    -45.36245447  G :  0.016784    pred/act E change: -0.371D-03 -0.277D-03
Maxdispl :   0.1577   ||displ|| :   0.3095   Lambda : -0.668D-03
Largest |displ|/coords:  0.1577 (  12)  0.1340 (   1)  0.1334 (  14)
................................................................................
.............................. CYCLE   52 ......................................
................................................................................
   1    -45.6148330 -0.456148E+02  0.177E-01    7.86       0.0  T
   2    -45.6148414 -0.839426E-05  0.133E-01    7.87       1.0  T
   3    -45.6148465 -0.514830E-05  0.181E-02    7.90       1.1  T
   4    -45.6148478 -0.131593E-05  0.621E-03    7.89       3.4  T
   5    -45.6148479 -0.444157E-07  0.202E-03    7.89      10.3  T
   6    -45.6148479 -0.415424E-08  0.116E-03    7.89      18.0  T
speedup  1.02
cpu  time for SCC    0.00 s
wall time for SCC    0.00 s
speedup  1.04
cpu  time for grad    0.01 s
wall time for grad    0.01 s
 E :    -45.36278607  G :  0.013227    pred/act E change: -0.492D-03 -0.332D-03
Maxdispl :   0.0722   ||displ|| :   0.1294   Lambda : -0.355D-03
Largest |displ|/coords:  0.0722 (   6)  0.0495 (  13)  0.0440 (   2)

generating ANC from model Hessian ...
 Shifting diagonal of input Hessian by   4.951543050916699E-003
 Lowest  eigenvalues of input Hessian
   -0.000000   -0.000000   -0.000000   -0.000000    0.000000    0.000000
    0.005000    0.005449    0.005964    0.006095    0.006268    0.007116
    0.007485    0.008120    0.008676    0.009700    0.011380    0.012514
 Highest eigenvalues
    1.361777    1.396398    1.399936    2.727168    3.276862    3.716644
 
cpu  time for ANC gen    0.01 s
wall time for ANC gen    0.01 s
................................................................................
.............................. CYCLE   53 ......................................
................................................................................
   1    -45.6179477 -0.456179E+02  0.842E-02    8.00       0.0  T
   2    -45.6179512 -0.354056E-05  0.612E-02    8.01       1.0  T
   3    -45.6179527 -0.143935E-05  0.139E-02    8.01       1.5  T
   4    -45.6179531 -0.409405E-06  0.500E-03    8.02       4.2  T
   5    -45.6179531 -0.252592E-07  0.106E-03    8.02      19.7  T
   6    -45.6179531 -0.147563E-08  0.628E-04    8.02      33.2  T
   7    -45.6179531 -0.759627E-09  0.201E-04    8.02     103.7  T
speedup  1.07
cpu  time for SCC    0.01 s
wall time for SCC    0.01 s
speedup  1.03
cpu  time for grad    0.01 s
wall time for grad    0.01 s
 E :    -45.36298036  G :  0.006876    pred/act E change:  0.000D+00 -0.194D-03
Maxdispl :   0.0893   ||displ|| :   0.1500   Lambda : -0.257D-03
Largest |displ|/coords:  0.0893 (   4)  0.0597 (   3)  0.0464 (   2)
................................................................................
.............................. CYCLE   54 ......................................
................................................................................
   1    -45.6178295 -0.456178E+02  0.127E-01    8.03       0.0  T
   2    -45.6178322 -0.261160E-05  0.966E-02    8.03       1.0  T
   3    -45.6178356 -0.342685E-05  0.899E-03    8.04       2.3  T
   4    -45.6178357 -0.138726E-06  0.363E-03    8.04       5.7  T
   5    -45.6178357 -0.158115E-07  0.120E-03    8.04      17.4  T
   6    -45.6178357 -0.229846E-08  0.624E-04    8.04      33.4  T
speedup  1.06
cpu  time for SCC    0.00 s
wall time for SCC    0.00 s
speedup  1.05
cpu  time for grad    0.01 s
wall time for grad    0.01 s
 E :    -45.36311223  G :  0.004854    pred/act E change:  0.000D+00 -0.132D-03
Maxdispl :   0.1007   ||displ|| :   0.1679   Lambda : -0.162D-03
Largest |displ|/coords:  0.1007 (   2)  0.0877 (   3)  0.0770 (   4)
................................................................................
.............................. CYCLE   55 ......................................
................................................................................
   1    -45.6179360 -0.456179E+02  0.859E-02    8.04       0.0  T
   2    -45.6179373 -0.129010E-05  0.643E-02    8.05       1.0  T
   3    -45.6179385 -0.118974E-05  0.641E-03    8.06       3.3  T
   4    -45.6179387 -0.143387E-06  0.319E-03    8.06       6.5  T
   5    -45.6179387 -0.115625E-07  0.839E-04    8.06      24.8  T
   6    -45.6179387 -0.123222E-08  0.458E-04    8.06      45.6  T
speedup  1.06
cpu  time for SCC    0.00 s
wall time for SCC    0.00 s
speedup  0.96
cpu  time for grad    0.01 s
wall time for grad    0.01 s
 E :    -45.36324676  G :  0.003702    pred/act E change: -0.132D-03 -0.135D-03
Maxdispl :   0.2725   ||displ|| :   0.4459   Lambda : -0.322D-03
Largest |displ|/coords:  0.2725 (   2)  0.2400 (   3)  0.1833 (   4)
................................................................................
.............................. CYCLE   56 ......................................
................................................................................
   1    -45.6168013 -0.456168E+02  0.216E-01    8.04       0.0  T
   2    -45.6168093 -0.799017E-05  0.162E-01    8.06       1.0  T
   3    -45.6168170 -0.774170E-05  0.170E-02    8.09       1.2  T
   4    -45.6168180 -0.920582E-06  0.767E-03    8.08       2.7  T
   5    -45.6168180 -0.618569E-07  0.219E-03    8.08       9.5  T
   6    -45.6168180 -0.746831E-08  0.116E-03    8.08      18.0  T
   7    -45.6168180 -0.300955E-08  0.372E-04    8.08      56.0  T
   8    -45.6168180 -0.309861E-09  0.112E-04    8.08     186.2  T
speedup  0.92
cpu  time for SCC    0.01 s
wall time for SCC    0.01 s
speedup  0.96
cpu  time for grad    0.01 s
wall time for grad    0.01 s
 E :    -45.36347351  G :  0.006994    pred/act E change: -0.834D-04 -0.227D-03
Maxdispl :   0.2430   ||displ|| :   0.3842   Lambda : -0.215D-03
Largest |displ|/coords:  0.2430 (   2)  0.2012 (   3)  0.1235 (   4)
................................................................................
.............................. CYCLE   57 ......................................
................................................................................
   1    -45.6162044 -0.456162E+02  0.167E-01    8.04       0.0  T
   2    -45.6162090 -0.460979E-05  0.126E-01    8.04       1.0  T
   3    -45.6162143 -0.525944E-05  0.131E-02    8.06       1.6  T
   4    -45.6162147 -0.425474E-06  0.560E-03    8.06       3.7  T
   5    -45.6162147 -0.363914E-07  0.164E-03    8.06      12.7  T
   6    -45.6162148 -0.354409E-08  0.941E-04    8.06      22.2  T
speedup  1.04
cpu  time for SCC    0.01 s
wall time for SCC    0.00 s
speedup  0.89
cpu  time for grad    0.01 s
wall time for grad    0.01 s
 E :    -45.36362947  G :  0.008215    pred/act E change: -0.193D-03 -0.156D-03
Maxdispl :   0.2020   ||displ|| :   0.3114   Lambda : -0.174D-03
Largest |displ|/coords:  0.2020 (   2)  0.1543 (   3)  0.0873 (   4)
................................................................................
.............................. CYCLE   58 ......................................
................................................................................
   1    -45.6164253 -0.456164E+02  0.140E-01    8.03       0.0  T
   2    -45.6164288 -0.349092E-05  0.105E-01    8.03       1.0  T
   3    -45.6164324 -0.357758E-05  0.120E-02    8.04       1.7  T
   4    -45.6164328 -0.397329E-06  0.433E-03    8.04       4.8  T
   5    -45.6164328 -0.241266E-07  0.152E-03    8.04      13.7  T
   6    -45.6164328 -0.356909E-08  0.827E-04    8.04      25.2  T
speedup  0.85
cpu  time for SCC    0.00 s
wall time for SCC    0.00 s
speedup  0.96
cpu  time for grad    0.01 s
wall time for grad    0.01 s
 E :    -45.36374977  G :  0.008165    pred/act E change: -0.124D-03 -0.120D-03
Maxdispl :   0.1883   ||displ|| :   0.2810   Lambda : -0.162D-03
Largest |displ|/coords:  0.1883 (   2)  0.1208 (   3)  0.1156 (   4)
................................................................................
.............................. CYCLE   59 ......................................
................................................................................
   1    -45.6159243 -0.456159E+02  0.139E-01    8.02       0.0  T
   2    -45.6159279 -0.358493E-05  0.105E-01    8.03       1.0  T
   3    -45.6159311 -0.323587E-05  0.115E-02    8.04       1.8  T
   4    -45.6159316 -0.471656E-06  0.424E-03    8.04       4.9  T
   5    -45.6159316 -0.248481E-07  0.150E-03    8.04      13.9  T
   6    -45.6159316 -0.289948E-08  0.873E-04    8.04      23.9  T
speedup  1.06
cpu  time for SCC    0.00 s
wall time for SCC    0.00 s
speedup  0.97
cpu  time for grad    0.01 s
wall time for grad    0.01 s
 E :    -45.36386130  G :  0.008031    pred/act E change: -0.955D-04 -0.112D-03
Maxdispl :   0.1521   ||displ|| :   0.2245   Lambda : -0.182D-03
Largest |displ|/coords:  0.1521 (   2)  0.0819 (   4)  0.0750 (   3)
................................................................................
.............................. CYCLE   60 ......................................
................................................................................
   1    -45.6174759 -0.456175E+02  0.121E-01    8.09       0.0  T
   2    -45.6174809 -0.499971E-05  0.911E-02    8.09       1.0  T
   3    -45.6174834 -0.243281E-05  0.148E-02    8.10       1.4  T
   4    -45.6174843 -0.881904E-06  0.510E-03    8.10       4.1  T
   5    -45.6174843 -0.422367E-07  0.139E-03    8.10      15.0  T
   6    -45.6174843 -0.233903E-08  0.889E-04    8.10      23.4  T
speedup  1.06
cpu  time for SCC    0.00 s
wall time for SCC    0.00 s
speedup  1.05
cpu  time for grad    0.01 s
wall time for grad    0.01 s
 E :    -45.36397197  G :  0.005011    pred/act E change: -0.872D-04 -0.111D-03
Maxdispl :   0.2704   ||displ|| :   0.3960   Lambda : -0.149D-03
Largest |displ|/coords:  0.2704 (   2)  0.1765 (   4)  0.1540 (   3)
................................................................................
.............................. CYCLE   61 ......................................
................................................................................
   1    -45.6128906 -0.456129E+02  0.216E-01    8.02       0.0  T
   2    -45.6129003 -0.962597E-05  0.162E-01    8.04       1.0  T
   3    -45.6129076 -0.731212E-05  0.194E-02    8.07       1.1  T
   4    -45.6129090 -0.144489E-05  0.606E-03    8.07       3.4  T
   5    -45.6129091 -0.601438E-07  0.243E-03    8.06       8.6  T
   6    -45.6129091 -0.721618E-08  0.138E-03    8.06      15.2  T
speedup  1.09
cpu  time for SCC    0.00 s
wall time for SCC    0.00 s
speedup  1.07
cpu  time for grad    0.01 s
wall time for grad    0.01 s
 E :    -45.36402661  G :  0.008828    pred/act E change: -0.958D-04 -0.546D-04
Maxdispl :   0.0720   ||displ|| :   0.1605   Lambda : -0.216D-03
Largest |displ|/coords:  0.0720 (   1)  0.0717 (   2)  0.0507 (  10)
................................................................................
.............................. CYCLE   62 ......................................
................................................................................
   1    -45.6168489 -0.456168E+02  0.984E-02    8.17       0.0  T
   2    -45.6168538 -0.491386E-05  0.736E-02    8.17       1.0  T
   3    -45.6168559 -0.207353E-05  0.143E-02    8.18       1.5  T
   4    -45.6168567 -0.787288E-06  0.543E-03    8.18       3.8  T
   5    -45.6168567 -0.395473E-07  0.115E-03    8.18      18.1  T
   6    -45.6168567 -0.143728E-08  0.704E-04    8.18      29.6  T
speedup  1.00
cpu  time for SCC    0.00 s
wall time for SCC    0.01 s
speedup  1.03
cpu  time for grad    0.01 s
wall time for grad    0.01 s
 E :    -45.36411768  G :  0.006947    pred/act E change: -0.864D-04 -0.911D-04
Maxdispl :   0.1186   ||displ|| :   0.1781   Lambda : -0.137D-03
Largest |displ|/coords:  0.1186 (   2)  0.0570 (   9)  0.0560 (   4)
................................................................................
.............................. CYCLE   63 ......................................
................................................................................
   1    -45.6168637 -0.456169E+02  0.970E-02    8.20       0.0  T
   2    -45.6168665 -0.274130E-05  0.722E-02    8.20       1.0  T
   3    -45.6168681 -0.158626E-05  0.117E-02    8.22       1.8  T
   4    -45.6168685 -0.418262E-06  0.342E-03    8.22       6.1  T
   5    -45.6168685 -0.214589E-07  0.109E-03    8.22      19.1  T
   6    -45.6168685 -0.158272E-08  0.684E-04    8.22      30.5  T
speedup  1.06
cpu  time for SCC    0.00 s
wall time for SCC    0.00 s
speedup  0.96
cpu  time for grad    0.01 s
wall time for grad    0.01 s
 E :    -45.36418786  G :  0.006122    pred/act E change: -0.111D-03 -0.702D-04
Maxdispl :   0.2242   ||displ|| :   0.3206   Lambda : -0.133D-03
Largest |displ|/coords:  0.2242 (   2)  0.1120 (   4)  0.0905 (   3)
................................................................................
.............................. CYCLE   64 ......................................
................................................................................
   1    -45.6141977 -0.456142E+02  0.162E-01    8.15       0.0  T
   2    -45.6142047 -0.698171E-05  0.121E-01    8.17       1.0  T
   3    -45.6142090 -0.424548E-05  0.172E-02    8.20       1.2  T
   4    -45.6142101 -0.113695E-05  0.505E-03    8.20       4.1  T
   5    -45.6142101 -0.474689E-07  0.185E-03    8.20      11.2  T
   6    -45.6142101 -0.414706E-08  0.107E-03    8.20      19.6  T
speedup  1.06
cpu  time for SCC    0.01 s
wall time for SCC    0.00 s
speedup  0.97
cpu  time for grad    0.01 s
wall time for grad    0.01 s
 E :    -45.36420854  G :  0.009441    pred/act E change: -0.705D-04 -0.207D-04
Maxdispl :   0.0513   ||displ|| :   0.1027   Lambda : -0.129D-03
Largest |displ|/coords:  0.0513 (   2)  0.0440 (   1)  0.0400 (   8)
................................................................................
.............................. CYCLE   65 ......................................
................................................................................
   1    -45.6139851 -0.456140E+02  0.635E-02    8.21       0.0  T
   2    -45.6139864 -0.132936E-05  0.475E-02    8.21       1.0  T
   3    -45.6139873 -0.879652E-06  0.733E-03    8.21       2.8  T
   4    -45.6139875 -0.203656E-06  0.263E-03    8.21       7.9  T
   5    -45.6139875 -0.988682E-08  0.895E-04    8.21      23.3  T
speedup  1.03
cpu  time for SCC    0.00 s
wall time for SCC    0.00 s
speedup  1.05
cpu  time for grad    0.01 s
wall time for grad    0.01 s
 E :    -45.36428141  G :  0.006794    pred/act E change: -0.732D-04 -0.729D-04
Maxdispl :   0.0664   ||displ|| :   0.1073   Lambda : -0.108D-03
Largest |displ|/coords:  0.0664 (   1)  0.0499 (   3)  0.0254 (   8)
................................................................................
.............................. CYCLE   66 ......................................
................................................................................
   1    -45.6164188 -0.456164E+02  0.506E-02    8.29       0.0  T
   2    -45.6164208 -0.192620E-05  0.367E-02    8.29       1.0  T
[...]
.............................. CYCLE  125 ......................................
................................................................................
   1    -45.6326682 -0.456327E+02  0.126E-02    9.41       0.0  T
   2    -45.6326682 -0.232785E-07  0.949E-03    9.41       2.2  T
   3    -45.6326682 -0.260500E-07  0.953E-04    9.41      21.9  T
   4    -45.6326682 -0.213639E-08  0.424E-04    9.41      49.2  T
speedup  0.88
cpu  time for SCC    0.00 s
wall time for SCC    0.00 s
speedup  1.03
cpu  time for grad    0.01 s
wall time for grad    0.01 s
 E :    -45.37675237  G :  0.000486    pred/act E change: -0.179D-05 -0.122D-05
Maxdispl :   0.0079   ||displ|| :   0.0129   Lambda : -0.101D-05
Largest |displ|/coords:  0.0079 (   1)  0.0057 (  19)  0.0031 (   6)
................................................................................
.............................. CYCLE  126 ......................................
................................................................................
   1    -45.6327116 -0.456327E+02  0.103E-02    9.41       0.0  T
   2    -45.6327117 -0.111110E-07  0.774E-03    9.41       2.7  T
   3    -45.6327117 -0.151190E-07  0.609E-04    9.41      34.2  T
   4    -45.6327117 -0.576293E-09  0.259E-04    9.41      80.6  T
speedup  0.94
cpu  time for SCC    0.00 s
wall time for SCC    0.00 s
speedup  0.95
cpu  time for grad    0.01 s
wall time for grad    0.01 s
 E :    -45.37675310  G :  0.000599    pred/act E change: -0.994D-06 -0.731D-06
Maxdispl :   0.0111   ||displ|| :   0.0188   Lambda : -0.126D-05
Largest |displ|/coords:  0.0111 (   1)  0.0081 (  19)  0.0054 (   9)
................................................................................
.............................. CYCLE  127 ......................................
................................................................................
   1    -45.6326927 -0.456327E+02  0.157E-02    9.41       0.0  T
   2    -45.6326927 -0.251346E-07  0.118E-02    9.41       1.8  T
   3    -45.6326928 -0.294450E-07  0.950E-04    9.41      21.9  T
   4    -45.6326928 -0.231467E-08  0.461E-04    9.41      45.2  T
speedup  1.21
cpu  time for SCC    0.00 s
wall time for SCC    0.00 s
speedup  1.05
cpu  time for grad    0.01 s
wall time for grad    0.01 s
 E :    -45.37675398  G :  0.000661    pred/act E change: -0.503D-06 -0.883D-06
Maxdispl :   0.0108   ||displ|| :   0.0221   Lambda : -0.146D-05
Largest |displ|/coords:  0.0108 (   4)  0.0085 (   1)  0.0075 (  19)
................................................................................
.............................. CYCLE  128 ......................................
................................................................................
   1    -45.6328523 -0.456329E+02  0.168E-02    9.41       0.0  T
   2    -45.6328523 -0.259018E-07  0.126E-02    9.41       1.7  T
   3    -45.6328524 -0.310268E-07  0.977E-04    9.41      21.3  T
   4    -45.6328524 -0.212282E-08  0.505E-04    9.41      41.3  T
speedup  1.21
cpu  time for SCC    0.00 s
wall time for SCC    0.00 s
speedup  1.04
cpu  time for grad    0.01 s
wall time for grad    0.01 s
 E :    -45.37675482  G :  0.000705    pred/act E change: -0.629D-06 -0.837D-06
Maxdispl :   0.0157   ||displ|| :   0.0246   Lambda : -0.136D-05
Largest |displ|/coords:  0.0157 (   1)  0.0075 (  19)  0.0067 (  13)
................................................................................
.............................. CYCLE  129 ......................................
................................................................................
   1    -45.6327372 -0.456327E+02  0.216E-02    9.41       0.0  T
   2    -45.6327372 -0.386027E-07  0.162E-02    9.41       1.3  T
   3    -45.6327373 -0.493674E-07  0.124E-03    9.41      16.8  T
   4    -45.6327373 -0.304162E-08  0.577E-04    9.41      36.2  T
   5    -45.6327373 -0.362100E-09  0.155E-04    9.41     134.8  T
speedup  1.00
cpu  time for SCC    0.00 s
wall time for SCC    0.00 s
speedup  1.06
cpu  time for grad    0.01 s
wall time for grad    0.01 s
 E :    -45.37675567  G :  0.000697    pred/act E change: -0.731D-06 -0.853D-06
Maxdispl :   0.0078   ||displ|| :   0.0139   Lambda : -0.101D-05
Largest |displ|/coords:  0.0078 (   1)  0.0052 (  10)  0.0035 (  13)
................................................................................
.............................. CYCLE  130 ......................................
................................................................................
   1    -45.6327364 -0.456327E+02  0.120E-02    9.41       0.0  T
   2    -45.6327364 -0.112206E-07  0.897E-03    9.41       2.3  T
   3    -45.6327364 -0.134580E-07  0.779E-04    9.41      26.8  T
   4    -45.6327364 -0.889266E-09  0.320E-04    9.41      65.1  T
speedup  0.94
cpu  time for SCC    0.00 s
wall time for SCC    0.00 s
speedup  0.95
cpu  time for grad    0.01 s
wall time for grad    0.01 s
 E :    -45.37675644  G :  0.000570    pred/act E change: -0.682D-06 -0.762D-06
Maxdispl :   0.0124   ||displ|| :   0.0206   Lambda : -0.109D-05
Largest |displ|/coords:  0.0124 (   1)  0.0070 (  13)  0.0065 (  10)
................................................................................
.............................. CYCLE  131 ......................................
................................................................................
   1    -45.6327311 -0.456327E+02  0.187E-02    9.41       0.0  T
   2    -45.6327311 -0.242901E-07  0.140E-02    9.41       1.5  T
   3    -45.6327311 -0.295702E-07  0.128E-03    9.41      16.3  T
   4    -45.6327311 -0.181117E-08  0.484E-04    9.41      43.1  T
   5    -45.6327311 -0.266027E-09  0.141E-04    9.41     147.6  T
speedup  1.00
cpu  time for SCC    0.00 s
wall time for SCC    0.00 s
speedup  0.96
cpu  time for grad    0.01 s
wall time for grad    0.01 s
 E :    -45.37675719  G :  0.000497    pred/act E change: -0.503D-06 -0.755D-06
Maxdispl :   0.0133   ||displ|| :   0.0192   Lambda : -0.682D-06
Largest |displ|/coords:  0.0133 (   1)  0.0060 (  13)  0.0045 (  19)
................................................................................
.............................. CYCLE  132 ......................................
................................................................................
   1    -45.6327133 -0.456327E+02  0.170E-02    9.41       0.0  T
   2    -45.6327133 -0.209593E-07  0.127E-02    9.41       1.6  T
   3    -45.6327133 -0.261492E-07  0.118E-03    9.41      17.6  T
   4    -45.6327133 -0.145916E-08  0.430E-04    9.41      48.5  T
   5    -45.6327133 -0.238657E-09  0.138E-04    9.41     150.6  T
speedup  1.03
cpu  time for SCC    0.00 s
wall time for SCC    0.00 s
speedup  1.07
cpu  time for grad    0.01 s
wall time for grad    0.01 s
 E :    -45.37675768  G :  0.000416    pred/act E change: -0.543D-06 -0.490D-06
Maxdispl :   0.0131   ||displ|| :   0.0188   Lambda : -0.539D-06
Largest |displ|/coords:  0.0131 (   1)  0.0070 (  13)  0.0053 (  19)
................................................................................
.............................. CYCLE  133 ......................................
................................................................................
   1    -45.6326956 -0.456327E+02  0.168E-02    9.41       0.0  T
   2    -45.6326957 -0.196108E-07  0.126E-02    9.41       1.7  T
   3    -45.6326957 -0.228190E-07  0.116E-03    9.41      18.0  T
   4    -45.6326957 -0.160041E-08  0.411E-04    9.41      50.7  T
   5    -45.6326957 -0.224439E-09  0.136E-04    9.41     152.9  T
speedup  1.03
cpu  time for SCC    0.00 s
wall time for SCC    0.00 s
speedup  0.98
cpu  time for grad    0.01 s
wall time for grad    0.01 s
 E :    -45.37675805  G :  0.000295    pred/act E change: -0.341D-06 -0.366D-06
Maxdispl :   0.0063   ||displ|| :   0.0092   Lambda : -0.262D-06
Largest |displ|/coords:  0.0063 (   1)  0.0029 (  13)  0.0025 (  19)
................................................................................
.............................. CYCLE  134 ......................................
................................................................................
   1    -45.6327153 -0.456327E+02  0.717E-03    9.41       0.0  T
   2    -45.6327153 -0.586660E-08  0.536E-03    9.41       3.9  T
   3    -45.6327153 -0.527232E-08  0.651E-04    9.41      32.0  T
   4    -45.6327153 -0.657522E-09  0.243E-04    9.41      85.8  T
speedup  1.21
cpu  time for SCC    0.00 s
wall time for SCC    0.00 s
speedup  1.04
cpu  time for grad    0.01 s
wall time for grad    0.01 s
 E :    -45.37675821  G :  0.000187    pred/act E change: -0.270D-06 -0.159D-06
Maxdispl :   0.0034   ||displ|| :   0.0056   Lambda : -0.822D-07
Largest |displ|/coords:  0.0034 (   1)  0.0024 (  19)  0.0021 (  13)
................................................................................
.............................. CYCLE  135 ......................................
................................................................................
   1    -45.6327036 -0.456327E+02  0.501E-03    9.41       0.0  T
   2    -45.6327036 -0.224628E-08  0.376E-03    9.41       5.6  T
   3    -45.6327036 -0.294914E-08  0.397E-04    9.41      52.6  T
   4    -45.6327036 -0.143729E-09  0.104E-04    9.41     200.6  T
speedup  1.21
cpu  time for SCC    0.00 s
wall time for SCC    0.00 s
speedup  1.02
cpu  time for grad    0.01 s
wall time for grad    0.01 s
 E :    -45.37675825  G :  0.000125    pred/act E change: -0.131D-06 -0.462D-07
Maxdispl :   0.0019   ||displ|| :   0.0038   Lambda : -0.427D-07
Largest |displ|/coords:  0.0019 (   1)  0.0013 (  10)  0.0011 (   3)

   *** GEOMETRY OPTIMIZATION CONVERGED AFTER 135 ITERATIONS ***

------------------------------------------------------------------------
 total energy gain (kcal):     -0.7079
------------------------------------------------------------------------
================
 final structure:
================
$coord
        0.30179074666265        1.84353537055289        1.90344428770356      S 
       -1.64668395215873       -0.05736643435369        2.43607605425182      O 
       -0.26762571626361        3.19331329559846       -0.42755873478713      O 
        2.81069883347855        0.73627421670696        1.86942390240649      O 
        0.15590976807992        3.76738839726935        4.13993916952259      O 
        1.48138741435036        4.97013483805129        3.68627996043082      H 
        3.06538658632721       -1.33111758727957       -0.65301439021062      H 
       -0.71528275722041        0.19579173046730       -4.37188189561376      O 
       -0.52007982545212        1.64574057018137       -3.22307826027609      H 
       -2.73429940792660       -1.05742753763899       -3.00789208130163      H 
        3.83300269371453        5.74895265534235        1.41365537197831      O 
        2.62969600033889        5.67606494630150        0.04200343441316      H 
        4.53279990524089        4.06247542328824        1.50688311228230      H 
       -0.63283823704561       -4.90726889325763        1.41318141039640      O 
       -0.83290045096246       -3.19451151533113        2.09008602359856      H 
        0.23935940872435       -5.85196749558366        2.68844999576694      H 
        2.65747123524023       -2.55399543334370       -1.97559413096343      O 
        0.74285051994772       -0.89537868660152       -3.93332919185316      H 
        1.69967029192941       -3.85254634964093       -1.10758591120037      H 
       -3.98784420050799       -1.87306625282629       -1.51717047667689      N 
       -5.85150502636908       -1.57933814179261       -1.84992635701938      H 
       -3.36769662552183       -0.94188336142389        0.14808025921789      H 
       -3.59326718565991       -3.74380371686361       -1.27047158981824      H 
$end
 
 Bond Distances (Angstroems)
 ---------------------------
S1-O2=1.4678         S1-O3=1.4569         S1-O4=1.4513         S1-O5=1.5630         O2-S1=1.4678         O3-S1=1.4569         
O4-S1=1.4513         O5-S1=1.5630         O5-H6=0.9771         H6-O5=0.9771         H7-O17=0.9773        O8-H9=0.9844         
O8-H18=0.9913        H9-O8=0.9844         H10-N20=1.1174       O11-H12=0.9663       O11-H13=0.9675       H12-O11=0.9663       
H13-O11=0.9675       O14-H15=0.9803       O14-H16=0.9583       H15-O14=0.9803       H16-O14=0.9583       O17-H7=0.9773        
O17-H19=0.9696       H18-O8=0.9913        H19-O17=0.9696       N20-H10=1.1174       N20-H21=1.0138       N20-H22=1.0616       
N20-H23=1.0201       H21-N20=1.0138       H22-N20=1.0616       H23-N20=1.0201       
 N  H  Rav=1.0532 sigma=0.0414  Rmin=1.0138  Rmax=1.1174     4
 O  H  Rav=0.9747 sigma=0.0096  Rmin=0.9583  Rmax=0.9913     9
 S  O  Rav=1.4848 sigma=0.0456  Rmin=1.4513  Rmax=1.5630     4
 
 selected bond angles (degree)
 --------------------
O3-S1-O2=110.69                O4-S1-O2=111.61                O4-S1-O3=112.13                O5-S1-O2=105.44                
O5-S1-O3=108.15                O5-S1-O4=108.51                H6-O5-S1=101.70                H18-O8-H9=103.17               
 
 selected dihedral angles (degree)
 ---------------------------------
H6-O5-S1-O2=179.92            H6-O5-S1-O3=298.37            H6-O5-S1-O4= 60.22            
 
 CMA Distance (Angstroems)
 ---------------------------
R(CMA):  2.0575

========================================================================
 FINAL SINGLEPOINT CALCULATION ON OPTIMIZED GEOMETRY
========================================================================

 Ncao       : 59
 Nao        : 58
 Nshell     : 34
 Nel        : 72
 T(el)      :   300.0
 intcut     :    25.0
 scfconv/Eh :  0.100E-05
   qconv/e  :  0.100E-03
 intneglect :  0.100E-07
 broydamp   :      0.250
 iter      E             dE          RMSdq      gap      omega  full diag
   1    -45.6327036 -0.456327E+02  0.383E-05    9.41       0.0  T
   2    -45.6327036 -0.111555E-11  0.240E-05    9.41     868.5  T
   3    -45.6327036 -0.625278E-12  0.727E-06    9.41    2869.5  T
speedup  0.83
cpu  time for SCC    0.00 s
wall time for SCC    0.00 s

   *** convergence criteria satisfied after 3 iterations ***

          eigenvalues
 #    :          24         25         26         27         28         29         30         31
 occ. :        2.000      2.000      2.000      2.000      2.000      2.000      2.000      2.000
 eps  :       -13.823    -13.715    -13.272    -12.659    -12.439    -12.398    -12.310    -12.255
 #    :          32         33         34         35         36         37         38         39
 occ. :        2.000      2.000      2.000      2.000      2.000      0.000      0.000      0.000
 eps  :       -12.171    -11.986    -11.952    -11.819    -11.759     -2.351     -1.200     -0.087
 #    :          40         41         42         43         44         45         46         47
 occ. :        0.000      0.000      0.000      0.000      0.000      0.000      0.000      0.000
 eps  :         0.802      1.278      1.998      2.292      2.525      4.213      4.660      5.163


   #   Z            q   n(s)   n(p)   n(d)      C6AA      α(0)
   1  16 S      1.702  1.587  1.768  0.943    88.712    15.852
   2   8 O     -0.747  1.761  4.986  0.000    30.008     7.345
   3   8 O     -0.771  1.775  4.996  0.000    30.718     7.431
   4   8 O     -0.760  1.776  4.984  0.000    30.402     7.393
   5   8 O     -0.609  1.760  4.849  0.000    25.372     6.800
   6   1 H      0.369  0.631  0.000  0.000     0.537     1.146
   7   1 H      0.314  0.686  0.000  0.000     0.681     1.296
   8   8 O     -0.604  1.758  4.845  0.000    25.249     6.783
   9   1 H      0.332  0.668  0.000  0.000     0.633     1.250
  10   1 H      0.312  0.688  0.000  0.000     0.675     1.285
  11   8 O     -0.598  1.738  4.860  0.000    25.145     6.768
  12   1 H      0.307  0.693  0.000  0.000     0.702     1.316
  13   1 H      0.309  0.691  0.000  0.000     0.696     1.310
  14   8 O     -0.622  1.741  4.881  0.000    25.729     6.846
  15   1 H      0.323  0.677  0.000  0.000     0.656     1.272
  16   1 H      0.288  0.712  0.000  0.000     0.758     1.368
  17   8 O     -0.629  1.754  4.875  0.000    25.900     6.869
  18   1 H      0.339  0.661  0.000  0.000     0.615     1.232
  19   1 H      0.308  0.692  0.000  0.000     0.699     1.313
  20   7 N     -0.343  1.276  4.067  0.000    28.806     7.971
  21   1 H      0.230  0.770  0.000  0.000     0.964     1.538
  22   1 H      0.293  0.707  0.000  0.000     0.736     1.344
  23   1 H      0.257  0.743  0.000  0.000     0.855     1.449

 Mol. C6AA /au·bohr⁶  :       4509.639395
 Mol. C8AA /au·bohr⁸  :      99275.483621
 Mol. α(0) /au        :         97.176638

 
 Wiberg/Mayer (AO) data. WBOs > 0.1 written file <wbo>
 largest (>0.05) Wiberg bond orders for each atom
           total WBO             WBO to atom ...
     1  S   4.818    O    4 1.301    O    3 1.286    O    2 1.254    O    5 0.933
     2  O   1.749    S    1 1.254    O    3 0.104    O    4 0.104    H   22 0.103    O    5 0.060    H   15 0.052
     3  O   1.686    S    1 1.286    O    4 0.112    O    2 0.104    O    5 0.078    H    9 0.057
     4  O   1.701    S    1 1.301    O    3 0.112    O    2 0.104    O    5 0.080
     5  O   1.970    S    1 0.933    H    6 0.783    O    4 0.080    O    3 0.078    O    2 0.060
     6  H   0.863    O    5 0.783    O   11 0.062
     7  H   0.901    O   17 0.848
     8  O   2.008    H    9 0.829    H   18 0.809    H   10 0.213    N   20 0.089
     9  H   0.890    O    8 0.829    O    3 0.057
    10  H   0.902    N   20 0.685    O    8 0.213
    11  O   1.884    H   12 0.887    H   13 0.883    H    6 0.062
    12  H   0.906    O   11 0.887
    13  H   0.905    O   11 0.883
    14  O   1.842    H   16 0.913    H   15 0.838
    15  H   0.896    O   14 0.838    O    2 0.052
    16  H   0.917    O   14 0.913
    17  O   1.873    H   19 0.870    H    7 0.848    H   18 0.074
    18  H   0.885    O    8 0.809    O   17 0.074
    19  H   0.905    O   17 0.870
    20  N   3.506    H   21 0.943    H   23 0.922    H   22 0.803    H   10 0.685    O    8 0.089
    21  H   0.947    N   20 0.943
    22  H   0.914    N   20 0.803    O    2 0.103
    23  H   0.934    N   20 0.922
 MOs/occ written to file <molden.input>
 
molecular dipole:
                 x           y           z       tot (Debye)
 q only:       -2.050      -1.570      -0.821
   full:       -1.896      -1.439      -0.065       6.053
molecular quadrupole (traceless):
                xx          xy          yy          xz          yz          zz
 q only:        7.876       5.005      -1.404       6.578      -2.521      -6.472
  q+dip:        8.643       3.523      -1.373       6.470      -5.259      -7.270
   full:        8.244       3.698      -0.783       6.762      -4.895      -7.461

SCC energy    :     -45.6327036
rep           :       0.2557722
ES            :       0.2391718
AES           :      -0.0718643
AXC           :      -0.0084799
disp          :      -0.0176880
XB            :       0.0000000
fix           :       0.0000000
total E       :     -45.3767583
atomizationE  :       4.4598207     2798.58
(atE without considering molecular charge,
 total energy contains solvation terms)
H-L gap (eV)  :          9.4080
optimized geometry written to: xtbopt.xyz


------------------------------------------------------------------------
 * finished run on 2019/09/16 at 11:24:05.681     
------------------------------------------------------------------------
 total:
 * wall-time:     0 d,  0 h,  0 min,  2.550 sec
 *  cpu-time:     0 d,  0 h,  0 min,  2.523 sec
 * ratio c/w:     0.989 speedup
 SCF:
 * wall-time:     0 d,  0 h,  0 min,  0.121 sec
 *  cpu-time:     0 d,  0 h,  0 min,  0.118 sec
 * ratio c/w:     0.972 speedup
 ANC optimizer:
 * wall-time:     0 d,  0 h,  0 min,  2.404 sec
 *  cpu-time:     0 d,  0 h,  0 min,  2.382 sec
 * ratio c/w:     0.991 speedup

