      -----------------------------------------------------------      
     |                   =====================                   |     
     |                           x T B                           |     
     |                   =====================                   |     
     |                         S. Grimme                         |     
     |          Mulliken Center for Theoretical Chemistry        |     
     |                    University of Bonn                     |     
     |                 Version 6.0.1 (SAW181210)                 |     
      -----------------------------------------------------------      

   This program is distributed in the hope that it will be useful,
   but WITHOUT ANY WARRANTY; without even the implied warranty of
   MERCHANTABILITY or FITNESS FOR A PARTICULAR PURPOSE.
   
   FOR NON-COMMERCIAL, ACADEMIA USE ONLY.
   
   Cite this work as:
   S. Grimme, C. Bannwarth, P. Shushkov, J. Comput. Theory Chem., 2017,
   13, 1989-2009.
   C. Bannwarth, S. Ehlert and S. Grimme., ChemRxiv, 2018, preprint.
   http://doi.org/10.26434/chemrxiv.7246238.v1
   
   for sTDA-xTB:
   S. Grimme and C. Bannwarth, J. Chem. Phys., 2016, 145, 054103.
   
   in the mass-spec context:
   V. Asgeirsson, C. Bauer and S. Grimme, Chem. Sci., 2017, 8, 4879.
   
   if GBSA is used:
   P. Shushkov, F. März and S. Grimme, unpublished.
   
   for ANC optimizer:
   S. Grimme, unpublished.
   Rational Function algorithm used in ANCopt:
   F. Eckert, P. Pulay, H.-J. Werner, J. Comput. Chem., 1997, 18, 1473.
   
   with help from (in alphabetical order)
   C. Bannwarth, F. Bohle, G. Brandenburg, E. Caldeweyher, M. Checinski,
   S. Dohm, S. Ehlert, S. Ehrlich, F. März, H. Neugebauer, J. Pisarek,
   P. Pracht, P. Shushkov, and S. Spicher.
   
 * started run on 2019/09/16 at 11:37:47.468     
========================================================================
 # omp threads = 1
========================================================================
number of atoms            : 23
number of electrons        : 72
charge                     : 0
spin                       : .0
first test random number   : .4375

########################################################################
# WARNING! Please study the warnings concerning your input carefully
#  - XTBPATH is not set, using XTBHOME instead
#  - the use of '-opt' is discouraged, please use '--opt' next time
#  - the use of '-chrg' is discouraged, please use '--chrg' next time
#  - the use of '-uhf' is discouraged, please use '--uhf' next time
########################################################################

           ------------------------------------------------- 
          |                 G F N 2 - x T B                 |
          | Geometry, Frequencies, Noncovalent interactions |
          |            JCTC 2018 parametrisation            |
           ------------------------------------------------- 
      method parameters     
 k(s)        :  1.8500
 k(p)        :  2.2300
 k(d)        :  2.2300
 k(f)        :  2.0000
 kEN (H0ij)  : -2.0000
 D4 a1       :  0.5200
 D4 a2       :  5.0000
 D4 s6       :  1.0000
 D4 s8       :  2.7000
 D4 s9       :  5.0000
 alphaj      :  2.0000


            Z     q(EN)     CN     RAES       Cart. coordinates
     1  S   6.0    0.61    4.50    4.57     3.68457     0.45135    -1.09988
     2  O   6.0   -0.30    1.18    1.80     3.71905    -2.21908    -0.20786
     3  O   6.0   -0.33    1.23    1.80     2.27987     2.04123     0.75140
     4  O   6.0   -0.27    2.10    1.84     2.43035     0.58475    -3.57408
     5  O   6.0   -0.25    2.08    1.84     6.29026     1.38372    -1.33143
     6  H   1.0    0.14    1.22    1.47     6.60656     1.87714    -3.04829
     7  H   1.0    0.16    1.27    1.49     0.72808    -0.02415    -3.42371
     8  O   6.0   -0.30    2.04    1.83    -1.95889    -1.68056    -2.44151
     9  H   1.0    0.16    1.02    1.43    -2.76489    -1.42390    -0.82933
    10  H   1.0    0.16    0.99    1.43    -1.51455    -3.44565    -2.48205
    11  O   6.0   -0.27    1.97    1.82    -0.06609    -5.64533     0.23975
    12  H   1.0    0.16    1.01    1.43    -1.12681    -4.69331     1.37251
    13  H   1.0    0.17    1.02    1.43     1.53893    -4.78598     0.24665
    14  O   6.0   -0.31    2.04    1.83    -3.26847    -2.07334     2.48894
    15  H   1.0    0.16    1.05    1.44    -2.40160    -0.72554     3.35300
    16  H   1.0    0.15    0.97    1.43    -4.66876    -2.51354     3.56598
    17  O   6.0   -0.30    2.03    1.83    -0.85749     1.73023     4.67565
    18  H   1.0    0.15    0.97    1.43    -0.16319     2.72371     6.03416
    19  H   1.0    0.17    1.05    1.44     0.31649     1.91371     3.29626
    20  N   5.0   -0.19    2.92    1.92    -1.91270     4.31245    -2.34600
    21  H   1.0    0.10    0.99    1.43    -3.23682     5.57484    -1.74254
    22  H   1.0    0.12    1.01    1.43    -0.78742     3.96564    -0.82136
    23  H   1.0    0.11    0.99    1.43    -2.86648     2.67163    -2.67626

  Z AO/shell   Hii/eV     exponent
  1     Wed Apr 25 08:07:45 CEST 2018   EN: 2.200 GM2: 0.406  GM3: 0.0800  RAES: 1.40
     1s    -10.707211    1.230000
  7     Wed Apr 25 08:07:45 CEST 2018   EN: 3.040 GM2: 0.461  GM3:-0.0640  RAES: 1.90
     2s    -16.686243    2.339881
     2p    -12.523956    2.014332
  8     Wed Apr 25 08:07:45 CEST 2018   EN: 3.440 GM2: 0.452  GM3:-0.0517  RAES: 1.80
     2s    -20.229985    2.439742
     2p    -15.503117    2.137023
 16     Tue Apr 24 11:44:34 CEST 2018   EN: 2.580 GM2: 0.340  GM3:-0.0502  RAES: 3.10
     3s    -20.029654    1.981333
     3p    -11.377694    2.025643
     3d     -0.420282    1.702555
 no old-style atom pair restraining (fixing) potential

molecular fragmentation (1/2 indicates fragments):
11111112222222222222222
# atoms in fragment 1/2:     7    16
 fragment masses (1/2) :       98.07       89.09
CMA distance (Bohr)    :   5.694
constraining FC (au)   :  0.0500
           ------------------------------------------------- 
          |        Self-Consistent Charge Iterations        |
           ------------------------------------------------- 

 Ncao       : 59
 Nao        : 58
 Nshell     : 34
 Nel        : 72
 T(el)      :   300.0
 intcut     :    25.0
 scfconv/Eh :  0.100E-05
   qconv/e  :  0.100E-03
 intneglect :  0.100E-07
 broydamp   :      0.250
 iter      E             dE          RMSdq      gap      omega  full diag
   1    -45.4958828 -0.454959E+02  0.720E+00   10.12       0.0  T
   2    -45.5530250 -0.571422E-01  0.520E+00    8.94       1.0  T
   3    -45.5898684 -0.368434E-01  0.158E+00    6.73       1.0  T
   4    -45.5964625 -0.659414E-02  0.618E-01    7.05       1.0  T
   5    -45.5970271 -0.564638E-03  0.397E-01    6.91       1.0  T
   6    -45.5977543 -0.727143E-03  0.170E-01    6.94       1.0  T
   7    -45.5979212 -0.166973E-03  0.673E-02    6.93       1.0  T
   8    -45.5979447 -0.234336E-04  0.387E-02    6.94       1.0  T
   9    -45.5979529 -0.822532E-05  0.156E-02    6.96       1.3  T
  10    -45.5979544 -0.150095E-05  0.310E-03    6.96       6.7  T
  11    -45.5979544 -0.279763E-07  0.144E-03    6.96      14.5  T
  12    -45.5979544 -0.779060E-08  0.591E-04    6.96      35.3  T
  13    -45.5979544 -0.145167E-08  0.166E-04    6.96     125.2  T
speedup  0.98
cpu  time for SCC    0.01 s
wall time for SCC    0.01 s

   *** convergence criteria satisfied after 13 iterations ***

          eigenvalues
 #    :          24         25         26         27         28         29         30         31
 occ. :        2.000      2.000      2.000      2.000      2.000      2.000      2.000      2.000
 eps  :       -13.260    -13.148    -13.053    -12.977    -12.672    -12.617    -12.253    -12.087
 #    :          32         33         34         35         36         37         38         39
 occ. :        2.000      2.000      2.000      2.000      2.000      0.000      0.000      0.000
 eps  :       -12.039    -12.000    -11.950    -10.872    -10.143     -3.187     -1.972     -0.764
 #    :          40         41         42         43         44         45         46         47
 occ. :        0.000      0.000      0.000      0.000      0.000      0.000      0.000      0.000
 eps  :         0.040      0.632      1.996      2.789      3.442      4.152      4.833      5.623


   #   Z            q   n(s)   n(p)   n(d)      C6AA      α(0)
   1  16 S      1.719  1.571  1.771  0.940    88.347    15.820
   2   8 O     -0.702  1.773  4.929  0.000    28.769     7.191
   3   8 O     -0.720  1.769  4.951  0.000    29.260     7.252
   4   8 O     -0.574  1.715  4.859  0.000    24.540     6.687
   5   8 O     -0.530  1.716  4.814  0.000    23.551     6.551
   6   1 H      0.384  0.616  0.000  0.000     0.506     1.114
   7   1 H      0.428  0.572  0.000  0.000     0.430     1.027
   8   8 O     -0.641  1.746  4.895  0.000    26.195     6.908
   9   1 H      0.330  0.670  0.000  0.000     0.637     1.254
  10   1 H      0.321  0.679  0.000  0.000     0.660     1.276
  11   8 O     -0.628  1.747  4.881  0.000    25.877     6.866
  12   1 H      0.304  0.696  0.000  0.000     0.710     1.323
  13   1 H      0.307  0.693  0.000  0.000     0.701     1.315
  14   8 O     -0.612  1.741  4.871  0.000    25.479     6.813
  15   1 H      0.338  0.662  0.000  0.000     0.616     1.233
  16   1 H      0.287  0.713  0.000  0.000     0.761     1.371
  17   8 O     -0.613  1.734  4.879  0.000    25.508     6.816
  18   1 H      0.287  0.713  0.000  0.000     0.762     1.371
  19   1 H      0.327  0.673  0.000  0.000     0.644     1.260
  20   7 N     -0.462  1.410  4.052  0.000    32.181     8.425
  21   1 H      0.140  0.860  0.000  0.000     1.474     1.902
  22   1 H      0.158  0.842  0.000  0.000     1.345     1.817
  23   1 H      0.154  0.846  0.000  0.000     1.374     1.836

 Mol. C6AA /au·bohr⁶  :       4512.653129
 Mol. C8AA /au·bohr⁸  :      98953.960799
 Mol. α(0) /au        :         97.428759

 
 Wiberg/Mayer (AO) data. WBOs > 0.1 written file <wbo>
 largest (>0.05) Wiberg bond orders for each atom
           total WBO             WBO to atom ...
     1  S   4.809    O    2 1.361    O    3 1.323    O    4 1.052    O    5 1.029
     2  O   1.713    S    1 1.361    O    3 0.136    O    4 0.093    O    5 0.075
     3  O   1.706    S    1 1.323    O    2 0.136    O    4 0.089    O    5 0.073
     4  O   2.032    S    1 1.052    H    7 0.719    O    2 0.093    O    3 0.089
     5  O   2.064    S    1 1.029    H    6 0.827    O    2 0.075    O    3 0.073
     6  H   0.852    O    5 0.827
     7  H   0.817    O    4 0.719    O    8 0.073
     8  O   1.859    H   10 0.866    H    9 0.849    H    7 0.073
     9  H   0.891    O    8 0.849
    10  H   0.897    O    8 0.866
    11  O   1.831    H   12 0.877    H   13 0.875
    12  H   0.908    O   11 0.877
    13  H   0.906    O   11 0.875
    14  O   1.862    H   16 0.910    H   15 0.836
    15  H   0.886    O   14 0.836
    16  H   0.918    O   14 0.910
    17  O   1.838    H   18 0.904    H   19 0.846
    18  H   0.918    O   17 0.904
    19  H   0.893    O   17 0.846
    20  N   2.925    H   21 0.979    H   23 0.969    H   22 0.960
    21  H   0.980    N   20 0.979
    22  H   0.975    N   20 0.960
    23  H   0.976    N   20 0.969
 MOs/occ written to file <molden.input>
 
molecular dipole:
                 x           y           z       tot (Debye)
 q only:        0.525       1.135      -0.452
   full:        0.682       1.479      -0.097       4.148
molecular quadrupole (traceless):
                xx          xy          yy          xz          yz          zz
 q only:        9.400       7.527     -14.944     -12.734       0.081       5.544
  q+dip:       13.572       8.330     -19.177     -16.588       2.251       5.606
   full:       14.008       8.808     -19.683     -16.767       2.562       5.675

SCC energy    :     -45.5979544
rep           :       0.2826346
ES            :       0.2163487
AES           :      -0.0423557
AXC           :      -0.0057887
disp          :      -0.0159096
XB            :       0.0000000
fix           :       0.0000000
total E       :     -45.3150617
atomizationE  :       4.3981242     2759.86
(atE without considering molecular charge,
 total energy contains solvation terms)
H-L gap (eV)  :          6.9567
           ------------------------------------------------- 
          |                 ===============                 |
          |                   A N C O P T                   |
          |                 ===============                 |
          |          Approximate Normal Coordinate          |
          |           Rational Function Optimizer           |
           ------------------------------------------------- 
dumping coords to <xtbopt.coord> and <xtbopt.log>
 optlevel               2
 Maxcycle             460
 Maxmicro              25
 Econv         1.000000000000000E-007
 Gconv         2.000000000000000E-004
 Maxdispl       1.00000000000000     
 Hlow          5.000000000000000E-003
 S6             20.0000000000000     
 Nvar               63

generating ANC from model Hessian ...
 Shifting diagonal of input Hessian by   4.900746487739165E-003
 Lowest  eigenvalues of input Hessian
   -0.000000   -0.000000   -0.000000   -0.000000    0.000000    0.000000
    0.005000    0.005093    0.005230    0.005573    0.006178    0.006224
    0.006585    0.006792    0.007393    0.007699    0.008100    0.008658
 Highest eigenvalues
    1.431770    1.445102    1.552105    3.215754    3.413454    3.464830
 
cpu  time for ANC gen    0.01 s
wall time for ANC gen    0.01 s
................................................................................
.............................. CYCLE    1 ......................................
................................................................................
   1    -45.5979544 -0.455980E+02  0.612E-05    6.96       0.0  T
   2    -45.5979544 -0.792255E-11  0.478E-05    6.96     436.6  T
   3    -45.5979544 -0.557066E-11  0.283E-05    6.96     737.7  T
speedup  1.15
cpu  time for SCC    0.00 s
wall time for SCC    0.00 s
speedup  1.04
cpu  time for grad    0.01 s
wall time for grad    0.01 s
 E :    -45.31506170  G :  0.202463    pred/act E change:  0.000D+00  0.235D-07
Maxdispl :   0.1008   ||displ|| :   0.2886   Lambda : -0.167D-01
Largest |displ|/coords:  0.1008 (  25)  0.0946 (  24)  0.0942 (  22)
................................................................................
.............................. CYCLE    2 ......................................
................................................................................
   1    -45.6043340 -0.456043E+02  0.323E-01    6.90       0.0  T
   2    -45.6045299 -0.195828E-03  0.251E-01    6.89       1.0  T
   3    -45.6045932 -0.633369E-04  0.123E-01    6.87       1.0  T
   4    -45.6046032 -0.100389E-04  0.264E-02    6.87       1.0  T
   5    -45.6046043 -0.107754E-05  0.535E-03    6.87       3.9  T
   6    -45.6046043 -0.269642E-07  0.297E-03    6.87       7.0  T
speedup  0.83
cpu  time for SCC    0.00 s
wall time for SCC    0.00 s
speedup  0.88
cpu  time for grad    0.01 s
wall time for grad    0.01 s
 E :    -45.32838909  G :  0.133378    pred/act E change:  0.000D+00 -0.133D-01
Maxdispl :   0.0994   ||displ|| :   0.2528   Lambda : -0.116D-01
Largest |displ|/coords:  0.0994 (  15)  0.0863 (  21)  0.0814 (  26)
................................................................................
.............................. CYCLE    3 ......................................
................................................................................
   1    -45.6141892 -0.456142E+02  0.262E-01    6.83       0.0  T
   2    -45.6144577 -0.268521E-03  0.210E-01    6.83       1.0  T
   3    -45.6145279 -0.702004E-04  0.146E-01    6.84       1.0  T
   4    -45.6145333 -0.536991E-05  0.259E-02    6.85       1.0  T
   5    -45.6145340 -0.645438E-06  0.523E-03    6.85       4.0  T
   6    -45.6145340 -0.275589E-07  0.218E-03    6.85       9.6  T
speedup  1.04
cpu  time for SCC    0.00 s
wall time for SCC    0.00 s
speedup  0.95
cpu  time for grad    0.01 s
wall time for grad    0.01 s
 E :    -45.33700034  G :  0.062576    pred/act E change: -0.903D-02 -0.861D-02
Maxdispl :   0.1155   ||displ|| :   0.2875   Lambda : -0.451D-02
Largest |displ|/coords:  0.1155 (  15)  0.1041 (  21)  0.0837 (  10)
................................................................................
.............................. CYCLE    4 ......................................
................................................................................
   1    -45.6147553 -0.456148E+02  0.269E-01    6.65       0.0  T
   2    -45.6148895 -0.134145E-03  0.209E-01    6.65       1.0  T
   3    -45.6149286 -0.391599E-04  0.992E-02    6.66       1.0  T
   4    -45.6149359 -0.722254E-05  0.213E-02    6.67       1.0  T
   5    -45.6149364 -0.505182E-06  0.441E-03    6.66       4.7  T
   6    -45.6149364 -0.173909E-07  0.225E-03    6.66       9.3  T
speedup  1.06
cpu  time for SCC    0.00 s
wall time for SCC    0.00 s
speedup  1.06
cpu  time for grad    0.01 s
wall time for grad    0.01 s
 E :    -45.34016836  G :  0.024023    pred/act E change: -0.616D-02 -0.317D-02
Maxdispl :   0.1638   ||displ|| :   0.3729   Lambda : -0.239D-02
Largest |displ|/coords:  0.1638 (  15)  0.1302 (   6)  0.1119 (  21)
................................................................................
.............................. CYCLE    5 ......................................
................................................................................
   1    -45.6121273 -0.456121E+02  0.335E-01    6.41       0.0  T
   2    -45.6122203 -0.929896E-04  0.254E-01    6.41       1.0  T
   3    -45.6122440 -0.236430E-04  0.726E-02    6.43       1.0  T
   4    -45.6122567 -0.127201E-04  0.211E-02    6.43       1.0  T
   5    -45.6122572 -0.462318E-06  0.381E-03    6.43       5.5  T
   6    -45.6122572 -0.126356E-07  0.216E-03    6.43       9.6  T
speedup  0.83
cpu  time for SCC    0.00 s
wall time for SCC    0.00 s
speedup  0.97
cpu  time for grad    0.01 s
wall time for grad    0.01 s
 E :    -45.34153618  G :  0.020710    pred/act E change: -0.244D-02 -0.137D-02
Maxdispl :   0.1357   ||displ|| :   0.3541   Lambda : -0.143D-02
Largest |displ|/coords:  0.1357 (  12)  0.1241 (  15)  0.1231 (   8)
................................................................................
.............................. CYCLE    6 ......................................
................................................................................
   1    -45.6061467 -0.456061E+02  0.341E-01    6.14       0.0  T
   2    -45.6061811 -0.344085E-04  0.256E-01    6.14       1.0  T
   3    -45.6062075 -0.263515E-04  0.373E-02    6.14       1.0  T
   4    -45.6062118 -0.427031E-05  0.163E-02    6.14       1.3  T
   5    -45.6062120 -0.248869E-06  0.378E-03    6.14       5.5  T
   6    -45.6062120 -0.175309E-07  0.236E-03    6.14       8.8  T
speedup  1.02
cpu  time for SCC    0.00 s
wall time for SCC    0.00 s
speedup  0.96
cpu  time for grad    0.01 s
wall time for grad    0.01 s
 E :    -45.34188529  G :  0.031107    pred/act E change: -0.136D-02 -0.349D-03
Maxdispl :   0.0858   ||displ|| :   0.1467   Lambda : -0.114D-02
Largest |displ|/coords:  0.0858 (   1)  0.0556 (  14)  0.0348 (  24)
................................................................................
.............................. CYCLE    7 ......................................
................................................................................
   1    -45.6106183 -0.456106E+02  0.180E-01    6.21       0.0  T
   2    -45.6106301 -0.118043E-04  0.136E-01    6.20       1.0  T
   3    -45.6106382 -0.812709E-05  0.216E-02    6.20       1.0  T
   4    -45.6106399 -0.166759E-05  0.726E-03    6.20       2.9  T
   5    -45.6106400 -0.939201E-07  0.222E-03    6.20       9.4  T
   6    -45.6106400 -0.247984E-08  0.118E-03    6.20      17.7  T
speedup  1.04
cpu  time for SCC    0.00 s
wall time for SCC    0.00 s
speedup  1.04
cpu  time for grad    0.01 s
wall time for grad    0.01 s
 E :    -45.34254818  G :  0.017163    pred/act E change: -0.802D-03 -0.663D-03
Maxdispl :   0.1041   ||displ|| :   0.2446   Lambda : -0.895D-03
Largest |displ|/coords:  0.1041 (   8)  0.0890 (   2)  0.0819 (   6)
................................................................................
.............................. CYCLE    8 ......................................
................................................................................
   1    -45.6111310 -0.456111E+02  0.249E-01    6.33       0.0  T
   2    -45.6111469 -0.158274E-04  0.186E-01    6.34       1.0  T
   3    -45.6111583 -0.113937E-04  0.258E-02    6.36       1.0  T
   4    -45.6111602 -0.193705E-05  0.992E-03    6.35       2.1  T
   5    -45.6111603 -0.959363E-07  0.272E-03    6.35       7.7  T
   6    -45.6111603 -0.540244E-08  0.147E-03    6.35      14.2  T
speedup  1.04
cpu  time for SCC    0.01 s
wall time for SCC    0.00 s
speedup  1.05
cpu  time for grad    0.01 s
wall time for grad    0.01 s
 E :    -45.34283020  G :  0.019052    pred/act E change: -0.584D-03 -0.282D-03
Maxdispl :   0.1177   ||displ|| :   0.2311   Lambda : -0.871D-03
Largest |displ|/coords:  0.1177 (  15)  0.0819 (   6)  0.0697 (   4)
................................................................................
.............................. CYCLE    9 ......................................
................................................................................
   1    -45.6134378 -0.456134E+02  0.217E-01    6.43       0.0  T
   2    -45.6134540 -0.162685E-04  0.162E-01    6.43       1.0  T
   3    -45.6134658 -0.117638E-04  0.263E-02    6.44       1.0  T
   4    -45.6134678 -0.199470E-05  0.883E-03    6.44       2.4  T
   5    -45.6134679 -0.780891E-07  0.289E-03    6.44       7.2  T
   6    -45.6134679 -0.775908E-08  0.150E-03    6.44      13.9  T
speedup  1.04
cpu  time for SCC    0.00 s
wall time for SCC    0.00 s
speedup  0.96
cpu  time for grad    0.01 s
wall time for grad    0.01 s
 E :    -45.34315225  G :  0.014291    pred/act E change: -0.474D-03 -0.322D-03
Maxdispl :   0.0998   ||displ|| :   0.2604   Lambda : -0.949D-03
Largest |displ|/coords:  0.0998 (  12)  0.0807 (   5)  0.0806 (  20)
................................................................................
.............................. CYCLE   10 ......................................
................................................................................
   1    -45.6121764 -0.456122E+02  0.257E-01    6.41       0.0  T
   2    -45.6122028 -0.263880E-04  0.193E-01    6.41       1.0  T
   3    -45.6122182 -0.153452E-04  0.334E-02    6.39       1.0  T
   4    -45.6122221 -0.391039E-05  0.808E-03    6.40       2.6  T
   5    -45.6122222 -0.118320E-06  0.317E-03    6.40       6.6  T
   6    -45.6122222 -0.829758E-08  0.177E-03    6.40      11.8  T
   7    -45.6122222 -0.465886E-08  0.469E-04    6.40      44.4  T
speedup  1.07
cpu  time for SCC    0.01 s
wall time for SCC    0.01 s
speedup  0.99
cpu  time for grad    0.01 s
wall time for grad    0.01 s
 E :    -45.34336465  G :  0.016030    pred/act E change: -0.459D-03 -0.212D-03
Maxdispl :   0.0950   ||displ|| :   0.1797   Lambda : -0.752D-03
Largest |displ|/coords:  0.0950 (   6)  0.0821 (  10)  0.0587 (   8)
................................................................................
.............................. CYCLE   11 ......................................
................................................................................
   1    -45.6105720 -0.456106E+02  0.210E-01    6.39       0.0  T
   2    -45.6105916 -0.196010E-04  0.153E-01    6.41       1.0  T
   3    -45.6106003 -0.874814E-05  0.262E-02    6.45       1.0  T
   4    -45.6106029 -0.262218E-05  0.716E-03    6.44       2.9  T
   5    -45.6106030 -0.522045E-07  0.265E-03    6.43       7.9  T
   6    -45.6106030 -0.380429E-08  0.125E-03    6.43      16.7  T
speedup  1.02
cpu  time for SCC    0.00 s
wall time for SCC    0.00 s
speedup  1.03
cpu  time for grad    0.01 s
wall time for grad    0.01 s
 E :    -45.34356857  G :  0.014803    pred/act E change: -0.507D-03 -0.204D-03
Maxdispl :   0.1266   ||displ|| :   0.2468   Lambda : -0.891D-03
Largest |displ|/coords:  0.1266 (   2)  0.1062 (   9)  0.0920 (  10)
................................................................................
.............................. CYCLE   12 ......................................
................................................................................
   1    -45.6171441 -0.456171E+02  0.259E-01    6.59       0.0  T
   2    -45.6171840 -0.399069E-04  0.189E-01    6.56       1.0  T
   3    -45.6172007 -0.166493E-04  0.375E-02    6.50       1.0  T
   4    -45.6172061 -0.544391E-05  0.868E-03    6.53       2.4  T
   5    -45.6172062 -0.960400E-07  0.390E-03    6.53       5.4  T
   6    -45.6172062 -0.805041E-08  0.164E-03    6.53      12.7  T
   7    -45.6172062 -0.546056E-08  0.463E-04    6.53      45.0  T
speedup  1.07
cpu  time for SCC    0.01 s
wall time for SCC    0.01 s
speedup  0.99
cpu  time for grad    0.01 s
wall time for grad    0.01 s
 E :    -45.34303183  G :  0.034856    pred/act E change: -0.388D-03  0.537D-03
Maxdispl :   0.0904   ||displ|| :   0.1594   Lambda : -0.175D-02
Largest |displ|/coords:  0.0904 (   6)  0.0570 (  10)  0.0471 (  16)
................................................................................
.............................. CYCLE   13 ......................................
................................................................................
   1    -45.6116086 -0.456116E+02  0.223E-01    6.48       0.0  T
   2    -45.6116394 -0.308139E-04  0.164E-01    6.50       1.0  T
   3    -45.6116538 -0.144350E-04  0.330E-02    6.52       1.0  T
   4    -45.6116579 -0.410775E-05  0.933E-03    6.51       2.2  T
   5    -45.6116581 -0.148742E-06  0.319E-03    6.51       6.5  T
   6    -45.6116581 -0.713673E-08  0.165E-03    6.51      12.6  T
speedup  1.00
cpu  time for SCC    0.00 s
wall time for SCC    0.01 s
speedup  1.04
cpu  time for grad    0.01 s
wall time for grad    0.01 s
 E :    -45.34383954  G :  0.009754    pred/act E change: -0.473D-03 -0.808D-03
Maxdispl :   0.0841   ||displ|| :   0.1757   Lambda : -0.478D-03
Largest |displ|/coords:  0.0841 (   2)  0.0694 (   3)  0.0605 (  10)
................................................................................
.............................. CYCLE   14 ......................................
................................................................................
   1    -45.6160277 -0.456160E+02  0.156E-01    6.50       0.0  T
   2    -45.6160332 -0.544096E-05  0.117E-01    6.50       1.0  T
   3    -45.6160377 -0.457481E-05  0.141E-02    6.50       1.5  T
   4    -45.6160384 -0.631318E-06  0.557E-03    6.50       3.7  T
   5    -45.6160384 -0.334053E-07  0.180E-03    6.50      11.6  T
   6    -45.6160384 -0.356188E-08  0.954E-04    6.50      21.9  T
speedup  0.85
cpu  time for SCC    0.00 s
wall time for SCC    0.00 s
speedup  0.97
cpu  time for grad    0.01 s
wall time for grad    0.01 s
 E :    -45.34381057  G :  0.013010    pred/act E change: -0.896D-03  0.290D-04
Maxdispl :   0.1077   ||displ|| :   0.1973   Lambda : -0.509D-03
Largest |displ|/coords:  0.1077 (   6)  0.0699 (   2)  0.0618 (  16)
................................................................................
.............................. CYCLE   15 ......................................
................................................................................
   1    -45.6093978 -0.456094E+02  0.203E-01    6.47       0.0  T
   2    -45.6094080 -0.102379E-04  0.150E-01    6.47       1.0  T
   3    -45.6094155 -0.753231E-05  0.194E-02    6.49       1.1  T
   4    -45.6094167 -0.115706E-05  0.665E-03    6.48       3.1  T
   5    -45.6094167 -0.446866E-07  0.251E-03    6.48       8.3  T
   6    -45.6094168 -0.621770E-08  0.122E-03    6.48      17.1  T
speedup  1.04
cpu  time for SCC    0.00 s
wall time for SCC    0.00 s
speedup  0.96
cpu  time for grad    0.01 s
wall time for grad    0.01 s
 E :    -45.34401476  G :  0.013621    pred/act E change: -0.246D-03 -0.204D-03
Maxdispl :   0.1026   ||displ|| :   0.2041   Lambda : -0.537D-03
Largest |displ|/coords:  0.1026 (   2)  0.0800 (  12)  0.0775 (   9)
................................................................................
.............................. CYCLE   16 ......................................
................................................................................
   1    -45.6116345 -0.456116E+02  0.183E-01    6.53       0.0  T
   2    -45.6116436 -0.913674E-05  0.137E-01    6.52       1.0  T
   3    -45.6116495 -0.589983E-05  0.183E-02    6.51       1.1  T
   4    -45.6116509 -0.135078E-05  0.586E-03    6.51       3.6  T
   5    -45.6116509 -0.477882E-07  0.233E-03    6.51       9.0  T
   6    -45.6116509 -0.351533E-08  0.117E-03    6.51      17.8  T
speedup  1.02
cpu  time for SCC    0.00 s
wall time for SCC    0.00 s
speedup  0.96
cpu  time for grad    0.01 s
wall time for grad    0.01 s
 E :    -45.34383721  G :  0.023787    pred/act E change: -0.264D-03  0.178D-03
Maxdispl :   0.0577   ||displ|| :   0.1357   Lambda : -0.842D-03
Largest |displ|/coords:  0.0577 (   8)  0.0529 (   2)  0.0452 (  12)
................................................................................
.............................. CYCLE   17 ......................................
................................................................................
   1    -45.6140560 -0.456141E+02  0.143E-01    6.55       0.0  T
   2    -45.6140659 -0.985426E-05  0.107E-01    6.55       1.0  T
   3    -45.6140721 -0.624157E-05  0.189E-02    6.53       1.1  T
   4    -45.6140734 -0.131382E-05  0.507E-03    6.54       4.1  T
   5    -45.6140734 -0.332388E-07  0.230E-03    6.54       9.1  T
speedup  1.00
cpu  time for SCC    0.00 s
wall time for SCC    0.00 s
speedup  1.04
cpu  time for grad    0.01 s
wall time for grad    0.01 s
 E :    -45.34419223  G :  0.007973    pred/act E change: -0.280D-03 -0.355D-03
Maxdispl :   0.1108   ||displ|| :   0.2133   Lambda : -0.426D-03
Largest |displ|/coords:  0.1108 (   5)  0.0986 (   6)  0.0758 (   3)
................................................................................
.............................. CYCLE   18 ......................................
................................................................................
   1    -45.6112469 -0.456112E+02  0.211E-01    6.47       0.0  T
   2    -45.6112620 -0.150109E-04  0.155E-01    6.49       1.0  T
   3    -45.6112704 -0.848147E-05  0.233E-02    6.52       1.0  T
   4    -45.6112725 -0.207824E-05  0.763E-03    6.51       2.7  T
   5    -45.6112726 -0.511490E-07  0.285E-03    6.51       7.3  T
   6    -45.6112726 -0.892845E-08  0.131E-03    6.51      15.9  T
speedup  1.06
cpu  time for SCC    0.01 s
wall time for SCC    0.00 s
speedup  0.97
cpu  time for grad    0.01 s
wall time for grad    0.01 s
 E :    -45.34420310  G :  0.012240    pred/act E change: -0.429D-03 -0.109D-04
Maxdispl :   0.0943   ||displ|| :   0.1653   Lambda : -0.427D-03
Largest |displ|/coords:  0.0943 (   4)  0.0505 (  16)  0.0499 (   2)
................................................................................
.............................. CYCLE   19 ......................................
................................................................................
   1    -45.6090988 -0.456091E+02  0.136E-01    6.51       0.0  T
   2    -45.6091029 -0.407334E-05  0.101E-01    6.51       1.0  T
   3    -45.6091059 -0.295808E-05  0.117E-02    6.50       1.8  T
   4    -45.6091063 -0.474970E-06  0.447E-03    6.50       4.7  T
   5    -45.6091063 -0.224221E-07  0.159E-03    6.50      13.1  T
   6    -45.6091064 -0.308135E-08  0.759E-04    6.50      27.5  T
speedup  1.04
cpu  time for SCC    0.00 s
wall time for SCC    0.00 s
speedup  1.05
cpu  time for grad    0.01 s
wall time for grad    0.01 s
 E :    -45.34432857  G :  0.015512    pred/act E change: -0.223D-03 -0.125D-03
Maxdispl :   0.0601   ||displ|| :   0.1669   Lambda : -0.558D-03
Largest |displ|/coords:  0.0601 (  10)  0.0539 (   9)  0.0537 (  14)
................................................................................
.............................. CYCLE   20 ......................................
................................................................................
   1    -45.6147342 -0.456147E+02  0.157E-01    6.60       0.0  T
   2    -45.6147460 -0.118625E-04  0.116E-01    6.58       1.0  T
   3    -45.6147518 -0.580167E-05  0.210E-02    6.54       1.0  T
   4    -45.6147534 -0.159545E-05  0.568E-03    6.56       3.7  T
   5    -45.6147535 -0.395081E-07  0.217E-03    6.56       9.6  T
   6    -45.6147535 -0.294352E-08  0.970E-04    6.56      21.5  T
speedup  1.04
cpu  time for SCC    0.00 s
wall time for SCC    0.00 s
speedup  1.05
cpu  time for grad    0.01 s
wall time for grad    0.01 s
 E :    -45.34435505  G :  0.012481    pred/act E change: -0.219D-03 -0.265D-04
Maxdispl :   0.0636   ||displ|| :   0.1459   Lambda : -0.416D-03
Largest |displ|/coords:  0.0636 (   6)  0.0533 (   3)  0.0486 (   5)
................................................................................
.............................. CYCLE   21 ......................................
................................................................................
   1    -45.6122639 -0.456123E+02  0.134E-01    6.52       0.0  T
   2    -45.6122709 -0.704984E-05  0.991E-02    6.53       1.0  T
   3    -45.6122749 -0.391417E-05  0.159E-02    6.56       1.3  T
   4    -45.6122758 -0.994258E-06  0.486E-03    6.55       4.3  T
   5    -45.6122759 -0.228105E-07  0.186E-03    6.55      11.2  T
   6    -45.6122759 -0.413166E-08  0.869E-04    6.55      24.0  T
speedup  1.06
cpu  time for SCC    0.01 s
wall time for SCC    0.00 s
speedup  0.97
cpu  time for grad    0.01 s
wall time for grad    0.01 s
 E :    -45.34461802  G :  0.005185    pred/act E change: -0.287D-03 -0.263D-03
Maxdispl :   0.1072   ||displ|| :   0.2474   Lambda : -0.188D-03
Largest |displ|/coords:  0.1072 (   3)  0.0922 (   4)  0.0845 (  16)
................................................................................
.............................. CYCLE   22 ......................................
................................................................................
   1    -45.6095584 -0.456096E+02  0.160E-01    6.52       0.0  T
   2    -45.6095653 -0.692711E-05  0.119E-01    6.53       1.0  T
   3    -45.6095703 -0.497269E-05  0.159E-02    6.54       1.3  T
   4    -45.6095712 -0.911118E-06  0.615E-03    6.54       3.4  T
   5    -45.6095712 -0.485188E-07  0.205E-03    6.54      10.2  T
   6    -45.6095712 -0.551712E-08  0.111E-03    6.54      18.8  T
speedup  1.02
cpu  time for SCC    0.00 s
wall time for SCC    0.00 s
speedup  1.04
cpu  time for grad    0.01 s
wall time for grad    0.01 s
 E :    -45.34475791  G :  0.008065    pred/act E change: -0.212D-03 -0.140D-03
Maxdispl :   0.1760   ||displ|| :   0.3760   Lambda : -0.282D-03
Largest |displ|/coords:  0.1760 (   3)  0.1470 (  16)  0.1255 (   4)
................................................................................
.............................. CYCLE   23 ......................................
................................................................................
   1    -45.6086604 -0.456087E+02  0.212E-01    6.55       0.0  T
   2    -45.6086709 -0.104332E-04  0.159E-01    6.56       1.0  T
   3    -45.6086806 -0.968856E-05  0.187E-02    6.57       1.1  T
   4    -45.6086817 -0.113374E-05  0.791E-03    6.57       2.6  T
   5    -45.6086818 -0.701044E-07  0.271E-03    6.57       7.7  T
   6    -45.6086818 -0.102029E-07  0.144E-03    6.57      14.5  T
speedup  1.06
cpu  time for SCC    0.00 s
wall time for SCC    0.00 s
speedup  1.06
cpu  time for grad    0.01 s
wall time for grad    0.01 s
 E :    -45.34495414  G :  0.011463    pred/act E change: -0.100D-03 -0.196D-03
Maxdispl :   0.1769   ||displ|| :   0.4273   Lambda : -0.354D-03
Largest |displ|/coords:  0.1769 (   3)  0.1678 (  16)  0.1625 (   4)
................................................................................
.............................. CYCLE   24 ......................................
................................................................................
   1    -45.6064409 -0.456064E+02  0.241E-01    6.54       0.0  T
   2    -45.6064582 -0.173456E-04  0.180E-01    6.55       1.0  T
   3    -45.6064709 -0.126254E-04  0.253E-02    6.56       1.0  T
   4    -45.6064733 -0.244873E-05  0.108E-02    6.56       1.9  T
   5    -45.6064735 -0.156970E-06  0.333E-03    6.56       6.3  T
   6    -45.6064735 -0.129630E-07  0.196E-03    6.56      10.6  T
   7    -45.6064735 -0.840246E-08  0.464E-04    6.56      44.9  T
speedup  0.93
cpu  time for SCC    0.00 s
wall time for SCC    0.01 s
speedup  1.01
cpu  time for grad    0.01 s
wall time for grad    0.01 s
 E :    -45.34520569  G :  0.010697    pred/act E change: -0.161D-03 -0.252D-03
Maxdispl :   0.1667   ||displ|| :   0.3935   Lambda : -0.469D-03
Largest |displ|/coords:  0.1667 (  16)  0.1501 (   3)  0.1215 (   4)
................................................................................
.............................. CYCLE   25 ......................................
................................................................................
   1    -45.6093153 -0.456093E+02  0.216E-01    6.64       0.0  T
   2    -45.6093278 -0.124989E-04  0.161E-01    6.64       1.0  T
   3    -45.6093376 -0.982749E-05  0.240E-02    6.63       1.0  T
   4    -45.6093392 -0.158097E-05  0.931E-03    6.64       2.2  T
   5    -45.6093393 -0.901695E-07  0.284E-03    6.64       7.3  T
   6    -45.6093393 -0.938826E-08  0.173E-03    6.64      12.0  T
speedup  1.06
cpu  time for SCC    0.00 s
wall time for SCC    0.00 s
speedup  1.06
cpu  time for grad    0.01 s
wall time for grad    0.01 s
 E :    -45.34550156  G :  0.008623    pred/act E change: -0.209D-03 -0.296D-03
Maxdispl :   0.2277   ||displ|| :   0.5777   Lambda : -0.441D-03
Largest |displ|/coords:  0.2277 (  16)  0.2137 (   3)  0.2017 (   4)

generating ANC from model Hessian ...
 Shifting diagonal of input Hessian by   5.011719304198583E-003
 Lowest  eigenvalues of input Hessian
    0.005000   -0.000000    0.000000    0.000000    0.000000    0.000000
    0.000000    0.005185    0.005385    0.005677    0.006024    0.006262
    0.006472    0.006715    0.006995    0.007282    0.008165    0.008897
 Highest eigenvalues
    1.381007    1.390518    1.397143    2.644102    3.382857    3.737901
 
cpu  time for ANC gen    0.01 s
wall time for ANC gen    0.01 s
................................................................................
.............................. CYCLE   26 ......................................
................................................................................
   1    -45.6014914 -0.456015E+02  0.355E-01    6.69       0.0  T
   2    -45.6015299 -0.385248E-04  0.265E-01    6.71       1.0  T
   3    -45.6015560 -0.261406E-04  0.369E-02    6.75       1.0  T
   4    -45.6015615 -0.549045E-05  0.144E-02    6.74       1.4  T
   5    -45.6015618 -0.269934E-06  0.490E-03    6.74       4.3  T
   6    -45.6015618 -0.284482E-07  0.285E-03    6.74       7.3  T
   7    -45.6015618 -0.161849E-07  0.692E-04    6.74      30.1  T
   8    -45.6015618 -0.113305E-08  0.263E-04    6.74      79.3  T
speedup  0.98
cpu  time for SCC    0.01 s
wall time for SCC    0.01 s
speedup  0.98
cpu  time for grad    0.01 s
wall time for grad    0.01 s
 E :    -45.34561538  G :  0.021889    pred/act E change:  0.000D+00 -0.114D-03
Maxdispl :   0.0504   ||displ|| :   0.1346   Lambda : -0.729D-03
Largest |displ|/coords:  0.0504 (   4)  0.0491 (   7)  0.0489 (  11)
................................................................................
.............................. CYCLE   27 ......................................
................................................................................
   1    -45.6066102 -0.456066E+02  0.111E-01    6.74       0.0  T
   2    -45.6066131 -0.290146E-05  0.829E-02    6.73       1.0  T
   3    -45.6066153 -0.219748E-05  0.108E-02    6.72       1.9  T
   4    -45.6066157 -0.392382E-06  0.384E-03    6.73       5.4  T
   5    -45.6066157 -0.159389E-07  0.132E-03    6.73      15.8  T
speedup  1.03
cpu  time for SCC    0.00 s
wall time for SCC    0.00 s
speedup  0.95
cpu  time for grad    0.01 s
wall time for grad    0.01 s
 E :    -45.34610967  G :  0.008276    pred/act E change:  0.000D+00 -0.494D-03
Maxdispl :   0.1081   ||displ|| :   0.1930   Lambda : -0.418D-03
Largest |displ|/coords:  0.1081 (   7)  0.0786 (   9)  0.0621 (   8)
................................................................................
.............................. CYCLE   28 ......................................
................................................................................
   1    -45.6099563 -0.456100E+02  0.143E-01    6.73       0.0  T
   2    -45.6099594 -0.312704E-05  0.107E-01    6.73       1.0  T
   3    -45.6099620 -0.258957E-05  0.118E-02    6.72       1.8  T
   4    -45.6099624 -0.388384E-06  0.440E-03    6.73       4.7  T
   5    -45.6099624 -0.181704E-07  0.143E-03    6.73      14.5  T
   6    -45.6099624 -0.190896E-08  0.740E-04    6.73      28.2  T
speedup  1.02
cpu  time for SCC    0.00 s
wall time for SCC    0.00 s
speedup  1.04
cpu  time for grad    0.01 s
wall time for grad    0.01 s
 E :    -45.34639840  G :  0.006006    pred/act E change: -0.371D-03 -0.289D-03
Maxdispl :   0.1911   ||displ|| :   0.2954   Lambda : -0.381D-03
Largest |displ|/coords:  0.1911 (   7)  0.0791 (   9)  0.0757 (   4)
................................................................................
.............................. CYCLE   29 ......................................
................................................................................
   1    -45.6097580 -0.456098E+02  0.204E-01    6.71       0.0  T
   2    -45.6097620 -0.398635E-05  0.153E-01    6.71       1.0  T
   3    -45.6097654 -0.341487E-05  0.141E-02    6.71       1.5  T
   4    -45.6097659 -0.451566E-06  0.522E-03    6.71       4.0  T
   5    -45.6097659 -0.234684E-07  0.169E-03    6.71      12.3  T
   6    -45.6097659 -0.198846E-08  0.885E-04    6.71      23.6  T
speedup  0.85
cpu  time for SCC    0.00 s
wall time for SCC    0.00 s
speedup  0.97
cpu  time for grad    0.01 s
wall time for grad    0.01 s
 E :    -45.34670029  G :  0.008295    pred/act E change: -0.217D-03 -0.302D-03
Maxdispl :   0.3531   ||displ|| :   0.4989   Lambda : -0.539D-03
Largest |displ|/coords:  0.3531 (   7)  0.1474 (   2)  0.1094 (   4)
................................................................................
.............................. CYCLE   30 ......................................
................................................................................
   1    -45.6063598 -0.456064E+02  0.320E-01    6.69       0.0  T
   2    -45.6063696 -0.978135E-05  0.239E-01    6.69       1.0  T
   3    -45.6063798 -0.101826E-04  0.231E-02    6.69       1.0  T
   4    -45.6063805 -0.724264E-06  0.678E-03    6.69       3.1  T
   5    -45.6063805 -0.398520E-07  0.306E-03    6.69       6.8  T
   6    -45.6063805 -0.928694E-08  0.134E-03    6.69      15.6  T
   7    -45.6063805 -0.259501E-08  0.351E-04    6.69      59.3  T
speedup  0.93
cpu  time for SCC    0.00 s
wall time for SCC    0.01 s
speedup  1.00
cpu  time for grad    0.01 s
wall time for grad    0.01 s
 E :    -45.34703788  G :  0.012848    pred/act E change: -0.207D-03 -0.338D-03
Maxdispl :   0.1776   ||displ|| :   0.2868   Lambda : -0.443D-03
Largest |displ|/coords:  0.1776 (   7)  0.1077 (   4)  0.0910 (   2)
................................................................................
.............................. CYCLE   31 ......................................
................................................................................
   1    -45.6075251 -0.456075E+02  0.165E-01    6.69       0.0  T
   2    -45.6075305 -0.533919E-05  0.123E-01    6.69       1.0  T
   3    -45.6075361 -0.565757E-05  0.167E-02    6.69       1.2  T
   4    -45.6075365 -0.393483E-06  0.359E-03    6.69       5.8  T
   5    -45.6075365 -0.172486E-07  0.206E-03    6.69      10.1  T
   6    -45.6075365 -0.619813E-08  0.861E-04    6.69      24.2  T
speedup  1.06
cpu  time for SCC    0.00 s
wall time for SCC    0.00 s
speedup  1.06
cpu  time for grad    0.01 s
wall time for grad    0.01 s
 E :    -45.34728955  G :  0.011475    pred/act E change: -0.337D-03 -0.252D-03
Maxdispl :   0.2093   ||displ|| :   0.3069   Lambda : -0.479D-03
Largest |displ|/coords:  0.2093 (   7)  0.1304 (   2)  0.0615 (   9)
................................................................................
.............................. CYCLE   32 ......................................
................................................................................
   1    -45.6087516 -0.456088E+02  0.154E-01    6.70       0.0  T
   2    -45.6087555 -0.395032E-05  0.115E-01    6.70       1.0  T
   3    -45.6087596 -0.405329E-05  0.152E-02    6.71       1.4  T
   4    -45.6087598 -0.272433E-06  0.382E-03    6.71       5.5  T
   5    -45.6087599 -0.219374E-07  0.151E-03    6.71      13.8  T
   6    -45.6087599 -0.227951E-08  0.892E-04    6.71      23.4  T
speedup  0.85
cpu  time for SCC    0.00 s
wall time for SCC    0.00 s
speedup  0.97
cpu  time for grad    0.01 s
wall time for grad    0.01 s
 E :    -45.34762139  G :  0.012257    pred/act E change: -0.240D-03 -0.332D-03
Maxdispl :   0.2877   ||displ|| :   0.4667   Lambda : -0.707D-03
Largest |displ|/coords:  0.2877 (   7)  0.2162 (   2)  0.1456 (   4)
................................................................................
.............................. CYCLE   33 ......................................
................................................................................
   1    -45.6066218 -0.456066E+02  0.223E-01    6.68       0.0  T
   2    -45.6066342 -0.123717E-04  0.166E-01    6.69       1.0  T
   3    -45.6066442 -0.100201E-04  0.237E-02    6.73       1.0  T
   4    -45.6066457 -0.149911E-05  0.725E-03    6.72       2.9  T
   5    -45.6066458 -0.679773E-07  0.283E-03    6.72       7.4  T
   6    -45.6066458 -0.109511E-07  0.164E-03    6.72      12.7  T
speedup  1.00
cpu  time for SCC    0.00 s
wall time for SCC    0.01 s
speedup  0.94
cpu  time for grad    0.01 s
wall time for grad    0.01 s
 E :    -45.34811991  G :  0.011494    pred/act E change: -0.262D-03 -0.499D-03
Maxdispl :   0.2678   ||displ|| :   0.4822   Lambda : -0.755D-03
Largest |displ|/coords:  0.2678 (   7)  0.2051 (   2)  0.1626 (   4)
................................................................................
.............................. CYCLE   34 ......................................
................................................................................
   1    -45.6065508 -0.456066E+02  0.258E-01    6.73       0.0  T
   2    -45.6065729 -0.220742E-04  0.193E-01    6.73       1.0  T
   3    -45.6065890 -0.161147E-04  0.288E-02    6.74       1.0  T
   4    -45.6065920 -0.298555E-05  0.948E-03    6.74       2.2  T
   5    -45.6065921 -0.128317E-06  0.362E-03    6.74       5.8  T
   6    -45.6065921 -0.157270E-07  0.214E-03    6.74       9.7  T
   7    -45.6065921 -0.646664E-08  0.524E-04    6.74      39.8  T
speedup  1.07
cpu  time for SCC    0.01 s
wall time for SCC    0.01 s
speedup  1.07
cpu  time for grad    0.01 s
wall time for grad    0.01 s
 E :    -45.34829004  G :  0.025354    pred/act E change: -0.430D-03 -0.170D-03
Maxdispl :   0.1607   ||displ|| :   0.2730   Lambda : -0.101D-02
Largest |displ|/coords:  0.1607 (   2)  0.1120 (  11)  0.0643 (   7)
................................................................................
.............................. CYCLE   35 ......................................
................................................................................
   1    -45.6104074 -0.456104E+02  0.169E-01    6.75       0.0  T
   2    -45.6104238 -0.164342E-04  0.127E-01    6.76       1.0  T
   3    -45.6104339 -0.101574E-04  0.250E-02    6.78       1.0  T
   4    -45.6104361 -0.219648E-05  0.790E-03    6.77       2.6  T
   5    -45.6104362 -0.892335E-07  0.253E-03    6.77       8.3  T
   6    -45.6104362 -0.726361E-08  0.148E-03    6.77      14.1  T
speedup  1.04
cpu  time for SCC    0.00 s
wall time for SCC    0.00 s
speedup  1.05
cpu  time for grad    0.01 s
wall time for grad    0.01 s
 E :    -45.34866240  G :  0.018380    pred/act E change: -0.465D-03 -0.372D-03
Maxdispl :   0.2577   ||displ|| :   0.4461   Lambda : -0.121D-02
Largest |displ|/coords:  0.2577 (   7)  0.1708 (   2)  0.1139 (   4)
................................................................................
.............................. CYCLE   36 ......................................
................................................................................
   1    -45.5934195 -0.455934E+02  0.339E-01    6.68       0.0  T
   2    -45.5934624 -0.429344E-04  0.249E-01    6.71       1.0  T
   3    -45.5934804 -0.179785E-04  0.413E-02    6.77       1.0  T
   4    -45.5934870 -0.658954E-05  0.104E-02    6.75       2.0  T
   5    -45.5934871 -0.101247E-06  0.400E-03    6.75       5.2  T
   6    -45.5934871 -0.197668E-07  0.200E-03    6.75      10.4  T
   7    -45.5934871 -0.477154E-08  0.470E-04    6.75      44.3  T
speedup  0.91
cpu  time for SCC    0.00 s
wall time for SCC    0.01 s
speedup  0.99
cpu  time for grad    0.01 s
wall time for grad    0.01 s
 E :    -45.34810039  G :  0.039277    pred/act E change: -0.543D-03  0.562D-03
Maxdispl :   0.1539   ||displ|| :   0.2756   Lambda : -0.264D-02
Largest |displ|/coords:  0.1539 (   5)  0.1099 (   7)  0.0865 (   8)
................................................................................
.............................. CYCLE   37 ......................................
................................................................................
   1    -45.6055884 -0.456056E+02  0.214E-01    6.94       0.0  T
   2    -45.6056180 -0.296690E-04  0.156E-01    6.91       1.0  T
   3    -45.6056302 -0.121292E-04  0.324E-02    6.86       1.0  T
   4    -45.6056342 -0.399501E-05  0.785E-03    6.88       2.7  T
   5    -45.6056342 -0.663406E-07  0.313E-03    6.88       6.7  T
   6    -45.6056342 -0.640944E-08  0.137E-03    6.88      15.2  T
speedup  1.04
cpu  time for SCC    0.00 s
wall time for SCC    0.00 s
speedup  0.96
cpu  time for grad    0.01 s
wall time for grad    0.01 s
 E :    -45.34926990  G :  0.020117    pred/act E change: -0.727D-03 -0.117D-02
Maxdispl :   0.1610   ||displ|| :   0.3349   Lambda : -0.147D-02
Largest |displ|/coords:  0.1610 (   1)  0.1002 (   9)  0.0972 (   2)
................................................................................
.............................. CYCLE   38 ......................................
................................................................................
   1    -45.6143508 -0.456144E+02  0.267E-01    6.85       0.0  T
   2    -45.6143829 -0.321241E-04  0.200E-01    6.86       1.0  T
   3    -45.6144055 -0.225518E-04  0.329E-02    6.89       1.0  T
   4    -45.6144096 -0.414349E-05  0.126E-02    6.89       1.7  T
   5    -45.6144098 -0.209125E-06  0.387E-03    6.88       5.4  T
   6    -45.6144098 -0.129756E-07  0.225E-03    6.88       9.2  T
speedup  1.02
cpu  time for SCC    0.00 s
wall time for SCC    0.00 s
speedup  0.96
cpu  time for grad    0.01 s
wall time for grad    0.01 s
 E :    -45.34897463  G :  0.031711    pred/act E change: -0.142D-02  0.295D-03
Maxdispl :   0.1212   ||displ|| :   0.2525   Lambda : -0.159D-02
Largest |displ|/coords:  0.1212 (   2)  0.1032 (   4)  0.0883 (   7)
................................................................................
.............................. CYCLE   39 ......................................
................................................................................
   1    -45.6077053 -0.456077E+02  0.212E-01    6.87       0.0  T
   2    -45.6077190 -0.137134E-04  0.158E-01    6.87       1.0  T
   3    -45.6077281 -0.910932E-05  0.256E-02    6.87       1.0  T
   4    -45.6077300 -0.189511E-05  0.750E-03    6.87       2.8  T
   5    -45.6077301 -0.734754E-07  0.264E-03    6.87       7.9  T
   6    -45.6077301 -0.635435E-08  0.157E-03    6.87      13.3  T
speedup  0.83
cpu  time for SCC    0.00 s
wall time for SCC    0.00 s
speedup  0.96
cpu  time for grad    0.01 s
wall time for grad    0.01 s
 E :    -45.34996330  G :  0.013091    pred/act E change: -0.818D-03 -0.989D-03
Maxdispl :   0.1433   ||displ|| :   0.3000   Lambda : -0.934D-03
Largest |displ|/coords:  0.1433 (   6)  0.1357 (   2)  0.0963 (  10)
................................................................................
.............................. CYCLE   40 ......................................
................................................................................
   1    -45.6056331 -0.456056E+02  0.208E-01    6.97       0.0  T
   2    -45.6056588 -0.256972E-04  0.156E-01    6.99       1.0  T
   3    -45.6056732 -0.144069E-04  0.322E-02    7.03       1.0  T
   4    -45.6056770 -0.371246E-05  0.120E-02    7.02       1.7  T
   5    -45.6056772 -0.207836E-06  0.326E-03    7.02       6.4  T
   6    -45.6056772 -0.116606E-07  0.197E-03    7.02      10.6  T
   7    -45.6056772 -0.606745E-08  0.476E-04    7.02      43.8  T
speedup  1.07
cpu  time for SCC    0.01 s
wall time for SCC    0.01 s
speedup  0.97
cpu  time for grad    0.01 s
wall time for grad    0.01 s
 E :    -45.35009477  G :  0.026030    pred/act E change: -0.847D-03 -0.131D-03
Maxdispl :   0.2380   ||displ|| :   0.4232   Lambda : -0.114D-02
Largest |displ|/coords:  0.2380 (   2)  0.1746 (   7)  0.1120 (   5)
................................................................................
.............................. CYCLE   41 ......................................
................................................................................
   1    -45.6022241 -0.456022E+02  0.264E-01    6.94       0.0  T
   2    -45.6022592 -0.351030E-04  0.196E-01    6.94       1.0  T
   3    -45.6022787 -0.195212E-04  0.375E-02    6.95       1.0  T
   4    -45.6022836 -0.490556E-05  0.106E-02    6.96       2.0  T
   5    -45.6022837 -0.154733E-06  0.386E-03    6.95       5.4  T
   6    -45.6022838 -0.238503E-07  0.232E-03    6.95       9.0  T
speedup  1.04
cpu  time for SCC    0.00 s
wall time for SCC    0.00 s
speedup  1.04
cpu  time for grad    0.01 s
wall time for grad    0.01 s
 E :    -45.35086048  G :  0.022101    pred/act E change: -0.509D-03 -0.766D-03
Maxdispl :   0.1686   ||displ|| :   0.3316   Lambda : -0.122D-02
Largest |displ|/coords:  0.1686 (   2)  0.0959 (  12)  0.0848 (   9)
................................................................................
.............................. CYCLE   42 ......................................
................................................................................
   1    -45.6087105 -0.456087E+02  0.226E-01    6.96       0.0  T
   2    -45.6087570 -0.464647E-04  0.167E-01    6.97       1.0  T
   3    -45.6087822 -0.252523E-04  0.409E-02    7.00       1.0  T
   4    -45.6087875 -0.526893E-05  0.146E-02    7.00       1.4  T
   5    -45.6087878 -0.283172E-06  0.399E-03    7.00       5.2  T
   6    -45.6087878 -0.246317E-07  0.232E-03    7.00       9.0  T
speedup  1.06
cpu  time for SCC    0.00 s
wall time for SCC    0.00 s
speedup  0.96
cpu  time for grad    0.01 s
wall time for grad    0.01 s
 E :    -45.35125149  G :  0.025881    pred/act E change: -0.670D-03 -0.391D-03
Maxdispl :   0.2490   ||displ|| :   0.4073   Lambda : -0.113D-02
Largest |displ|/coords:  0.2490 (   2)  0.1114 (   5)  0.1072 (  16)
................................................................................
.............................. CYCLE   43 ......................................
................................................................................
   1    -45.6051072 -0.456051E+02  0.257E-01    6.98       0.0  T
   2    -45.6051509 -0.437176E-04  0.193E-01    7.00       1.0  T
   3    -45.6051784 -0.275054E-04  0.388E-02    7.04       1.0  T
   4    -45.6051845 -0.609498E-05  0.143E-02    7.03       1.5  T
   5    -45.6051848 -0.290751E-06  0.463E-03    7.03       4.5  T
   6    -45.6051848 -0.246792E-07  0.270E-03    7.03       7.7  T
speedup  1.06
cpu  time for SCC    0.00 s
wall time for SCC    0.00 s
speedup  1.05
cpu  time for grad    0.01 s
wall time for grad    0.01 s
 E :    -45.35200158  G :  0.016581    pred/act E change: -0.678D-03 -0.750D-03
Maxdispl :   0.2138   ||displ|| :   0.3213   Lambda : -0.113D-02
Largest |displ|/coords:  0.2138 (   2)  0.1102 (  10)  0.0787 (  18)
................................................................................
.............................. CYCLE   44 ......................................
................................................................................
   1    -45.6059242 -0.456059E+02  0.249E-01    7.20       0.0  T
   2    -45.6059556 -0.314398E-04  0.187E-01    7.21       1.0  T
   3    -45.6059788 -0.231368E-04  0.354E-02    7.24       1.0  T
   4    -45.6059826 -0.380217E-05  0.129E-02    7.24       1.6  T
   5    -45.6059828 -0.242820E-06  0.387E-03    7.24       5.4  T
   6    -45.6059828 -0.143632E-07  0.237E-03    7.24       8.8  T
   7    -45.6059828 -0.774103E-08  0.567E-04    7.24      36.7  T
speedup  0.91
cpu  time for SCC    0.00 s
wall time for SCC    0.01 s
speedup  0.98
cpu  time for grad    0.01 s
wall time for grad    0.01 s
 E :    -45.35231658  G :  0.026071    pred/act E change: -0.656D-03 -0.315D-03
Maxdispl :   0.0854   ||displ|| :   0.1998   Lambda : -0.889D-03
Largest |displ|/coords:  0.0854 (  12)  0.0744 (   2)  0.0705 (   3)
................................................................................
.............................. CYCLE   45 ......................................
................................................................................
   1    -45.6084696 -0.456085E+02  0.119E-01    7.25       0.0  T
   2    -45.6084779 -0.824282E-05  0.906E-02    7.25       1.0  T
   3    -45.6084863 -0.841052E-05  0.165E-02    7.27       1.3  T
   4    -45.6084871 -0.865580E-06  0.691E-03    7.26       3.0  T
   5    -45.6084872 -0.600842E-07  0.196E-03    7.26      10.7  T
   6    -45.6084872 -0.468124E-08  0.105E-03    7.26      19.8  T
speedup  1.04
cpu  time for SCC    0.00 s
wall time for SCC    0.00 s
speedup  0.96
cpu  time for grad    0.01 s
wall time for grad    0.01 s
 E :    -45.35265770  G :  0.018790    pred/act E change: -0.626D-03 -0.341D-03
Maxdispl :   0.1491   ||displ|| :   0.2521   Lambda : -0.754D-03
Largest |displ|/coords:  0.1491 (   2)  0.0907 (   1)  0.0619 (  12)
................................................................................
.............................. CYCLE   46 ......................................
................................................................................
   1    -45.6084813 -0.456085E+02  0.165E-01    7.19       0.0  T
   2    -45.6084947 -0.133764E-04  0.121E-01    7.19       1.0  T
   3    -45.6085041 -0.936874E-05  0.243E-02    7.20       1.0  T
   4    -45.6085055 -0.142963E-05  0.681E-03    7.20       3.1  T
   5    -45.6085055 -0.558960E-07  0.246E-03    7.20       8.5  T
   6    -45.6085055 -0.668489E-08  0.132E-03    7.20      15.8  T
speedup  1.04
cpu  time for SCC    0.01 s
wall time for SCC    0.00 s
speedup  1.04
cpu  time for grad    0.01 s
wall time for grad    0.01 s
 E :    -45.35281000  G :  0.017836    pred/act E change: -0.462D-03 -0.152D-03
Maxdispl :   0.0970   ||displ|| :   0.1447   Lambda : -0.479D-03
Largest |displ|/coords:  0.0970 (   6)  0.0582 (   5)  0.0442 (  14)
................................................................................
.............................. CYCLE   47 ......................................
................................................................................
   1    -45.6087030 -0.456087E+02  0.109E-01    7.24       0.0  T
   2    -45.6087077 -0.473821E-05  0.802E-02    7.24       1.0  T
   3    -45.6087111 -0.337888E-05  0.145E-02    7.25       1.4  T
   4    -45.6087116 -0.511821E-06  0.493E-03    7.24       4.2  T
   5    -45.6087116 -0.290834E-07  0.152E-03    7.24      13.7  T
   6    -45.6087116 -0.353221E-08  0.865E-04    7.24      24.1  T
speedup  1.02
cpu  time for SCC    0.00 s
wall time for SCC    0.00 s
speedup  0.95
cpu  time for grad    0.01 s
wall time for grad    0.01 s
 E :    -45.35309375  G :  0.009484    pred/act E change: -0.401D-03 -0.284D-03
Maxdispl :   0.1838   ||displ|| :   0.2683   Lambda : -0.376D-03
Largest |displ|/coords:  0.1838 (   2)  0.0774 (  12)  0.0747 (   8)
................................................................................
.............................. CYCLE   48 ......................................
................................................................................
   1    -45.6072953 -0.456073E+02  0.145E-01    7.29       0.0  T
   2    -45.6073045 -0.925992E-05  0.108E-01    7.29       1.0  T
   3    -45.6073114 -0.682795E-05  0.176E-02    7.30       1.2  T
   4    -45.6073126 -0.119593E-05  0.493E-03    7.30       4.2  T
   5    -45.6073126 -0.316969E-07  0.223E-03    7.30       9.4  T
   6    -45.6073126 -0.444697E-08  0.111E-03    7.30      18.8  T
speedup  1.00
cpu  time for SCC    0.00 s
wall time for SCC    0.00 s
speedup  1.11
cpu  time for grad    0.01 s
wall time for grad    0.01 s
 E :    -45.35321017  G :  0.014265    pred/act E change: -0.244D-03 -0.116D-03
Maxdispl :   0.1111   ||displ|| :   0.2283   Lambda : -0.339D-03
Largest |displ|/coords:  0.1111 (   6)  0.0884 (   4)  0.0750 (   1)
................................................................................
.............................. CYCLE   49 ......................................
................................................................................
   1    -45.6101828 -0.456102E+02  0.142E-01    7.39       0.0  T
   2    -45.6101887 -0.592033E-05  0.104E-01    7.39       1.0  T
   3    -45.6101929 -0.418354E-05  0.166E-02    7.39       1.3  T
   4    -45.6101934 -0.564784E-06  0.676E-03    7.39       3.1  T
   5    -45.6101935 -0.456937E-07  0.170E-03    7.39      12.3  T
   6    -45.6101935 -0.281121E-08  0.107E-03    7.39      19.5  T
speedup  1.04
cpu  time for SCC    0.00 s
wall time for SCC    0.00 s
speedup  0.93
cpu  time for grad    0.01 s
wall time for grad    0.01 s
 E :    -45.35331079  G :  0.013880    pred/act E change: -0.201D-03 -0.101D-03
Maxdispl :   0.2200   ||displ|| :   0.4108   Lambda : -0.758D-03
Largest |displ|/coords:  0.2200 (   2)  0.2197 (   6)  0.1267 (   9)
................................................................................
.............................. CYCLE   50 ......................................
................................................................................
   1    -45.6031142 -0.456031E+02  0.255E-01    7.24       0.0  T
   2    -45.6031358 -0.215657E-04  0.188E-01    7.25       1.0  T
   3    -45.6031516 -0.158495E-04  0.283E-02    7.27       1.0  T
   4    -45.6031539 -0.227223E-05  0.117E-02    7.26       1.8  T
   5    -45.6031540 -0.145743E-06  0.340E-03    7.26       6.1  T
   6    -45.6031541 -0.133560E-07  0.182E-03    7.26      11.4  T
   7    -45.6031541 -0.680178E-08  0.530E-04    7.26      39.3  T
speedup  1.07
cpu  time for SCC    0.01 s
wall time for SCC    0.01 s
speedup  0.98
cpu  time for grad    0.01 s
wall time for grad    0.01 s
 E :    -45.35305471  G :  0.027704    pred/act E change: -0.178D-03  0.256D-03
Maxdispl :   0.0768   ||displ|| :   0.1525   Lambda : -0.109D-02
Largest |displ|/coords:  0.0768 (   6)  0.0633 (   9)  0.0555 (   8)
................................................................................
.............................. CYCLE   51 ......................................
................................................................................
   1    -45.6086539 -0.456087E+02  0.153E-01    7.31       0.0  T
   2    -45.6086662 -0.122208E-04  0.111E-01    7.29       1.0  T
   3    -45.6086728 -0.662048E-05  0.203E-02    7.27       1.0  T
   4    -45.6086742 -0.146398E-05  0.682E-03    7.28       3.1  T
   5    -45.6086743 -0.595734E-07  0.248E-03    7.28       8.4  T
   6    -45.6086743 -0.572440E-08  0.117E-03    7.28      17.8  T
speedup  1.06
cpu  time for SCC    0.00 s
wall time for SCC    0.00 s
speedup  1.05
cpu  time for grad    0.01 s
wall time for grad    0.01 s
 E :    -45.35354261  G :  0.007757    pred/act E change: -0.443D-03 -0.488D-03
Maxdispl :   0.1155   ||displ|| :   0.2190   Lambda : -0.430D-03
Largest |displ|/coords:  0.1155 (   2)  0.0890 (  10)  0.0850 (   5)
................................................................................
.............................. CYCLE   52 ......................................
................................................................................
   1    -45.6048868 -0.456049E+02  0.174E-01    7.38       0.0  T
   2    -45.6048973 -0.105840E-04  0.128E-01    7.40       1.0  T
   3    -45.6049047 -0.734681E-05  0.187E-02    7.43       1.1  T
   4    -45.6049058 -0.114346E-05  0.674E-03    7.42       3.1  T
   5    -45.6049059 -0.495627E-07  0.234E-03    7.42       8.9  T
   6    -45.6049059 -0.689003E-08  0.124E-03    7.42      16.8  T
speedup  1.04
cpu  time for SCC    0.00 s
wall time for SCC    0.00 s
speedup  0.96
cpu  time for grad    0.01 s
wall time for grad    0.01 s
 E :    -45.35343179  G :  0.018061    pred/act E change: -0.555D-03  0.111D-03
Maxdispl :   0.0571   ||displ|| :   0.1203   Lambda : -0.555D-03
Largest |displ|/coords:  0.0571 (   5)  0.0554 (   8)  0.0428 (  10)

generating ANC from model Hessian ...
 Shifting diagonal of input Hessian by   5.041255517202991E-003
 Lowest  eigenvalues of input Hessian
    0.005000   -0.000000   -0.000000   -0.000000    0.000000    0.000000
    0.000000    0.005066    0.005251    0.005615    0.006025    0.006202
    0.006347    0.006549    0.007831    0.008296    0.009641    0.011291
 Highest eigenvalues
    1.387171    1.391068    1.415270    2.652259    3.486091    3.674730
 
cpu  time for ANC gen    0.01 s
wall time for ANC gen    0.01 s
................................................................................
.............................. CYCLE   53 ......................................
................................................................................
   1    -45.6077109 -0.456077E+02  0.890E-02    7.41       0.0  T
   2    -45.6077161 -0.520600E-05  0.649E-02    7.40       1.0  T
   3    -45.6077187 -0.258984E-05  0.135E-02    7.37       1.5  T
   4    -45.6077194 -0.634252E-06  0.362E-03    7.38       5.8  T
   5    -45.6077194 -0.178396E-07  0.139E-03    7.38      15.0  T
   6    -45.6077194 -0.199075E-08  0.609E-04    7.38      34.2  T
   7    -45.6077194 -0.947836E-09  0.223E-04    7.38      93.4  T
speedup  1.11
cpu  time for SCC    0.01 s
wall time for SCC    0.01 s
speedup  1.04
cpu  time for grad    0.01 s
wall time for grad    0.01 s
 E :    -45.35370274  G :  0.007954    pred/act E change:  0.000D+00 -0.271D-03
Maxdispl :   0.0913   ||displ|| :   0.1379   Lambda : -0.187D-03
Largest |displ|/coords:  0.0913 (   3)  0.0665 (   6)  0.0447 (   5)
................................................................................
.............................. CYCLE   54 ......................................
................................................................................
   1    -45.6077699 -0.456078E+02  0.122E-01    7.36       0.0  T
   2    -45.6077723 -0.238396E-05  0.893E-02    7.36       1.0  T
   3    -45.6077747 -0.241657E-05  0.855E-03    7.35       2.4  T
   4    -45.6077748 -0.104639E-06  0.314E-03    7.35       6.6  T
   5    -45.6077748 -0.904080E-08  0.107E-03    7.35      19.5  T
   6    -45.6077748 -0.141902E-08  0.581E-04    7.35      35.9  T
speedup  1.04
cpu  time for SCC    0.01 s
wall time for SCC    0.00 s
speedup  0.96
cpu  time for grad    0.01 s
wall time for grad    0.01 s
 E :    -45.35386723  G :  0.004585    pred/act E change:  0.000D+00 -0.164D-03
Maxdispl :   0.3571   ||displ|| :   0.5275   Lambda : -0.531D-03
Largest |displ|/coords:  0.3571 (   3)  0.2260 (   6)  0.1893 (   2)
................................................................................
.............................. CYCLE   55 ......................................
................................................................................
   1    -45.6033734 -0.456034E+02  0.430E-01    7.27       0.0  T
   2    -45.6034027 -0.292691E-04  0.315E-01    7.27       1.0  T
   3    -45.6034320 -0.293363E-04  0.300E-02    7.28       1.0  T
   4    -45.6034333 -0.125172E-05  0.102E-02    7.27       2.0  T
   5    -45.6034333 -0.904979E-07  0.425E-03    7.27       4.9  T
   6    -45.6034334 -0.300326E-07  0.201E-03    7.28      10.4  T
   7    -45.6034334 -0.584640E-08  0.555E-04    7.28      37.6  T
speedup  0.91
cpu  time for SCC    0.00 s
wall time for SCC    0.01 s
speedup  0.98
cpu  time for grad    0.01 s
wall time for grad    0.01 s
 E :    -45.35408261  G :  0.017597    pred/act E change: -0.955D-04 -0.215D-03
Maxdispl :   0.1109   ||displ|| :   0.1876   Lambda : -0.484D-03
Largest |displ|/coords:  0.1109 (   3)  0.1002 (   6)  0.0944 (   2)
................................................................................
.............................. CYCLE   56 ......................................
................................................................................
   1    -45.6063604 -0.456064E+02  0.128E-01    7.29       0.0  T
   2    -45.6063652 -0.480493E-05  0.934E-02    7.28       1.0  T
   3    -45.6063679 -0.272329E-05  0.129E-02    7.26       1.6  T
   4    -45.6063685 -0.604080E-06  0.362E-03    7.27       5.8  T
   5    -45.6063685 -0.100461E-07  0.141E-03    7.27      14.7  T
   6    -45.6063685 -0.212211E-08  0.561E-04    7.27      37.1  T
speedup  1.04
cpu  time for SCC    0.00 s
wall time for SCC    0.00 s
speedup  0.96
cpu  time for grad    0.01 s
wall time for grad    0.01 s
 E :    -45.35437084  G :  0.009082    pred/act E change: -0.340D-03 -0.288D-03
Maxdispl :   0.3433   ||displ|| :   0.4519   Lambda : -0.382D-03
Largest |displ|/coords:  0.3433 (   3)  0.2074 (   2)  0.1325 (   5)
................................................................................
.............................. CYCLE   57 ......................................
................................................................................
   1    -45.6056793 -0.456057E+02  0.221E-01    7.24       0.0  T
   2    -45.6056858 -0.643325E-05  0.163E-01    7.23       1.0  T
   3    -45.6056925 -0.675389E-05  0.213E-02    7.22       1.0  T
   4    -45.6056930 -0.460923E-06  0.542E-03    7.23       3.8  T
   5    -45.6056930 -0.496867E-07  0.242E-03    7.23       8.6  T
   6    -45.6056930 -0.110399E-07  0.130E-03    7.23      16.1  T
speedup  1.04
cpu  time for SCC    0.01 s
wall time for SCC    0.00 s
speedup  1.05
cpu  time for grad    0.01 s
wall time for grad    0.01 s
 E :    -45.35471878  G :  0.010455    pred/act E change: -0.251D-03 -0.348D-03
Maxdispl :   0.5734   ||displ|| :   0.7749   Lambda : -0.777D-03
Largest |displ|/coords:  0.5734 (   3)  0.3127 (   2)  0.2676 (   5)
................................................................................
.............................. CYCLE   58 ......................................
................................................................................
   1    -45.6033002 -0.456033E+02  0.381E-01    7.21       0.0  T
   2    -45.6033203 -0.201120E-04  0.280E-01    7.20       1.0  T
   3    -45.6033423 -0.219563E-04  0.336E-02    7.20       1.0  T
   4    -45.6033434 -0.111512E-05  0.956E-03    7.20       2.2  T
   5    -45.6033435 -0.118491E-06  0.423E-03    7.20       4.9  T
   6    -45.6033436 -0.283591E-07  0.219E-03    7.20       9.5  T
   7    -45.6033436 -0.831021E-08  0.552E-04    7.20      37.8  T
speedup  0.89
cpu  time for SCC    0.00 s
wall time for SCC    0.01 s
speedup  0.98
cpu  time for grad    0.01 s
wall time for grad    0.01 s
 E :    -45.35537747  G :  0.014980    pred/act E change: -0.230D-03 -0.659D-03
Maxdispl :   0.4485   ||displ|| :   0.6443   Lambda : -0.810D-03
Largest |displ|/coords:  0.4485 (   3)  0.2673 (   1)  0.2464 (   5)
................................................................................
.............................. CYCLE   59 ......................................
................................................................................
   1    -45.6037136 -0.456037E+02  0.302E-01    7.30       0.0  T
   2    -45.6037279 -0.142824E-04  0.222E-01    7.30       1.0  T
   3    -45.6037428 -0.148943E-04  0.232E-02    7.30       1.0  T
   4    -45.6037435 -0.686095E-06  0.770E-03    7.31       2.7  T
   5    -45.6037436 -0.595845E-07  0.328E-03    7.31       6.4  T
   6    -45.6037436 -0.148673E-07  0.160E-03    7.31      13.1  T
   7    -45.6037436 -0.460410E-08  0.431E-04    7.31      48.4  T
speedup  0.93
cpu  time for SCC    0.01 s
wall time for SCC    0.01 s
speedup  0.99
cpu  time for grad    0.01 s
wall time for grad    0.01 s
 E :    -45.35601468  G :  0.020946    pred/act E change: -0.621D-03 -0.637D-03
Maxdispl :   0.3091   ||displ|| :   0.5024   Lambda : -0.104D-02
Largest |displ|/coords:  0.3091 (   3)  0.2727 (   1)  0.1914 (   5)
................................................................................
.............................. CYCLE   60 ......................................
................................................................................
   1    -45.6129846 -0.456130E+02  0.193E-01    7.62       0.0  T
   2    -45.6129985 -0.139864E-04  0.141E-01    7.61       1.0  T
   3    -45.6130063 -0.775069E-05  0.218E-02    7.59       1.0  T
   4    -45.6130081 -0.179868E-05  0.574E-03    7.60       3.6  T
   5    -45.6130081 -0.449495E-07  0.251E-03    7.60       8.3  T
speedup  1.03
cpu  time for SCC    0.00 s
wall time for SCC    0.00 s
speedup  1.05
cpu  time for grad    0.01 s
wall time for grad    0.01 s
 E :    -45.35668101  G :  0.021910    pred/act E change: -0.573D-03 -0.666D-03
Maxdispl :   0.5072   ||displ|| :   0.6810   Lambda : -0.140D-02
Largest |displ|/coords:  0.5072 (   3)  0.2702 (   1)  0.2045 (   5)
................................................................................
.............................. CYCLE   61 ......................................
................................................................................
   1    -45.6064916 -0.456065E+02  0.384E-01    7.68       0.0  T
   2    -45.6065255 -0.338853E-04  0.283E-01    7.71       1.0  T
   3    -45.6065549 -0.294077E-04  0.353E-02    7.77       1.0  T
   4    -45.6065581 -0.314932E-05  0.137E-02    7.75       1.5  T
   5    -45.6065583 -0.178858E-06  0.470E-03    7.75       4.4  T
   6    -45.6065583 -0.338030E-07  0.240E-03    7.75       8.7  T
speedup  0.85
cpu  time for SCC    0.00 s
wall time for SCC    0.00 s
speedup  0.96
cpu  time for grad    0.01 s
wall time for grad    0.01 s
 E :    -45.35719258  G :  0.030700    pred/act E change: -0.649D-03 -0.512D-03
Maxdispl :   0.1146   ||displ|| :   0.2114   Lambda : -0.151D-02
Largest |displ|/coords:  0.1146 (   5)  0.0853 (   8)  0.0658 (   3)
................................................................................
.............................. CYCLE   62 ......................................
................................................................................
   1    -45.6127332 -0.456127E+02  0.179E-01    7.81       0.0  T
   2    -45.6127467 -0.134232E-04  0.130E-01    7.80       1.0  T
   3    -45.6127543 -0.759881E-05  0.233E-02    7.79       1.0  T
   4    -45.6127557 -0.147479E-05  0.654E-03    7.80       3.2  T
   5    -45.6127558 -0.473972E-07  0.230E-03    7.80       9.1  T
   6    -45.6127558 -0.517917E-08  0.112E-03    7.80      18.5  T
speedup  1.06
cpu  time for SCC    0.00 s
wall time for SCC    0.00 s
speedup  0.97
cpu  time for grad    0.01 s
wall time for grad    0.01 s
 E :    -45.35761321  G :  0.021166    pred/act E change: -0.102D-02 -0.421D-03
Maxdispl :   0.1529   ||displ|| :   0.3044   Lambda : -0.147D-02
Largest |displ|/coords:  0.1529 (   8)  0.1357 (   7)  0.0992 (   4)
................................................................................
.............................. CYCLE   63 ......................................
................................................................................
   1    -45.6143513 -0.456144E+02  0.281E-01    7.88       0.0  T
   2    -45.6143694 -0.181617E-04  0.208E-01    7.87       1.0  T
   3    -45.6143835 -0.140637E-04  0.254E-02    7.84       1.0  T
   4    -45.6143853 -0.184509E-05  0.874E-03    7.85       2.4  T
   5    -45.6143854 -0.589195E-07  0.326E-03    7.85       6.4  T
   6    -45.6143854 -0.811198E-08  0.117E-03    7.85      17.9  T
speedup  0.85
cpu  time for SCC    0.00 s
wall time for SCC    0.00 s
speedup  0.96
cpu  time for grad    0.01 s
wall time for grad    0.01 s
 E :    -45.35767871  G :  0.028061    pred/act E change: -0.789D-03 -0.655D-04
Maxdispl :   0.1139   ||displ|| :   0.2129   Lambda : -0.129D-02
Largest |displ|/coords:  0.1139 (   7)  0.1016 (   5)  0.0619 (   9)
................................................................................
.............................. CYCLE   64 ......................................
................................................................................
   1    -45.6112472 -0.456112E+02  0.206E-01    7.96       0.0  T
   2    -45.6112582 -0.110001E-04  0.152E-01    7.96       1.0  T
   3    -45.6112680 -0.978874E-05  0.194E-02    7.97       1.1  T
   4    -45.6112690 -0.992147E-06  0.735E-03    7.97       2.8  T
   5    -45.6112691 -0.581216E-07  0.268E-03    7.97       7.8  T
   6    -45.6112691 -0.861706E-08  0.126E-03    7.97      16.6  T
speedup  0.87
cpu  time for SCC    0.00 s
wall time for SCC    0.00 s
speedup  0.97
cpu  time for grad    0.01 s
wall time for grad    0.01 s
 E :    -45.35822893  G :  0.017919    pred/act E change: -0.803D-03 -0.550D-03
Maxdispl :   0.1376   ||displ|| :   0.2157   Lambda : -0.860D-03
Largest |displ|/coords:  0.1376 (   9)  0.0893 (   8)  0.0610 (   6)
................................................................................
.............................. CYCLE   65 ......................................
................................................................................
   1    -45.6109324 -0.456109E+02  0.194E-01    7.95       0.0  T
   2    -45.6109478 -0.153261E-04  0.143E-01    7.97       1.0  T
   3    -45.6109580 -0.102802E-04  0.239E-02    8.00       1.0  T
   4    -45.6109598 -0.180553E-05  0.702E-03    7.98       3.0  T
   5    -45.6109599 -0.592143E-07  0.281E-03    7.99       7.4  T
   6    -45.6109599 -0.797657E-08  0.116E-03    7.99      17.9  T
speedup  1.04
cpu  time for SCC    0.00 s
wall time for SCC    0.00 s
speedup  0.96
cpu  time for grad    0.01 s
wall time for grad    0.01 s
 E :    -45.35805982  G :  0.029810    pred/act E change: -0.675D-03  0.169D-03
Maxdispl :   0.0818   ||displ|| :   0.1610   Lambda : -0.112D-02
Largest |displ|/coords:  0.0818 (   4)  0.0717 (   2)  0.0695 (   6)
[...]
................................................................................
.............................. CYCLE  105 ......................................
................................................................................
   1    -45.6108617 -0.456109E+02  0.272E-02    9.01       0.0  T
   2    -45.6108618 -0.849960E-07  0.201E-02    9.02       1.0  T
   3    -45.6108619 -0.906277E-07  0.183E-03    9.02      11.4  T
   4    -45.6108619 -0.370621E-08  0.588E-04    9.02      35.5  T
   5    -45.6108619 -0.387296E-09  0.218E-04    9.02      95.5  T
speedup  1.00
cpu  time for SCC    0.00 s
wall time for SCC    0.00 s
speedup  0.98
cpu  time for grad    0.01 s
wall time for grad    0.01 s
 E :    -45.36477379  G :  0.000822    pred/act E change: -0.157D-05 -0.205D-05
Maxdispl :   0.0289   ||displ|| :   0.0441   Lambda : -0.208D-05
Largest |displ|/coords:  0.0289 (   2)  0.0180 (   7)  0.0168 (   1)
................................................................................
.............................. CYCLE  106 ......................................
................................................................................
   1    -45.6107437 -0.456107E+02  0.257E-02    9.01       0.0  T
   2    -45.6107438 -0.732356E-07  0.191E-02    9.02       1.1  T
   3    -45.6107438 -0.803541E-07  0.156E-03    9.02      13.3  T
   4    -45.6107438 -0.332572E-08  0.607E-04    9.02      34.3  T
   5    -45.6107438 -0.364473E-09  0.189E-04    9.02     110.3  T
speedup  0.98
cpu  time for SCC    0.00 s
wall time for SCC    0.00 s
speedup  0.98
cpu  time for grad    0.01 s
wall time for grad    0.01 s
 E :    -45.36477528  G :  0.000773    pred/act E change: -0.145D-05 -0.149D-05
Maxdispl :   0.0182   ||displ|| :   0.0322   Lambda : -0.175D-05
Largest |displ|/coords:  0.0182 (   1)  0.0146 (   2)  0.0133 (   3)
................................................................................
.............................. CYCLE  107 ......................................
................................................................................
   1    -45.6107213 -0.456107E+02  0.180E-02    9.02       0.0  T
   2    -45.6107213 -0.403191E-07  0.134E-02    9.02       1.6  T
   3    -45.6107214 -0.438005E-07  0.122E-03    9.02      17.1  T
   4    -45.6107214 -0.203869E-08  0.527E-04    9.02      39.6  T
   5    -45.6107214 -0.238884E-09  0.133E-04    9.02     156.5  T
speedup  1.00
cpu  time for SCC    0.00 s
wall time for SCC    0.00 s
speedup  1.08
cpu  time for grad    0.01 s
wall time for grad    0.01 s
 E :    -45.36477645  G :  0.000526    pred/act E change: -0.104D-05 -0.118D-05
Maxdispl :   0.0225   ||displ|| :   0.0331   Lambda : -0.129D-05
Largest |displ|/coords:  0.0225 (   2)  0.0141 (   1)  0.0121 (   7)
................................................................................
.............................. CYCLE  108 ......................................
................................................................................
   1    -45.6105982 -0.456106E+02  0.194E-02    9.02       0.0  T
   2    -45.6105982 -0.493435E-07  0.143E-02    9.02       1.5  T
   3    -45.6105983 -0.411181E-07  0.137E-03    9.02      15.2  T
   4    -45.6105983 -0.418078E-08  0.567E-04    9.02      36.8  T
   5    -45.6105983 -0.195513E-09  0.141E-04    9.02     148.0  T
speedup  1.00
cpu  time for SCC    0.00 s
wall time for SCC    0.00 s
speedup  0.99
cpu  time for grad    0.01 s
wall time for grad    0.01 s
 E :    -45.36477725  G :  0.000644    pred/act E change: -0.875D-06 -0.793D-06
Maxdispl :   0.0114   ||displ|| :   0.0189   Lambda : -0.132D-05
Largest |displ|/coords:  0.0114 (   1)  0.0070 (   4)  0.0067 (   8)
................................................................................
.............................. CYCLE  109 ......................................
................................................................................
   1    -45.6107369 -0.456107E+02  0.140E-02    9.02       0.0  T
   2    -45.6107370 -0.266282E-07  0.103E-02    9.02       2.0  T
   3    -45.6107370 -0.178677E-07  0.150E-03    9.02      13.9  T
   4    -45.6107370 -0.318715E-08  0.479E-04    9.02      43.5  T
   5    -45.6107370 -0.211514E-09  0.113E-04    9.02     183.9  T
speedup  1.00
cpu  time for SCC    0.00 s
wall time for SCC    0.00 s
speedup  0.99
cpu  time for grad    0.01 s
wall time for grad    0.01 s
 E :    -45.36477804  G :  0.000528    pred/act E change: -0.646D-06 -0.792D-06
Maxdispl :   0.0112   ||displ|| :   0.0183   Lambda : -0.820D-06
Largest |displ|/coords:  0.0112 (   2)  0.0057 (   1)  0.0054 (   5)
................................................................................
.............................. CYCLE  110 ......................................
................................................................................
   1    -45.6107531 -0.456108E+02  0.119E-02    9.02       0.0  T
   2    -45.6107531 -0.182806E-07  0.870E-03    9.02       2.4  T
   3    -45.6107531 -0.174519E-07  0.106E-03    9.02      19.8  T
   4    -45.6107531 -0.102686E-08  0.362E-04    9.02      57.6  T
   5    -45.6107531 -0.133156E-09  0.995E-05    9.02     209.5  T
speedup  1.00
cpu  time for SCC    0.00 s
wall time for SCC    0.00 s
speedup  0.97
cpu  time for grad    0.01 s
wall time for grad    0.01 s
 E :    -45.36477867  G :  0.000456    pred/act E change: -0.662D-06 -0.631D-06
Maxdispl :   0.0136   ||displ|| :   0.0231   Lambda : -0.950D-06
Largest |displ|/coords:  0.0136 (   2)  0.0078 (   5)  0.0074 (   1)
................................................................................
.............................. CYCLE  111 ......................................
................................................................................
   1    -45.6108211 -0.456108E+02  0.153E-02    9.02       0.0  T
   2    -45.6108211 -0.279142E-07  0.112E-02    9.02       1.9  T
   3    -45.6108211 -0.297928E-07  0.125E-03    9.02      16.7  T
   4    -45.6108211 -0.989210E-09  0.333E-04    9.02      62.5  T
   5    -45.6108211 -0.156994E-09  0.123E-04    9.02     169.1  T
speedup  0.75
cpu  time for SCC    0.00 s
wall time for SCC    0.00 s
speedup  0.99
cpu  time for grad    0.01 s
wall time for grad    0.01 s
 E :    -45.36477927  G :  0.000344    pred/act E change: -0.410D-06 -0.601D-06
Maxdispl :   0.0078   ||displ|| :   0.0121   Lambda : -0.308D-06
Largest |displ|/coords:  0.0078 (   2)  0.0047 (   1)  0.0031 (   7)
................................................................................
.............................. CYCLE  112 ......................................
................................................................................
   1    -45.6108507 -0.456109E+02  0.769E-03    9.02       0.0  T
   2    -45.6108508 -0.719604E-08  0.566E-03    9.02       3.7  T
   3    -45.6108508 -0.700298E-08  0.508E-04    9.02      41.0  T
   4    -45.6108508 -0.338346E-09  0.192E-04    9.02     108.6  T
speedup  0.94
cpu  time for SCC    0.00 s
wall time for SCC    0.00 s
speedup  0.96
cpu  time for grad    0.01 s
wall time for grad    0.01 s
 E :    -45.36477951  G :  0.000276    pred/act E change: -0.475D-06 -0.238D-06
Maxdispl :   0.0082   ||displ|| :   0.0149   Lambda : -0.337D-06
Largest |displ|/coords:  0.0082 (   2)  0.0067 (   1)  0.0055 (   7)

generating ANC from model Hessian ...
 Shifting diagonal of input Hessian by   5.111813953917217E-003
 Lowest  eigenvalues of input Hessian
    0.005000   -0.000000   -0.000000   -0.000000    0.000000    0.000000
    0.000000    0.005497    0.005602    0.005720    0.006468    0.007116
    0.007293    0.008053    0.009306    0.010290    0.012462    0.013987
 Highest eigenvalues
    1.386239    1.389677    1.399694    2.809346    3.336825    3.577092
 
cpu  time for ANC gen    0.01 s
wall time for ANC gen    0.01 s
................................................................................
.............................. CYCLE  113 ......................................
................................................................................
   1    -45.6108761 -0.456109E+02  0.945E-03    9.02       0.0  T
   2    -45.6108762 -0.112926E-07  0.700E-03    9.02       3.0  T
   3    -45.6108762 -0.102598E-07  0.621E-04    9.02      33.6  T
   4    -45.6108762 -0.835414E-09  0.278E-04    9.02      74.9  T
speedup  0.91
cpu  time for SCC    0.00 s
wall time for SCC    0.00 s
speedup  1.06
cpu  time for grad    0.01 s
wall time for grad    0.01 s
 E :    -45.36477974  G :  0.000198    pred/act E change:  0.000D+00 -0.227D-06
Maxdispl :   0.0018   ||displ|| :   0.0032   Lambda : -0.121D-06
Largest |displ|/coords:  0.0018 (   1)  0.0017 (   2)  0.0015 (   6)
................................................................................
.............................. CYCLE  114 ......................................
................................................................................
   1    -45.6108689 -0.456109E+02  0.219E-03    9.02       0.0  T
   2    -45.6108689 -0.691649E-09  0.164E-03    9.02      12.7  T
   3    -45.6108689 -0.763137E-09  0.171E-04    9.02     121.8  T
   4    -45.6108689 -0.561826E-10  0.608E-05    9.02     343.0  T
speedup  0.91
cpu  time for SCC    0.00 s
wall time for SCC    0.00 s
speedup  0.96
cpu  time for grad    0.01 s
wall time for grad    0.01 s
 E :    -45.36477983  G :  0.000115    pred/act E change:  0.000D+00 -0.945D-07
Maxdispl :   0.0065   ||displ|| :   0.0086   Lambda : -0.212D-06
Largest |displ|/coords:  0.0065 (   1)  0.0037 (   2)  0.0021 (   7)

   *** GEOMETRY OPTIMIZATION CONVERGED AFTER 114 ITERATIONS ***

------------------------------------------------------------------------
 total energy gain (kcal):     -0.0001
------------------------------------------------------------------------
================
 final structure:
================
$coord
        1.67340128879132        1.16402172470978       -0.49351482354274      S 
        2.48474314368024       -1.05562142738965        0.90213890703808      O 
        0.83342711974582        3.20221777200200        1.13646561048065      O 
       -0.33646772496839        0.49818474780550       -2.32671204461726      O 
        3.96354475861614        2.08536509787766       -2.07665259711552      O 
        3.27833584672641        3.61882009548103       -2.93062756120670      H 
       -1.57268930012489       -1.70252631333723       -1.98136400010081      H 
       -2.47069393379302       -3.51219702875083       -1.46939512544143      O 
       -3.21908696130118       -3.18639999022823        0.28722333302897      H 
       -0.95320838194184       -4.67066966198235       -1.19862108266929      H 
        1.68863944848234       -5.71422140947543       -0.41359102970577      O 
        1.76794373149430       -6.67439113261391        1.12249333177539      H 
        2.32996318705735       -4.00558896212000        0.00135236433682      H 
       -4.05548707799452       -2.48952543879035        2.96950268843688      O 
       -2.72101288129116       -1.45752086429869        3.81952532046368      H 
       -5.57254741732088       -1.50236094590988        3.04636372613451      H 
       -0.52687082890014        0.32986545609228        4.96781425234439      O 
        0.99027774717471       -0.67104999314877        4.93529952757660      H 
       -0.18363212989496        1.66474572257260        3.72449637918667      H 
        1.10013830480743        5.80228152208185       -3.55547580867199      N 
        1.21650108603724        7.62708740157662       -4.11652471944444      H 
        0.50179251151540        5.73801839797247       -1.73145287224141      H 
       -0.21701155540141        4.91146522990968       -4.61874373816512      H 
$end
 
 Bond Distances (Angstroems)
 ---------------------------
S1-O2=1.4524         S1-O3=1.4508         S1-O4=1.4820         S1-O5=1.5518         O2-S1=1.4524         O3-S1=1.4508         
O4-S1=1.4820         O5-S1=1.5518         O5-H6=0.9971         H6-O5=0.9971         H7-O8=1.1029         O8-H7=1.1029         
O8-H9=1.0250         O8-H10=1.0204        H9-O8=1.0250         H10-O8=1.0204        O11-H12=0.9595       O11-H13=0.9904       
H12-O11=0.9595       H13-O11=0.9904       O14-H15=0.9996       O14-H16=0.9587       H15-O14=0.9996       H16-O14=0.9587       
O17-H18=0.9620       O17-H19=0.9823       H18-O17=0.9620       H19-O17=0.9823       N20-H21=1.0121       N20-H22=1.0164       
N20-H23=1.0122       H21-N20=1.0121       H22-N20=1.0164       H23-N20=1.0122       
 N  H  Rav=1.0136 sigma=0.0020  Rmin=1.0121  Rmax=1.0164     3
 O  H  Rav=0.9998 sigma=0.0410  Rmin=0.9587  Rmax=1.1029    10
 S  O  Rav=1.4843 sigma=0.0409  Rmin=1.4508  Rmax=1.5518     4
 
 selected bond angles (degree)
 --------------------
O3-S1-O2=112.92                O4-S1-O2=110.65                O4-S1-O3=110.24                O5-S1-O2=107.32                
O5-S1-O3=109.07                O5-S1-O4=106.37                H6-O5-S1=102.50                H9-O8-H7=104.08                
H10-O8-H7=102.54               H10-O8-H9=106.13               
 
 selected dihedral angles (degree)
 ---------------------------------
H6-O5-S1-O2=181.48            H6-O5-S1-O3=304.12            H6-O5-S1-O4= 63.01            
 
 CMA Distance (Angstroems)
 ---------------------------
R(CMA):  1.9348

========================================================================
 FINAL SINGLEPOINT CALCULATION ON OPTIMIZED GEOMETRY
========================================================================

 Ncao       : 59
 Nao        : 58
 Nshell     : 34
 Nel        : 72
 T(el)      :   300.0
 intcut     :    25.0
 scfconv/Eh :  0.100E-05
   qconv/e  :  0.100E-03
 intneglect :  0.100E-07
 broydamp   :      0.250
 iter      E             dE          RMSdq      gap      omega  full diag
   1    -45.6108689 -0.456109E+02  0.216E-05    9.02       0.0  T
   2    -45.6108689 -0.426326E-12  0.141E-05    9.02    1481.9  T
   3    -45.6108689 -0.198952E-12  0.321E-06    9.02    6486.1  T
speedup  0.83
cpu  time for SCC    0.00 s
wall time for SCC    0.00 s

   *** convergence criteria satisfied after 3 iterations ***

          eigenvalues
 #    :          24         25         26         27         28         29         30         31
 occ. :        2.000      2.000      2.000      2.000      2.000      2.000      2.000      2.000
 eps  :       -13.903    -13.697    -13.053    -12.639    -12.568    -12.491    -12.335    -12.190
 #    :          32         33         34         35         36         37         38         39
 occ. :        2.000      2.000      2.000      2.000      2.000      0.000      0.000      0.000
 eps  :       -12.029    -12.020    -11.880    -11.717    -11.188     -2.170     -0.242     -0.053
 #    :          40         41         42         43         44         45         46         47
 occ. :        0.000      0.000      0.000      0.000      0.000      0.000      0.000      0.000
 eps  :         0.651      1.067      1.367      1.671      3.148      4.443      5.153      5.710


   #   Z            q   n(s)   n(p)   n(d)      C6AA      α(0)
   1  16 S      1.676  1.588  1.787  0.950    89.322    15.907
   2   8 O     -0.734  1.754  4.981  0.000    29.659     7.302
   3   8 O     -0.744  1.773  4.970  0.000    29.923     7.334
   4   8 O     -0.742  1.774  4.968  0.000    29.721     7.315
   5   8 O     -0.602  1.753  4.849  0.000    25.210     6.778
   6   1 H      0.362  0.638  0.000  0.000     0.553     1.164
   7   1 H      0.394  0.606  0.000  0.000     0.487     1.091
   8   8 O     -0.514  1.732  4.782  0.000    23.133     6.496
   9   1 H      0.378  0.622  0.000  0.000     0.527     1.140
  10   1 H      0.379  0.621  0.000  0.000     0.525     1.138
  11   8 O     -0.601  1.746  4.855  0.000    25.209     6.777
  12   1 H      0.297  0.703  0.000  0.000     0.729     1.341
  13   1 H      0.341  0.659  0.000  0.000     0.610     1.227
  14   8 O     -0.612  1.747  4.866  0.000    25.480     6.813
  15   1 H      0.343  0.657  0.000  0.000     0.605     1.222
  16   1 H      0.294  0.706  0.000  0.000     0.738     1.350
  17   8 O     -0.606  1.742  4.863  0.000    25.320     6.791
  18   1 H      0.301  0.699  0.000  0.000     0.718     1.331
  19   1 H      0.323  0.677  0.000  0.000     0.655     1.271
  20   7 N     -0.456  1.363  4.092  0.000    31.990     8.400
  21   1 H      0.167  0.833  0.000  0.000     1.292     1.780
  22   1 H      0.185  0.815  0.000  0.000     1.188     1.708
  23   1 H      0.170  0.830  0.000  0.000     1.273     1.768

 Mol. C6AA /au·bohr⁶  :       4524.467267
 Mol. C8AA /au·bohr⁸  :      99509.524989
 Mol. α(0) /au        :         97.443446

 
 Wiberg/Mayer (AO) data. WBOs > 0.1 written file <wbo>
 largest (>0.05) Wiberg bond orders for each atom
           total WBO             WBO to atom ...
     1  S   4.847    O    2 1.336    O    3 1.313    O    4 1.190    O    5 0.967
     2  O   1.729    S    1 1.336    O    3 0.106    O    4 0.104    H   13 0.071    O    5 0.067
     3  O   1.723    S    1 1.313    O    2 0.106    O    4 0.100    O    5 0.084    H   19 0.060
     4  O   1.771    S    1 1.190    H    7 0.237    O    2 0.104    O    3 0.100    O    5 0.072    O    8 0.063
     5  O   1.983    S    1 0.967    H    6 0.739    O    3 0.084    O    4 0.072    O    2 0.067
     6  H   0.869    O    5 0.739    N   20 0.113
     7  H   0.845    O    8 0.596    O    4 0.237
     8  O   2.230    H   10 0.729    H    9 0.719    H    7 0.596    O    4 0.063
     9  H   0.857    O    8 0.719    O   14 0.135
    10  H   0.856    O    8 0.729    O   11 0.124
    11  O   1.927    H   12 0.908    H   13 0.809    H   10 0.124
    12  H   0.912    O   11 0.908
    13  H   0.884    O   11 0.809    O    2 0.071
    14  O   1.923    H   16 0.910    H   15 0.782    H    9 0.135
    15  H   0.882    O   14 0.782    O   17 0.098
    16  H   0.913    O   14 0.910
    17  O   1.906    H   18 0.901    H   19 0.830    H   15 0.098
    18  H   0.909    O   17 0.901
    19  H   0.895    O   17 0.830    O    3 0.060
    20  N   3.052    H   23 0.969    H   21 0.967    H   22 0.947    H    6 0.113
    21  H   0.972    N   20 0.967
    22  H   0.966    N   20 0.947
    23  H   0.971    N   20 0.969
 MOs/occ written to file <molden.input>
 
molecular dipole:
                 x           y           z       tot (Debye)
 q only:       -0.989      -0.490      -0.306
   full:       -0.829       0.236      -0.191       2.244
molecular quadrupole (traceless):
                xx          xy          yy          xz          yz          zz
 q only:       -2.321       0.536       6.999       0.333     -10.155      -4.679
  q+dip:       -2.268      -3.167       8.423       2.146     -13.667      -6.155
   full:       -2.491      -2.960       8.724       2.065     -14.114      -6.233

SCC energy    :     -45.6108689
rep           :       0.2459455
ES            :       0.2147436
AES           :      -0.0589421
AXC           :      -0.0073775
disp          :      -0.0165101
XB            :       0.0000000
fix           :       0.0000000
total E       :     -45.3647798
atomizationE  :       4.4478423     2791.06
(atE without considering molecular charge,
 total energy contains solvation terms)
H-L gap (eV)  :          9.0179
optimized geometry written to: xtbopt.xyz


------------------------------------------------------------------------
 * finished run on 2019/09/16 at 11:37:49.872     
------------------------------------------------------------------------
 total:
 * wall-time:     0 d,  0 h,  0 min,  2.401 sec
 *  cpu-time:     0 d,  0 h,  0 min,  2.380 sec
 * ratio c/w:     0.991 speedup
 SCF:
 * wall-time:     0 d,  0 h,  0 min,  0.121 sec
 *  cpu-time:     0 d,  0 h,  0 min,  0.116 sec
 * ratio c/w:     0.961 speedup
 ANC optimizer:
 * wall-time:     0 d,  0 h,  0 min,  2.255 sec
 *  cpu-time:     0 d,  0 h,  0 min,  2.241 sec
 * ratio c/w:     0.993 speedup

