      -----------------------------------------------------------      
     |                   =====================                   |     
     |                           x T B                           |     
     |                   =====================                   |     
     |                         S. Grimme                         |     
     |          Mulliken Center for Theoretical Chemistry        |     
     |                    University of Bonn                     |     
     |                 Version 6.0.1 (SAW181210)                 |     
      -----------------------------------------------------------      

   This program is distributed in the hope that it will be useful,
   but WITHOUT ANY WARRANTY; without even the implied warranty of
   MERCHANTABILITY or FITNESS FOR A PARTICULAR PURPOSE.
   
   FOR NON-COMMERCIAL, ACADEMIA USE ONLY.
   
   Cite this work as:
   S. Grimme, C. Bannwarth, P. Shushkov, J. Comput. Theory Chem., 2017,
   13, 1989-2009.
   C. Bannwarth, S. Ehlert and S. Grimme., ChemRxiv, 2018, preprint.
   http://doi.org/10.26434/chemrxiv.7246238.v1
   
   for sTDA-xTB:
   S. Grimme and C. Bannwarth, J. Chem. Phys., 2016, 145, 054103.
   
   in the mass-spec context:
   V. Asgeirsson, C. Bauer and S. Grimme, Chem. Sci., 2017, 8, 4879.
   
   if GBSA is used:
   P. Shushkov, F. März and S. Grimme, unpublished.
   
   for ANC optimizer:
   S. Grimme, unpublished.
   Rational Function algorithm used in ANCopt:
   F. Eckert, P. Pulay, H.-J. Werner, J. Comput. Chem., 1997, 18, 1473.
   
   with help from (in alphabetical order)
   C. Bannwarth, F. Bohle, G. Brandenburg, E. Caldeweyher, M. Checinski,
   S. Dohm, S. Ehlert, S. Ehrlich, F. März, H. Neugebauer, J. Pisarek,
   P. Pracht, P. Shushkov, and S. Spicher.
   
 * started run on 2019/09/16 at 11:40:22.084     
========================================================================
 # omp threads = 1
========================================================================
number of atoms            : 23
number of electrons        : 72
charge                     : 0
spin                       : .0
first test random number   : .0060

########################################################################
# WARNING! Please study the warnings concerning your input carefully
#  - XTBPATH is not set, using XTBHOME instead
#  - the use of '-opt' is discouraged, please use '--opt' next time
#  - the use of '-chrg' is discouraged, please use '--chrg' next time
#  - the use of '-uhf' is discouraged, please use '--uhf' next time
########################################################################

           ------------------------------------------------- 
          |                 G F N 2 - x T B                 |
          | Geometry, Frequencies, Noncovalent interactions |
          |            JCTC 2018 parametrisation            |
           ------------------------------------------------- 
      method parameters     
 k(s)        :  1.8500
 k(p)        :  2.2300
 k(d)        :  2.2300
 k(f)        :  2.0000
 kEN (H0ij)  : -2.0000
 D4 a1       :  0.5200
 D4 a2       :  5.0000
 D4 s6       :  1.0000
 D4 s8       :  2.7000
 D4 s9       :  5.0000
 alphaj      :  2.0000


            Z     q(EN)     CN     RAES       Cart. coordinates
     1  S   6.0    0.60    4.51    4.58     2.46054    -2.10800     2.07997
     2  O   6.0   -0.32    1.20    1.80     0.45759    -3.41967     0.59814
     3  O   6.0   -0.33    1.22    1.80     1.65871     0.53988     2.60337
     4  O   6.0   -0.27    2.10    1.84     4.82576    -2.08848     0.62468
     5  O   6.0   -0.25    2.08    1.84     2.86171    -3.44542     4.48057
     6  H   1.0    0.14    1.22    1.47     4.58130    -4.01547     4.57618
     7  H   1.0    0.17    1.28    1.49     4.56458    -1.21497    -0.94371
     8  O   6.0   -0.28    1.98    1.82    -1.41316     1.22120    -4.46828
     9  H   1.0    0.16    1.03    1.43    -2.53786     0.02440    -3.68256
    10  H   1.0    0.15    1.01    1.43    -1.14289     2.51893    -3.22030
    11  O   6.0   -0.30    2.02    1.83     0.45747     4.25687    -0.61302
    12  H   1.0    0.17    1.04    1.43     0.75475     3.02778     0.69678
    13  H   1.0    0.15    0.97    1.43     0.02775     5.79591     0.25951
    14  O   6.0   -0.30    2.03    1.83    -3.89020    -2.21471    -1.65176
    15  H   1.0    0.17    1.05    1.44    -2.33808    -2.74007    -0.85831
    16  H   1.0    0.15    0.97    1.43    -4.96118    -3.68691    -1.63621
    17  O   6.0   -0.28    2.04    1.83     3.50727     0.87571    -3.19522
    18  H   1.0    0.16    1.00    1.43     2.13392     0.44414    -4.30980
    19  H   1.0    0.16    1.00    1.43     3.08058     2.51004    -2.51586
    20  N   5.0   -0.20    2.92    1.92    -3.99688     0.68131     3.24750
    21  H   1.0    0.11    1.01    1.43    -4.33507    -0.28539     1.61588
    22  H   1.0    0.12    1.01    1.43    -2.08238     0.86265     3.36087
    23  H   1.0    0.10    0.99    1.43    -4.67424     2.46026     2.95154

  Z AO/shell   Hii/eV     exponent
  1     Wed Apr 25 08:07:45 CEST 2018   EN: 2.200 GM2: 0.406  GM3: 0.0800  RAES: 1.40
     1s    -10.707211    1.230000
  7     Wed Apr 25 08:07:45 CEST 2018   EN: 3.040 GM2: 0.461  GM3:-0.0640  RAES: 1.90
     2s    -16.686243    2.339881
     2p    -12.523956    2.014332
  8     Wed Apr 25 08:07:45 CEST 2018   EN: 3.440 GM2: 0.452  GM3:-0.0517  RAES: 1.80
     2s    -20.229985    2.439742
     2p    -15.503117    2.137023
 16     Tue Apr 24 11:44:34 CEST 2018   EN: 2.580 GM2: 0.340  GM3:-0.0502  RAES: 3.10
     3s    -20.029654    1.981333
     3p    -11.377694    2.025643
     3d     -0.420282    1.702555
 no old-style atom pair restraining (fixing) potential

molecular fragmentation (1/2 indicates fragments):
11111112222222222222222
# atoms in fragment 1/2:     7    16
 fragment masses (1/2) :       98.07       89.09
CMA distance (Bohr)    :   5.821
constraining FC (au)   :  0.0500
           ------------------------------------------------- 
          |        Self-Consistent Charge Iterations        |
           ------------------------------------------------- 

 Ncao       : 59
 Nao        : 58
 Nshell     : 34
 Nel        : 72
 T(el)      :   300.0
 intcut     :    25.0
 scfconv/Eh :  0.100E-05
   qconv/e  :  0.100E-03
 intneglect :  0.100E-07
 broydamp   :      0.250
 iter      E             dE          RMSdq      gap      omega  full diag
   1    -45.4959514 -0.454960E+02  0.717E+00   10.09       0.0  T
   2    -45.5537709 -0.578196E-01  0.517E+00    8.64       1.0  T
   3    -45.5907405 -0.369696E-01  0.157E+00    5.90       1.0  T
   4    -45.5975935 -0.685301E-02  0.605E-01    6.25       1.0  T
   5    -45.5981955 -0.602033E-03  0.392E-01    6.06       1.0  T
   6    -45.5989194 -0.723890E-03  0.171E-01    6.07       1.0  T
   7    -45.5990912 -0.171778E-03  0.689E-02    6.09       1.0  T
   8    -45.5991155 -0.243411E-04  0.404E-02    6.10       1.0  T
   9    -45.5991253 -0.974716E-05  0.143E-02    6.12       1.5  T
  10    -45.5991265 -0.124074E-05  0.283E-03    6.12       7.4  T
  11    -45.5991266 -0.207951E-07  0.143E-03    6.12      14.6  T
  12    -45.5991266 -0.814973E-08  0.584E-04    6.12      35.7  T
  13    -45.5991266 -0.150560E-08  0.168E-04    6.12     123.9  T
speedup  1.01
cpu  time for SCC    0.01 s
wall time for SCC    0.01 s

   *** convergence criteria satisfied after 13 iterations ***

          eigenvalues
 #    :          24         25         26         27         28         29         30         31
 occ. :        2.000      2.000      2.000      2.000      2.000      2.000      2.000      2.000
 eps  :       -13.410    -13.083    -13.074    -12.769    -12.730    -12.535    -12.444    -12.200
 #    :          32         33         34         35         36         37         38         39
 occ. :        2.000      2.000      2.000      2.000      2.000      0.000      0.000      0.000
 eps  :       -12.097    -12.012    -11.519    -10.886     -9.568     -3.451     -2.215     -1.020
 #    :          40         41         42         43         44         45         46         47
 occ. :        0.000      0.000      0.000      0.000      0.000      0.000      0.000      0.000
 eps  :        -0.245      0.975      2.171      2.934      3.433      3.529      5.305      5.836


   #   Z            q   n(s)   n(p)   n(d)      C6AA      α(0)
   1  16 S      1.739  1.570  1.758  0.933    87.880    15.778
   2   8 O     -0.709  1.772  4.937  0.000    28.950     7.214
   3   8 O     -0.717  1.771  4.946  0.000    29.172     7.242
   4   8 O     -0.584  1.716  4.868  0.000    24.775     6.720
   5   8 O     -0.529  1.718  4.811  0.000    23.516     6.547
   6   1 H      0.384  0.616  0.000  0.000     0.507     1.114
   7   1 H      0.426  0.574  0.000  0.000     0.433     1.030
   8   8 O     -0.638  1.751  4.887  0.000    26.103     6.896
   9   1 H      0.313  0.687  0.000  0.000     0.682     1.297
  10   1 H      0.305  0.695  0.000  0.000     0.707     1.321
  11   8 O     -0.611  1.738  4.872  0.000    25.441     6.808
  12   1 H      0.327  0.673  0.000  0.000     0.644     1.260
  13   1 H      0.286  0.714  0.000  0.000     0.765     1.374
  14   8 O     -0.603  1.739  4.864  0.000    25.255     6.783
  15   1 H      0.330  0.670  0.000  0.000     0.637     1.254
  16   1 H      0.285  0.715  0.000  0.000     0.769     1.377
  17   8 O     -0.638  1.744  4.893  0.000    26.101     6.895
  18   1 H      0.334  0.666  0.000  0.000     0.627     1.243
  19   1 H      0.323  0.677  0.000  0.000     0.656     1.272
  20   7 N     -0.470  1.413  4.057  0.000    32.412     8.455
  21   1 H      0.166  0.834  0.000  0.000     1.295     1.782
  22   1 H      0.147  0.853  0.000  0.000     1.422     1.868
  23   1 H      0.131  0.869  0.000  0.000     1.536     1.941

 Mol. C6AA /au·bohr⁶  :       4516.919026
 Mol. C8AA /au·bohr⁸  :      98992.755586
 Mol. α(0) /au        :         97.470839

 
 Wiberg/Mayer (AO) data. WBOs > 0.1 written file <wbo>
 largest (>0.05) Wiberg bond orders for each atom
           total WBO             WBO to atom ...
     1  S   4.789    O    2 1.345    O    3 1.324    O    4 1.046    O    5 1.030
     2  O   1.711    S    1 1.345    O    3 0.136    O    4 0.090    O    5 0.075
     3  O   1.710    S    1 1.324    O    2 0.136    O    4 0.089    O    5 0.073
     4  O   2.023    S    1 1.046    H    7 0.716    O    2 0.090    O    3 0.089
     5  O   2.066    S    1 1.030    H    6 0.828    O    2 0.075    O    3 0.073
     6  H   0.852    O    5 0.828
     7  H   0.819    O    4 0.716    O   17 0.081
     8  O   1.830    H   10 0.876    H    9 0.861
     9  H   0.902    O    8 0.861
    10  H   0.907    O    8 0.876
    11  O   1.850    H   13 0.909    H   12 0.845
    12  H   0.893    O   11 0.845
    13  H   0.918    O   11 0.909
    14  O   1.866    H   16 0.909    H   15 0.844
    15  H   0.891    O   14 0.844
    16  H   0.919    O   14 0.909
    17  O   1.866    H   19 0.870    H   18 0.851    H    7 0.081
    18  H   0.888    O   17 0.851
    19  H   0.896    O   17 0.870
    20  N   2.922    H   23 0.981    H   22 0.961    H   21 0.950
    21  H   0.972    N   20 0.950
    22  H   0.978    N   20 0.961
    23  H   0.983    N   20 0.981
 MOs/occ written to file <molden.input>
 
molecular dipole:
                 x           y           z       tot (Debye)
 q only:        1.742      -0.739       0.995
   full:        2.172      -0.812       1.326       6.789
molecular quadrupole (traceless):
                xx          xy          yy          xz          yz          zz
 q only:        4.447      -6.566       6.361       9.633      -2.215     -10.808
  q+dip:        4.434      -8.588      11.680      15.253      -1.108     -16.114
   full:        4.433      -8.752      11.720      15.423      -1.267     -16.153

SCC energy    :     -45.5991266
rep           :       0.2826476
ES            :       0.2159487
AES           :      -0.0434414
AXC           :      -0.0056624
disp          :      -0.0162113
XB            :       0.0000000
fix           :       0.0000000
total E       :     -45.3162117
atomizationE  :       4.3992742     2760.59
(atE without considering molecular charge,
 total energy contains solvation terms)
H-L gap (eV)  :          6.1176
           ------------------------------------------------- 
          |                 ===============                 |
          |                   A N C O P T                   |
          |                 ===============                 |
          |          Approximate Normal Coordinate          |
          |           Rational Function Optimizer           |
           ------------------------------------------------- 
dumping coords to <xtbopt.coord> and <xtbopt.log>
 optlevel               2
 Maxcycle             460
 Maxmicro              25
 Econv         1.000000000000000E-007
 Gconv         2.000000000000000E-004
 Maxdispl       1.00000000000000     
 Hlow          5.000000000000000E-003
 S6             20.0000000000000     
 Nvar               63

generating ANC from model Hessian ...
 Shifting diagonal of input Hessian by   4.877767761933307E-003
 Lowest  eigenvalues of input Hessian
   -0.000000   -0.000000   -0.000000    0.000000    0.000000    0.000000
    0.005000    0.005235    0.005772    0.006115    0.006567    0.006736
    0.007152    0.007556    0.008164    0.008433    0.009508    0.010244
 Highest eigenvalues
    1.424537    1.445336    1.553246    3.216255    3.414516    3.465068
 
cpu  time for ANC gen    0.01 s
wall time for ANC gen    0.02 s
................................................................................
.............................. CYCLE    1 ......................................
................................................................................
   1    -45.5991266 -0.455991E+02  0.734E-05    6.12       0.0  T
   2    -45.5991266 -0.130029E-10  0.589E-05    6.12     354.1  T
   3    -45.5991266 -0.107505E-10  0.370E-05    6.12     563.8  T
speedup  0.80
cpu  time for SCC    0.00 s
wall time for SCC    0.00 s
speedup  0.93
cpu  time for grad    0.01 s
wall time for grad    0.01 s
 E :    -45.31621162  G :  0.205600    pred/act E change:  0.000D+00  0.390D-07
Maxdispl :   0.1391   ||displ|| :   0.2925   Lambda : -0.173D-01
Largest |displ|/coords:  0.1391 (  23)  0.1243 (  15)  0.1018 (  21)
................................................................................
.............................. CYCLE    2 ......................................
................................................................................
   1    -45.6063632 -0.456064E+02  0.285E-01    6.15       0.0  T
   2    -45.6065525 -0.189262E-03  0.224E-01    6.17       1.0  T
   3    -45.6066134 -0.609697E-04  0.115E-01    6.20       1.0  T
   4    -45.6066219 -0.847378E-05  0.254E-02    6.21       1.0  T
   5    -45.6066228 -0.922013E-06  0.485E-03    6.21       4.3  T
   6    -45.6066228 -0.254865E-07  0.288E-03    6.21       7.2  T
speedup  1.00
cpu  time for SCC    0.01 s
wall time for SCC    0.00 s
speedup  0.86
cpu  time for grad    0.01 s
wall time for grad    0.01 s
 E :    -45.33020738  G :  0.135648    pred/act E change:  0.000D+00 -0.140D-01
Maxdispl :   0.1001   ||displ|| :   0.2621   Lambda : -0.117D-01
Largest |displ|/coords:  0.1001 (  15)  0.0991 (  23)  0.0848 (  29)
................................................................................
.............................. CYCLE    3 ......................................
................................................................................
   1    -45.6151505 -0.456152E+02  0.244E-01    6.21       0.0  T
   2    -45.6154053 -0.254838E-03  0.196E-01    6.24       1.0  T
   3    -45.6154746 -0.693375E-04  0.133E-01    6.27       1.0  T
   4    -45.6154798 -0.514686E-05  0.247E-02    6.30       1.0  T
   5    -45.6154803 -0.472709E-06  0.449E-03    6.30       4.6  T
   6    -45.6154803 -0.230094E-07  0.218E-03    6.30       9.6  T
speedup  1.04
cpu  time for SCC    0.01 s
wall time for SCC    0.00 s
speedup  1.03
cpu  time for grad    0.01 s
wall time for grad    0.01 s
 E :    -45.33905086  G :  0.066479    pred/act E change: -0.938D-02 -0.884D-02
Maxdispl :   0.1042   ||displ|| :   0.2739   Lambda : -0.475D-02
Largest |displ|/coords:  0.1042 (  15)  0.1000 (   7)  0.0865 (  23)
................................................................................
.............................. CYCLE    4 ......................................
................................................................................
   1    -45.6173389 -0.456173E+02  0.219E-01    6.18       0.0  T
   2    -45.6174772 -0.138312E-03  0.171E-01    6.21       1.0  T
   3    -45.6175181 -0.408626E-04  0.955E-02    6.25       1.0  T
   4    -45.6175223 -0.423141E-05  0.198E-02    6.27       1.1  T
   5    -45.6175227 -0.373892E-06  0.393E-03    6.26       5.3  T
   6    -45.6175227 -0.161938E-07  0.206E-03    6.26      10.1  T
speedup  0.85
cpu  time for SCC    0.00 s
wall time for SCC    0.00 s
speedup  0.97
cpu  time for grad    0.01 s
wall time for grad    0.01 s
 E :    -45.34243433  G :  0.027106    pred/act E change: -0.623D-02 -0.338D-02
Maxdispl :   0.1183   ||displ|| :   0.3368   Lambda : -0.237D-02
Largest |displ|/coords:  0.1183 (   7)  0.1131 (   1)  0.0876 (  16)
................................................................................
.............................. CYCLE    5 ......................................
................................................................................
   1    -45.6161262 -0.456161E+02  0.218E-01    6.06       0.0  T
   2    -45.6162076 -0.814327E-04  0.168E-01    6.08       1.0  T
   3    -45.6162312 -0.235510E-04  0.683E-02    6.13       1.0  T
   4    -45.6162375 -0.629991E-05  0.179E-02    6.13       1.2  T
   5    -45.6162377 -0.290139E-06  0.331E-03    6.13       6.3  T
   6    -45.6162378 -0.143397E-07  0.189E-03    6.13      11.0  T
speedup  1.04
cpu  time for SCC    0.00 s
wall time for SCC    0.00 s
speedup  0.96
cpu  time for grad    0.01 s
wall time for grad    0.01 s
 E :    -45.34393163  G :  0.018680    pred/act E change: -0.256D-02 -0.150D-02
Maxdispl :   0.1066   ||displ|| :   0.2945   Lambda : -0.971D-03
Largest |displ|/coords:  0.1066 (   7)  0.0950 (  15)  0.0940 (  11)
................................................................................
.............................. CYCLE    6 ......................................
................................................................................
   1    -45.6118131 -0.456118E+02  0.201E-01    5.95       0.0  T
   2    -45.6118327 -0.196223E-04  0.150E-01    5.96       1.0  T
   3    -45.6118467 -0.139127E-04  0.282E-02    6.00       1.0  T
   4    -45.6118492 -0.255238E-05  0.115E-02    6.00       1.8  T
   5    -45.6118494 -0.161803E-06  0.316E-03    6.00       6.6  T
   6    -45.6118494 -0.152951E-07  0.191E-03    6.00      10.9  T
   7    -45.6118494 -0.667718E-08  0.438E-04    6.00      47.6  T
speedup  1.09
cpu  time for SCC    0.01 s
wall time for SCC    0.01 s
speedup  0.98
cpu  time for grad    0.01 s
wall time for grad    0.01 s
 E :    -45.34431659  G :  0.022596    pred/act E change: -0.132D-02 -0.385D-03
Maxdispl :   0.1218   ||displ|| :   0.2512   Lambda : -0.969D-03
Largest |displ|/coords:  0.1218 (   1)  0.0864 (   3)  0.0843 (   7)
................................................................................
.............................. CYCLE    7 ......................................
................................................................................
   1    -45.6110406 -0.456110E+02  0.168E-01    5.92       0.0  T
   2    -45.6110459 -0.525792E-05  0.125E-01    5.93       1.0  T
   3    -45.6110504 -0.454124E-05  0.165E-02    5.95       1.3  T
   4    -45.6110509 -0.508261E-06  0.672E-03    5.95       3.1  T
   5    -45.6110510 -0.425184E-07  0.158E-03    5.95      13.2  T
   6    -45.6110510 -0.232861E-08  0.109E-03    5.95      19.1  T
speedup  1.06
cpu  time for SCC    0.00 s
wall time for SCC    0.00 s
speedup  0.98
cpu  time for grad    0.01 s
wall time for grad    0.01 s
 E :    -45.34478164  G :  0.017201    pred/act E change: -0.528D-03 -0.465D-03
Maxdispl :   0.0509   ||displ|| :   0.1141   Lambda : -0.453D-03
Largest |displ|/coords:  0.0509 (   7)  0.0338 (  30)  0.0332 (  11)
................................................................................
.............................. CYCLE    8 ......................................
................................................................................
   1    -45.6145125 -0.456145E+02  0.934E-02    6.03       0.0  T
   2    -45.6145199 -0.738713E-05  0.698E-02    6.03       1.0  T
   3    -45.6145232 -0.328675E-05  0.196E-02    6.03       1.1  T
   4    -45.6145240 -0.814522E-06  0.587E-03    6.03       3.6  T
   5    -45.6145240 -0.472841E-07  0.129E-03    6.03      16.2  T
   6    -45.6145240 -0.169623E-08  0.709E-04    6.03      29.4  T
speedup  1.06
cpu  time for SCC    0.00 s
wall time for SCC    0.00 s
speedup  1.06
cpu  time for grad    0.01 s
wall time for grad    0.01 s
 E :    -45.34501035  G :  0.010528    pred/act E change: -0.515D-03 -0.229D-03
Maxdispl :   0.1120   ||displ|| :   0.2142   Lambda : -0.536D-03
Largest |displ|/coords:  0.1120 (   7)  0.0755 (   6)  0.0721 (  11)
................................................................................
.............................. CYCLE    9 ......................................
................................................................................
   1    -45.6122169 -0.456122E+02  0.189E-01    6.14       0.0  T
   2    -45.6122310 -0.140819E-04  0.141E-01    6.15       1.0  T
   3    -45.6122372 -0.615627E-05  0.267E-02    6.18       1.0  T
   4    -45.6122393 -0.215280E-05  0.966E-03    6.17       2.2  T
   5    -45.6122394 -0.719787E-07  0.209E-03    6.17      10.0  T
   6    -45.6122394 -0.382190E-08  0.117E-03    6.17      17.8  T
speedup  1.09
cpu  time for SCC    0.01 s
wall time for SCC    0.00 s
speedup  1.06
cpu  time for grad    0.01 s
wall time for grad    0.01 s
 E :    -45.34525995  G :  0.011774    pred/act E change: -0.230D-03 -0.250D-03
Maxdispl :   0.0668   ||displ|| :   0.1627   Lambda : -0.264D-03
Largest |displ|/coords:  0.0668 (   3)  0.0518 (  11)  0.0467 (  23)
................................................................................
.............................. CYCLE   10 ......................................
................................................................................
   1    -45.6126276 -0.456126E+02  0.102E-01    6.19       0.0  T
   2    -45.6126330 -0.539115E-05  0.748E-02    6.19       1.0  T
   3    -45.6126359 -0.290859E-05  0.183E-02    6.20       1.1  T
   4    -45.6126365 -0.639855E-06  0.549E-03    6.20       3.8  T
   5    -45.6126366 -0.437452E-07  0.144E-03    6.20      14.5  T
   6    -45.6126366 -0.260755E-08  0.924E-04    6.20      22.6  T
speedup  0.85
cpu  time for SCC    0.00 s
wall time for SCC    0.00 s
speedup  0.96
cpu  time for grad    0.01 s
wall time for grad    0.01 s
 E :    -45.34543520  G :  0.008305    pred/act E change: -0.280D-03 -0.175D-03
Maxdispl :   0.0945   ||displ|| :   0.2040   Lambda : -0.256D-03
Largest |displ|/coords:  0.0945 (   6)  0.0744 (   7)  0.0629 (   2)
................................................................................
.............................. CYCLE   11 ......................................
................................................................................
   1    -45.6120656 -0.456121E+02  0.141E-01    6.23       0.0  T
   2    -45.6120736 -0.801546E-05  0.103E-01    6.24       1.0  T
   3    -45.6120783 -0.467728E-05  0.225E-02    6.26       1.0  T
   4    -45.6120793 -0.966252E-06  0.719E-03    6.26       2.9  T
   5    -45.6120793 -0.608167E-07  0.185E-03    6.26      11.3  T
   6    -45.6120793 -0.425346E-08  0.117E-03    6.26      17.8  T
speedup  1.00
cpu  time for SCC    0.00 s
wall time for SCC    0.01 s
speedup  0.95
cpu  time for grad    0.01 s
wall time for grad    0.01 s
 E :    -45.34555663  G :  0.007943    pred/act E change: -0.136D-03 -0.121D-03
Maxdispl :   0.1065   ||displ|| :   0.1897   Lambda : -0.248D-03
Largest |displ|/coords:  0.1065 (   5)  0.0545 (  11)  0.0531 (  21)
................................................................................
.............................. CYCLE   12 ......................................
................................................................................
   1    -45.6132526 -0.456133E+02  0.161E-01    6.31       0.0  T
   2    -45.6132622 -0.962099E-05  0.119E-01    6.31       1.0  T
   3    -45.6132675 -0.528474E-05  0.236E-02    6.30       1.0  T
   4    -45.6132688 -0.132767E-05  0.668E-03    6.31       3.1  T
   5    -45.6132689 -0.551715E-07  0.200E-03    6.31      10.4  T
   6    -45.6132689 -0.425624E-08  0.114E-03    6.31      18.3  T
speedup  1.04
cpu  time for SCC    0.01 s
wall time for SCC    0.00 s
speedup  1.05
cpu  time for grad    0.01 s
wall time for grad    0.01 s
 E :    -45.34559534  G :  0.013996    pred/act E change: -0.133D-03 -0.387D-04
Maxdispl :   0.0521   ||displ|| :   0.1178   Lambda : -0.316D-03
Largest |displ|/coords:  0.0521 (   2)  0.0393 (   1)  0.0347 (  22)
................................................................................
.............................. CYCLE   13 ......................................
................................................................................
   1    -45.6151905 -0.456152E+02  0.865E-02    6.31       0.0  T
   2    -45.6151948 -0.428207E-05  0.642E-02    6.31       1.0  T
   3    -45.6151973 -0.246484E-05  0.120E-02    6.32       1.7  T
   4    -45.6151978 -0.559171E-06  0.334E-03    6.31       6.2  T
   5    -45.6151978 -0.139270E-07  0.129E-03    6.31      16.2  T
   6    -45.6151978 -0.146894E-08  0.570E-04    6.31      36.6  T
speedup  1.09
cpu  time for SCC    0.00 s
wall time for SCC    0.00 s
speedup  1.07
cpu  time for grad    0.01 s
wall time for grad    0.01 s
 E :    -45.34574754  G :  0.007538    pred/act E change: -0.129D-03 -0.152D-03
Maxdispl :   0.0889   ||displ|| :   0.1753   Lambda : -0.225D-03
Largest |displ|/coords:  0.0889 (   6)  0.0699 (   2)  0.0541 (   9)
................................................................................
.............................. CYCLE   14 ......................................
................................................................................
   1    -45.6100919 -0.456101E+02  0.147E-01    6.23       0.0  T
   2    -45.6100972 -0.530776E-05  0.109E-01    6.24       1.0  T
   3    -45.6101006 -0.343944E-05  0.137E-02    6.27       1.5  T
   4    -45.6101014 -0.749566E-06  0.400E-03    6.26       5.2  T
   5    -45.6101014 -0.173021E-07  0.166E-03    6.26      12.5  T
   6    -45.6101014 -0.340108E-08  0.772E-04    6.26      27.0  T
speedup  1.09
cpu  time for SCC    0.00 s
wall time for SCC    0.00 s
speedup  1.07
cpu  time for grad    0.01 s
wall time for grad    0.01 s
 E :    -45.34581157  G :  0.010980    pred/act E change: -0.160D-03 -0.640D-04
Maxdispl :   0.0820   ||displ|| :   0.1751   Lambda : -0.313D-03
Largest |displ|/coords:  0.0820 (   5)  0.0788 (   9)  0.0506 (  10)
................................................................................
.............................. CYCLE   15 ......................................
................................................................................
   1    -45.6104464 -0.456104E+02  0.131E-01    6.19       0.0  T
   2    -45.6104553 -0.881747E-05  0.973E-02    6.18       1.0  T
   3    -45.6104612 -0.593020E-05  0.187E-02    6.17       1.1  T
   4    -45.6104623 -0.112707E-05  0.447E-03    6.18       4.7  T
   5    -45.6104623 -0.328285E-07  0.209E-03    6.18      10.0  T
   6    -45.6104624 -0.500715E-08  0.960E-04    6.18      21.7  T
speedup  1.06
cpu  time for SCC    0.01 s
wall time for SCC    0.00 s
speedup  1.05
cpu  time for grad    0.01 s
wall time for grad    0.01 s
 E :    -45.34576151  G :  0.016051    pred/act E change: -0.116D-03  0.501D-04
Maxdispl :   0.0434   ||displ|| :   0.1115   Lambda : -0.444D-03
Largest |displ|/coords:  0.0434 (  15)  0.0428 (  21)  0.0409 (  10)
................................................................................
.............................. CYCLE   16 ......................................
................................................................................
   1    -45.6119889 -0.456120E+02  0.114E-01    6.19       0.0  T
   2    -45.6119936 -0.465806E-05  0.866E-02    6.19       1.0  T
   3    -45.6119975 -0.391979E-05  0.133E-02    6.19       1.6  T
   4    -45.6119980 -0.563993E-06  0.445E-03    6.19       4.7  T
   5    -45.6119981 -0.328854E-07  0.135E-03    6.19      15.5  T
   6    -45.6119981 -0.153277E-08  0.753E-04    6.19      27.7  T
speedup  1.04
cpu  time for SCC    0.00 s
wall time for SCC    0.00 s
speedup  0.96
cpu  time for grad    0.01 s
wall time for grad    0.01 s
 E :    -45.34596403  G :  0.005632    pred/act E change: -0.161D-03 -0.203D-03
Maxdispl :   0.0556   ||displ|| :   0.1331   Lambda : -0.121D-03
Largest |displ|/coords:  0.0556 (   6)  0.0527 (   2)  0.0469 (   5)
................................................................................
.............................. CYCLE   17 ......................................
................................................................................
   1    -45.6106483 -0.456106E+02  0.106E-01    6.22       0.0  T
   2    -45.6106516 -0.327309E-05  0.787E-02    6.23       1.0  T
   3    -45.6106532 -0.157312E-05  0.106E-02    6.24       2.0  T
   4    -45.6106537 -0.541050E-06  0.331E-03    6.24       6.3  T
   5    -45.6106537 -0.220350E-07  0.121E-03    6.24      17.3  T
   6    -45.6106537 -0.156111E-08  0.705E-04    6.24      29.6  T
speedup  1.06
cpu  time for SCC    0.00 s
wall time for SCC    0.00 s
speedup  0.97
cpu  time for grad    0.01 s
wall time for grad    0.01 s
 E :    -45.34600805  G :  0.007182    pred/act E change: -0.225D-03 -0.440D-04
Maxdispl :   0.0487   ||displ|| :   0.0944   Lambda : -0.870D-04
Largest |displ|/coords:  0.0487 (   2)  0.0410 (   9)  0.0321 (   1)
................................................................................
.............................. CYCLE   18 ......................................
................................................................................
   1    -45.6105841 -0.456106E+02  0.597E-02    6.24       0.0  T
   2    -45.6105850 -0.860769E-06  0.439E-02    6.24       1.0  T
   3    -45.6105856 -0.617224E-06  0.660E-03    6.25       3.2  T
   4    -45.6105857 -0.961872E-07  0.216E-03    6.25       9.6  T
   5    -45.6105857 -0.520232E-08  0.682E-04    6.25      30.6  T
speedup  1.03
cpu  time for SCC    0.00 s
wall time for SCC    0.00 s
speedup  0.95
cpu  time for grad    0.01 s
wall time for grad    0.01 s
 E :    -45.34607076  G :  0.005046    pred/act E change: -0.615D-04 -0.627D-04
Maxdispl :   0.1283   ||displ|| :   0.2407   Lambda : -0.140D-03
Largest |displ|/coords:  0.1283 (   2)  0.0941 (   9)  0.0792 (   1)
................................................................................
.............................. CYCLE   19 ......................................
................................................................................
   1    -45.6108067 -0.456108E+02  0.127E-01    6.25       0.0  T
   2    -45.6108105 -0.375076E-05  0.944E-02    6.25       1.0  T
   3    -45.6108133 -0.281238E-05  0.142E-02    6.26       1.5  T
   4    -45.6108138 -0.488391E-06  0.527E-03    6.26       4.0  T
   5    -45.6108138 -0.350731E-07  0.155E-03    6.26      13.4  T
   6    -45.6108138 -0.315760E-08  0.989E-04    6.26      21.1  T
speedup  1.06
cpu  time for SCC    0.01 s
wall time for SCC    0.00 s
speedup  1.04
cpu  time for grad    0.01 s
wall time for grad    0.01 s
 E :    -45.34615717  G :  0.004699    pred/act E change: -0.439D-04 -0.864D-04
Maxdispl :   0.1667   ||displ|| :   0.3180   Lambda : -0.116D-03
Largest |displ|/coords:  0.1667 (   2)  0.1049 (   9)  0.0944 (   1)
................................................................................
.............................. CYCLE   20 ......................................
................................................................................
   1    -45.6086112 -0.456086E+02  0.188E-01    6.25       0.0  T
   2    -45.6086221 -0.108537E-04  0.140E-01    6.26       1.0  T
   3    -45.6086288 -0.671884E-05  0.197E-02    6.28       1.1  T
   4    -45.6086305 -0.164948E-05  0.745E-03    6.28       2.8  T
   5    -45.6086306 -0.797495E-07  0.245E-03    6.28       8.5  T
   6    -45.6086306 -0.691436E-08  0.146E-03    6.28      14.3  T
speedup  1.00
cpu  time for SCC    0.00 s
wall time for SCC    0.01 s
speedup  1.03
cpu  time for grad    0.01 s
wall time for grad    0.01 s
 E :    -45.34621645  G :  0.006215    pred/act E change: -0.742D-04 -0.593D-04
Maxdispl :   0.1006   ||displ|| :   0.1621   Lambda : -0.109D-03
Largest |displ|/coords:  0.1006 (   2)  0.0512 (   3)  0.0470 (   1)
................................................................................
.............................. CYCLE   21 ......................................
................................................................................
   1    -45.6112399 -0.456112E+02  0.813E-02    6.36       0.0  T
   2    -45.6112427 -0.277767E-05  0.602E-02    6.35       1.0  T
   3    -45.6112441 -0.136803E-05  0.117E-02    6.34       1.8  T
   4    -45.6112445 -0.419044E-06  0.308E-03    6.35       6.8  T
   5    -45.6112445 -0.143830E-07  0.105E-03    6.35      19.8  T
   6    -45.6112445 -0.150057E-08  0.600E-04    6.35      34.8  T
speedup  0.83
cpu  time for SCC    0.00 s
wall time for SCC    0.00 s
speedup  0.96
cpu  time for grad    0.01 s
wall time for grad    0.01 s
 E :    -45.34625890  G :  0.005083    pred/act E change: -0.640D-04 -0.424D-04
Maxdispl :   0.1057   ||displ|| :   0.1542   Lambda : -0.893D-04
Largest |displ|/coords:  0.1057 (   2)  0.0453 (   1)  0.0397 (   8)
................................................................................
.............................. CYCLE   22 ......................................
................................................................................
   1    -45.6106135 -0.456106E+02  0.917E-02    6.35       0.0  T
   2    -45.6106153 -0.176359E-05  0.679E-02    6.36       1.0  T
   3    -45.6106166 -0.133212E-05  0.846E-03    6.37       2.5  T
   4    -45.6106168 -0.225300E-06  0.271E-03    6.37       7.7  T
   5    -45.6106168 -0.869346E-08  0.106E-03    6.37      19.7  T
speedup  0.98
cpu  time for SCC    0.00 s
wall time for SCC    0.00 s
speedup  1.03
cpu  time for grad    0.01 s
wall time for grad    0.01 s
 E :    -45.34631486  G :  0.004171    pred/act E change: -0.560D-04 -0.560D-04
Maxdispl :   0.1667   ||displ|| :   0.2498   Lambda : -0.870D-04
Largest |displ|/coords:  0.1667 (   2)  0.0778 (   1)  0.0692 (   9)
................................................................................
.............................. CYCLE   23 ......................................
................................................................................
   1    -45.6079498 -0.456079E+02  0.141E-01    6.31       0.0  T
   2    -45.6079540 -0.420773E-05  0.104E-01    6.31       1.0  T
   3    -45.6079574 -0.340065E-05  0.160E-02    6.32       1.3  T
   4    -45.6079579 -0.497240E-06  0.499E-03    6.32       4.2  T
   5    -45.6079580 -0.333766E-07  0.162E-03    6.32      12.8  T
   6    -45.6079580 -0.368215E-08  0.101E-03    6.32      20.7  T
speedup  0.85
cpu  time for SCC    0.00 s
wall time for SCC    0.00 s
speedup  0.96
cpu  time for grad    0.01 s
wall time for grad    0.01 s
 E :    -45.34635612  G :  0.005748    pred/act E change: -0.457D-04 -0.413D-04
Maxdispl :   0.1214   ||displ|| :   0.1577   Lambda : -0.115D-03
Largest |displ|/coords:  0.1214 (   2)  0.0460 (   1)  0.0445 (  13)
................................................................................
.............................. CYCLE   24 ......................................
................................................................................
   1    -45.6094831 -0.456095E+02  0.879E-02    6.35       0.0  T
   2    -45.6094850 -0.189163E-05  0.634E-02    6.35       1.0  T
   3    -45.6094865 -0.152315E-05  0.105E-02    6.35       2.0  T
   4    -45.6094866 -0.121421E-06  0.293E-03    6.35       7.1  T
   5    -45.6094867 -0.122992E-07  0.942E-04    6.35      22.1  T
speedup  0.98
cpu  time for SCC    0.00 s
wall time for SCC    0.00 s
speedup  1.02
cpu  time for grad    0.01 s
wall time for grad    0.01 s
 E :    -45.34640469  G :  0.004751    pred/act E change: -0.462D-04 -0.486D-04
Maxdispl :   0.1215   ||displ|| :   0.1607   Lambda : -0.642D-04
Largest |displ|/coords:  0.1215 (   2)  0.0545 (   1)  0.0305 (   6)
................................................................................
.............................. CYCLE   25 ......................................
................................................................................
   1    -45.6089616 -0.456090E+02  0.779E-02    6.36       0.0  T
   2    -45.6089633 -0.169756E-05  0.585E-02    6.36       1.0  T
   3    -45.6089645 -0.116863E-05  0.813E-03    6.37       2.6  T
   4    -45.6089648 -0.252460E-06  0.290E-03    6.37       7.2  T
   5    -45.6089648 -0.119998E-07  0.917E-04    6.37      22.7  T
speedup  0.98
cpu  time for SCC    0.00 s
wall time for SCC    0.00 s
speedup  1.02
cpu  time for grad    0.01 s
wall time for grad    0.01 s
 E :    -45.34644747  G :  0.004147    pred/act E change: -0.591D-04 -0.428D-04
Maxdispl :   0.1819   ||displ|| :   0.2358   Lambda : -0.675D-04
Largest |displ|/coords:  0.1819 (   2)  0.0683 (   1)  0.0506 (   8)

generating ANC from model Hessian ...
 Shifting diagonal of input Hessian by   5.069179351289561E-003
 Lowest  eigenvalues of input Hessian
    0.005000   -0.000000   -0.000000    0.000000    0.000000    0.000000
    0.000000    0.005153    0.005262    0.005640    0.005658    0.005817
    0.006169    0.006560    0.006624    0.007168    0.007395    0.009603
 Highest eigenvalues
    1.408392    1.411093    1.416859    2.621577    3.412047    3.732745
 
cpu  time for ANC gen    0.01 s
wall time for ANC gen    0.01 s
................................................................................
.............................. CYCLE   26 ......................................
................................................................................
   1    -45.6088601 -0.456089E+02  0.107E-01    6.36       0.0  T
   2    -45.6088642 -0.411687E-05  0.802E-02    6.36       1.0  T
   3    -45.6088665 -0.228324E-05  0.133E-02    6.36       1.6  T
   4    -45.6088672 -0.677594E-06  0.401E-03    6.36       5.2  T
   5    -45.6088672 -0.294861E-07  0.138E-03    6.36      15.1  T
   6    -45.6088672 -0.219097E-08  0.818E-04    6.36      25.5  T
   7    -45.6088672 -0.137659E-08  0.201E-04    6.36     103.6  T
speedup  0.89
cpu  time for SCC    0.00 s
wall time for SCC    0.01 s
speedup  0.94
cpu  time for grad    0.01 s
wall time for grad    0.01 s
 E :    -45.34648851  G :  0.004361    pred/act E change:  0.000D+00 -0.410D-04
Maxdispl :   0.0419   ||displ|| :   0.0801   Lambda : -0.787D-04
Largest |displ|/coords:  0.0419 (   9)  0.0386 (   7)  0.0327 (   4)
................................................................................
.............................. CYCLE   27 ......................................
................................................................................
   1    -45.6092380 -0.456092E+02  0.831E-02    6.37       0.0  T
   2    -45.6092391 -0.106874E-05  0.616E-02    6.37       1.0  T
   3    -45.6092403 -0.117660E-05  0.566E-03    6.37       3.7  T
   4    -45.6092403 -0.356639E-07  0.232E-03    6.37       9.0  T
   5    -45.6092403 -0.301021E-08  0.600E-04    6.37      34.8  T
speedup  0.98
cpu  time for SCC    0.00 s
wall time for SCC    0.00 s
speedup  1.03
cpu  time for grad    0.01 s
wall time for grad    0.01 s
 E :    -45.34654904  G :  0.002051    pred/act E change:  0.000D+00 -0.605D-04
Maxdispl :   0.0944   ||displ|| :   0.1945   Lambda : -0.115D-03
Largest |displ|/coords:  0.0944 (   9)  0.0904 (   7)  0.0790 (   4)
................................................................................
.............................. CYCLE   28 ......................................
................................................................................
   1    -45.6088120 -0.456088E+02  0.182E-01    6.38       0.0  T
   2    -45.6088171 -0.514332E-05  0.134E-01    6.39       1.0  T
   3    -45.6088221 -0.499921E-05  0.123E-02    6.39       1.7  T
   4    -45.6088224 -0.266709E-06  0.462E-03    6.39       4.5  T
   5    -45.6088224 -0.103834E-07  0.152E-03    6.39      13.7  T
   6    -45.6088224 -0.205286E-08  0.665E-04    6.39      31.4  T
   7    -45.6088224 -0.484150E-09  0.171E-04    6.39     122.1  T
speedup  1.05
cpu  time for SCC    0.01 s
wall time for SCC    0.01 s
speedup  1.02
cpu  time for grad    0.01 s
wall time for grad    0.01 s
 E :    -45.34660774  G :  0.004400    pred/act E change: -0.396D-04 -0.587D-04
Maxdispl :   0.0416   ||displ|| :   0.0851   Lambda : -0.481D-04
Largest |displ|/coords:  0.0416 (   5)  0.0349 (   3)  0.0321 (   1)
................................................................................
.............................. CYCLE   29 ......................................
................................................................................
   1    -45.6091438 -0.456091E+02  0.578E-02    6.39       0.0  T
   2    -45.6091444 -0.587176E-06  0.433E-02    6.39       1.0  T
   3    -45.6091450 -0.624907E-06  0.479E-03    6.39       4.4  T
   4    -45.6091450 -0.402547E-07  0.139E-03    6.39      15.0  T
   5    -45.6091450 -0.204364E-08  0.547E-04    6.39      38.1  T
speedup  0.98
cpu  time for SCC    0.00 s
wall time for SCC    0.00 s
speedup  1.02
cpu  time for grad    0.01 s
wall time for grad    0.01 s
 E :    -45.34664410  G :  0.003404    pred/act E change: -0.596D-04 -0.364D-04
Maxdispl :   0.1040   ||displ|| :   0.1973   Lambda : -0.770D-04
Largest |displ|/coords:  0.1040 (   3)  0.0912 (   5)  0.0701 (   1)
................................................................................
.............................. CYCLE   30 ......................................
................................................................................
   1    -45.6094935 -0.456095E+02  0.109E-01    6.41       0.0  T
   2    -45.6094954 -0.181216E-05  0.806E-02    6.41       1.0  T
   3    -45.6094972 -0.184327E-05  0.863E-03    6.40       2.4  T
   4    -45.6094973 -0.104107E-06  0.266E-03    6.41       7.8  T
   5    -45.6094973 -0.748223E-08  0.106E-03    6.41      19.8  T
   6    -45.6094973 -0.120463E-08  0.486E-04    6.41      42.9  T
   7    -45.6094973 -0.297298E-09  0.128E-04    6.41     163.4  T
speedup  1.07
cpu  time for SCC    0.01 s
wall time for SCC    0.01 s
speedup  1.03
cpu  time for grad    0.01 s
wall time for grad    0.01 s
 E :    -45.34670048  G :  0.002846    pred/act E change: -0.242D-04 -0.564D-04
Maxdispl :   0.2125   ||displ|| :   0.3730   Lambda : -0.100D-03
Largest |displ|/coords:  0.2125 (   3)  0.1492 (   5)  0.1253 (   7)
................................................................................
.............................. CYCLE   31 ......................................
................................................................................
   1    -45.6074854 -0.456075E+02  0.233E-01    6.42       0.0  T
   2    -45.6074944 -0.901055E-05  0.172E-01    6.43       1.0  T
   3    -45.6075036 -0.918258E-05  0.163E-02    6.44       1.3  T
   4    -45.6075041 -0.470707E-06  0.597E-03    6.43       3.5  T
   5    -45.6075041 -0.288012E-07  0.234E-03    6.43       8.9  T
   6    -45.6075041 -0.745636E-08  0.103E-03    6.43      20.2  T
   7    -45.6075041 -0.147941E-08  0.270E-04    6.43      77.1  T
   8    -45.6075041 -0.171404E-09  0.934E-05    6.43     223.3  T
speedup  0.97
cpu  time for SCC    0.01 s
wall time for SCC    0.01 s
speedup  0.98
cpu  time for grad    0.01 s
wall time for grad    0.01 s
 E :    -45.34676345  G :  0.006504    pred/act E change: -0.400D-04 -0.630D-04
Maxdispl :   0.2579   ||displ|| :   0.3762   Lambda : -0.155D-03
Largest |displ|/coords:  0.2579 (   3)  0.1475 (   5)  0.1178 (   1)
................................................................................
.............................. CYCLE   32 ......................................
................................................................................
   1    -45.6077209 -0.456077E+02  0.153E-01    6.46       0.0  T
   2    -45.6077253 -0.441443E-05  0.113E-01    6.46       1.0  T
   3    -45.6077296 -0.430739E-05  0.123E-02    6.46       1.7  T
   4    -45.6077300 -0.342313E-06  0.594E-03    6.46       3.5  T
   5    -45.6077300 -0.301820E-07  0.152E-03    6.46      13.7  T
   6    -45.6077300 -0.269979E-08  0.910E-04    6.46      22.9  T
speedup  1.06
cpu  time for SCC    0.01 s
wall time for SCC    0.00 s
speedup  0.96
cpu  time for grad    0.01 s
wall time for grad    0.01 s
 E :    -45.34686545  G :  0.006299    pred/act E change: -0.571D-04 -0.102D-03
Maxdispl :   0.3118   ||displ|| :   0.4549   Lambda : -0.153D-03
Largest |displ|/coords:  0.3118 (   3)  0.1665 (   5)  0.1390 (   1)
................................................................................
.............................. CYCLE   33 ......................................
................................................................................
   1    -45.6060774 -0.456061E+02  0.205E-01    6.47       0.0  T
   2    -45.6060863 -0.893831E-05  0.153E-01    6.48       1.0  T
   3    -45.6060951 -0.875515E-05  0.171E-02    6.48       1.2  T
   4    -45.6060959 -0.810994E-06  0.781E-03    6.48       2.7  T
   5    -45.6060959 -0.691536E-07  0.236E-03    6.48       8.8  T
   6    -45.6060959 -0.697199E-08  0.130E-03    6.48      16.0  T
speedup  0.98
cpu  time for SCC    0.00 s
wall time for SCC    0.01 s
speedup  1.01
cpu  time for grad    0.01 s
wall time for grad    0.01 s
 E :    -45.34695880  G :  0.008769    pred/act E change: -0.885D-04 -0.933D-04
Maxdispl :   0.2132   ||displ|| :   0.2785   Lambda : -0.195D-03
Largest |displ|/coords:  0.2132 (   3)  0.0837 (   1)  0.0799 (   2)
................................................................................
.............................. CYCLE   34 ......................................
................................................................................
   1    -45.6087500 -0.456087E+02  0.113E-01    6.49       0.0  T
   2    -45.6087538 -0.381981E-05  0.835E-02    6.49       1.0  T
   3    -45.6087565 -0.272527E-05  0.133E-02    6.49       1.6  T
   4    -45.6087570 -0.481725E-06  0.447E-03    6.49       4.7  T
   5    -45.6087570 -0.246108E-07  0.144E-03    6.49      14.5  T
   6    -45.6087570 -0.267556E-08  0.744E-04    6.49      28.0  T
speedup  1.02
cpu  time for SCC    0.00 s
wall time for SCC    0.00 s
speedup  0.92
cpu  time for grad    0.01 s
wall time for grad    0.01 s
 E :    -45.34706662  G :  0.007440    pred/act E change: -0.925D-04 -0.108D-03
Maxdispl :   0.3372   ||displ|| :   0.4762   Lambda : -0.215D-03
Largest |displ|/coords:  0.3372 (   3)  0.1577 (   1)  0.1508 (   5)
................................................................................
.............................. CYCLE   35 ......................................
................................................................................
   1    -45.6042885 -0.456043E+02  0.265E-01    6.47       0.0  T
   2    -45.6043047 -0.162002E-04  0.196E-01    6.49       1.0  T
   3    -45.6043172 -0.125057E-04  0.222E-02    6.53       1.0  T
   4    -45.6043191 -0.187361E-05  0.828E-03    6.51       2.5  T
   5    -45.6043191 -0.518932E-07  0.328E-03    6.51       6.4  T
   6    -45.6043191 -0.153350E-07  0.132E-03    6.51      15.8  T
   7    -45.6043191 -0.367686E-08  0.382E-04    6.51      54.5  T
speedup  1.09
cpu  time for SCC    0.01 s
wall time for SCC    0.01 s
speedup  0.99
cpu  time for grad    0.01 s
wall time for grad    0.01 s
 E :    -45.34705499  G :  0.015468    pred/act E change: -0.105D-03  0.116D-04
Maxdispl :   0.0875   ||displ|| :   0.1650   Lambda : -0.442D-03
Largest |displ|/coords:  0.0875 (   5)  0.0645 (   7)  0.0616 (  15)
................................................................................
.............................. CYCLE   36 ......................................
................................................................................
   1    -45.6091654 -0.456092E+02  0.135E-01    6.52       0.0  T
   2    -45.6091763 -0.108696E-04  0.966E-02    6.50       1.0  T
   3    -45.6091803 -0.404398E-05  0.196E-02    6.46       1.1  T
   4    -45.6091816 -0.125398E-05  0.408E-03    6.47       5.1  T
   5    -45.6091816 -0.128708E-07  0.175E-03    6.47      11.9  T
   6    -45.6091816 -0.121088E-08  0.716E-04    6.47      29.1  T
speedup  1.04
cpu  time for SCC    0.01 s
wall time for SCC    0.00 s
speedup  1.05
cpu  time for grad    0.01 s
wall time for grad    0.01 s
 E :    -45.34718217  G :  0.010475    pred/act E change: -0.132D-03 -0.127D-03
Maxdispl :   0.0631   ||displ|| :   0.1537   Lambda : -0.277D-03
Largest |displ|/coords:  0.0631 (   3)  0.0586 (   5)  0.0529 (   1)
................................................................................
.............................. CYCLE   37 ......................................
................................................................................
   1    -45.6085550 -0.456086E+02  0.107E-01    6.48       0.0  T
   2    -45.6085581 -0.303264E-05  0.798E-02    6.48       1.0  T
   3    -45.6085608 -0.274160E-05  0.108E-02    6.49       1.9  T
   4    -45.6085611 -0.293842E-06  0.415E-03    6.49       5.0  T
   5    -45.6085611 -0.169599E-07  0.126E-03    6.49      16.5  T
   6    -45.6085611 -0.178346E-08  0.609E-04    6.49      34.3  T
speedup  1.04
cpu  time for SCC    0.00 s
wall time for SCC    0.00 s
speedup  1.04
cpu  time for grad    0.01 s
wall time for grad    0.01 s
 E :    -45.34723458  G :  0.012651    pred/act E change: -0.227D-03 -0.524D-04
Maxdispl :   0.0784   ||displ|| :   0.1463   Lambda : -0.260D-03
Largest |displ|/coords:  0.0784 (   4)  0.0724 (   3)  0.0668 (   5)
................................................................................
.............................. CYCLE   38 ......................................
................................................................................
   1    -45.6072881 -0.456073E+02  0.108E-01    6.53       0.0  T
   2    -45.6072914 -0.326775E-05  0.809E-02    6.53       1.0  T
   3    -45.6072935 -0.208203E-05  0.105E-02    6.53       2.0  T
   4    -45.6072940 -0.485960E-06  0.258E-03    6.53       8.1  T
   5    -45.6072940 -0.680426E-08  0.112E-03    6.53      18.6  T
speedup  0.98
cpu  time for SCC    0.00 s
wall time for SCC    0.00 s
speedup  1.02
cpu  time for grad    0.01 s
wall time for grad    0.01 s
 E :    -45.34736311  G :  0.007750    pred/act E change: -0.142D-03 -0.129D-03
Maxdispl :   0.1437   ||displ|| :   0.2243   Lambda : -0.199D-03
Largest |displ|/coords:  0.1437 (   3)  0.0843 (   4)  0.0724 (   1)
................................................................................
.............................. CYCLE   39 ......................................
................................................................................
   1    -45.6064979 -0.456065E+02  0.127E-01    6.53       0.0  T
   2    -45.6065025 -0.458626E-05  0.943E-02    6.54       1.0  T
   3    -45.6065057 -0.321116E-05  0.131E-02    6.56       1.6  T
   4    -45.6065063 -0.588720E-06  0.464E-03    6.55       4.5  T
   5    -45.6065064 -0.252420E-07  0.162E-03    6.55      12.9  T
   6    -45.6065064 -0.381660E-08  0.839E-04    6.55      24.9  T
speedup  0.85
cpu  time for SCC    0.00 s
wall time for SCC    0.00 s
speedup  0.97
cpu  time for grad    0.01 s
wall time for grad    0.01 s
 E :    -45.34748492  G :  0.009039    pred/act E change: -0.133D-03 -0.122D-03
Maxdispl :   0.2509   ||displ|| :   0.4077   Lambda : -0.274D-03
Largest |displ|/coords:  0.2509 (   3)  0.1673 (   1)  0.1623 (   4)
................................................................................
.............................. CYCLE   40 ......................................
................................................................................
   1    -45.6032973 -0.456033E+02  0.239E-01    6.55       0.0  T
   2    -45.6033117 -0.143940E-04  0.178E-01    6.55       1.0  T
   3    -45.6033232 -0.114882E-04  0.227E-02    6.57       1.0  T
   4    -45.6033250 -0.172246E-05  0.905E-03    6.57       2.3  T
   5    -45.6033251 -0.108299E-06  0.297E-03    6.57       7.0  T
   6    -45.6033251 -0.104551E-07  0.164E-03    6.56      12.7  T
speedup  1.06
cpu  time for SCC    0.00 s
wall time for SCC    0.00 s
speedup  0.97
cpu  time for grad    0.01 s
wall time for grad    0.01 s
 E :    -45.34763971  G :  0.015529    pred/act E change: -0.105D-03 -0.155D-03
Maxdispl :   0.1775   ||displ|| :   0.3605   Lambda : -0.609D-03
Largest |displ|/coords:  0.1775 (   4)  0.1441 (  15)  0.1312 (  10)
................................................................................
.............................. CYCLE   41 ......................................
................................................................................
   1    -45.6052886 -0.456053E+02  0.237E-01    6.63       0.0  T
   2    -45.6053090 -0.204460E-04  0.177E-01    6.64       1.0  T
   3    -45.6053224 -0.133892E-04  0.257E-02    6.66       1.0  T
   4    -45.6053252 -0.278077E-05  0.101E-02    6.65       2.1  T
   5    -45.6053254 -0.156921E-06  0.323E-03    6.65       6.5  T
   6    -45.6053254 -0.119430E-07  0.178E-03    6.65      11.7  T
   7    -45.6053254 -0.824247E-08  0.490E-04    6.65      42.6  T
speedup  1.09
cpu  time for SCC    0.01 s
wall time for SCC    0.01 s
speedup  0.98
cpu  time for grad    0.01 s
wall time for grad    0.01 s
 E :    -45.34799549  G :  0.012245    pred/act E change: -0.160D-03 -0.356D-03
Maxdispl :   0.3212   ||displ|| :   0.5604   Lambda : -0.634D-03
Largest |displ|/coords:  0.3212 (   3)  0.2943 (   4)  0.1554 (   1)
................................................................................
.............................. CYCLE   42 ......................................
................................................................................
   1    -45.6001904 -0.456002E+02  0.305E-01    6.69       0.0  T
   2    -45.6002353 -0.448026E-04  0.229E-01    6.70       1.0  T
   3    -45.6002597 -0.244899E-04  0.420E-02    6.73       1.0  T
   4    -45.6002668 -0.705799E-05  0.144E-02    6.73       1.4  T
   5    -45.6002672 -0.421420E-06  0.446E-03    6.73       4.7  T
   6    -45.6002672 -0.217204E-07  0.268E-03    6.73       7.8  T
   7    -45.6002673 -0.142273E-07  0.751E-04    6.73      27.8  T
speedup  1.11
cpu  time for SCC    0.01 s
wall time for SCC    0.01 s
speedup  0.99
cpu  time for grad    0.01 s
wall time for grad    0.01 s
 E :    -45.34833445  G :  0.023595    pred/act E change: -0.344D-03 -0.339D-03
Maxdispl :   0.1241   ||displ|| :   0.2991   Lambda : -0.855D-03
Largest |displ|/coords:  0.1241 (   4)  0.1047 (  15)  0.0849 (   9)
................................................................................
.............................. CYCLE   43 ......................................
................................................................................
   1    -45.6031060 -0.456031E+02  0.231E-01    6.85       0.0  T
   2    -45.6031324 -0.263941E-04  0.171E-01    6.87       1.0  T
   3    -45.6031495 -0.171229E-04  0.312E-02    6.92       1.0  T
   4    -45.6031528 -0.327128E-05  0.111E-02    6.91       1.9  T
   5    -45.6031529 -0.137798E-06  0.357E-03    6.91       5.8  T
   6    -45.6031529 -0.172448E-07  0.213E-03    6.91       9.8  T
speedup  1.04
cpu  time for SCC    0.00 s
wall time for SCC    0.00 s
speedup  1.05
cpu  time for grad    0.01 s
wall time for grad    0.01 s
 E :    -45.34869668  G :  0.019923    pred/act E change: -0.417D-03 -0.362D-03
Maxdispl :   0.2100   ||displ|| :   0.3611   Lambda : -0.913D-03
Largest |displ|/coords:  0.2100 (   3)  0.1177 (  10)  0.1047 (  15)
................................................................................
.............................. CYCLE   44 ......................................
................................................................................
   1    -45.6025633 -0.456026E+02  0.239E-01    6.89       0.0  T
   2    -45.6025996 -0.362698E-04  0.178E-01    6.91       1.0  T
   3    -45.6026198 -0.202167E-04  0.365E-02    6.96       1.0  T
   4    -45.6026246 -0.476408E-05  0.146E-02    6.96       1.4  T
   5    -45.6026249 -0.324126E-06  0.388E-03    6.95       5.4  T
   6    -45.6026249 -0.200982E-07  0.233E-03    6.95       8.9  T
   7    -45.6026250 -0.982504E-08  0.644E-04    6.95      32.4  T
speedup  1.07
cpu  time for SCC    0.01 s
wall time for SCC    0.01 s
speedup  0.98
cpu  time for grad    0.01 s
wall time for grad    0.01 s
 E :    -45.34929334  G :  0.015387    pred/act E change: -0.466D-03 -0.597D-03
Maxdispl :   0.1471   ||displ|| :   0.3474   Lambda : -0.132D-02
Largest |displ|/coords:  0.1471 (  15)  0.1183 (  10)  0.0905 (   9)
................................................................................
.............................. CYCLE   45 ......................................
................................................................................
   1    -45.6110181 -0.456110E+02  0.316E-01    7.12       0.0  T
   2    -45.6111079 -0.898292E-04  0.232E-01    7.11       1.0  T
   3    -45.6111527 -0.448649E-04  0.572E-02    7.10       1.0  T
   4    -45.6111625 -0.970373E-05  0.218E-02    7.12       1.0  T
   5    -45.6111630 -0.543692E-06  0.543E-03    7.12       3.8  T
   6    -45.6111630 -0.378295E-07  0.320E-03    7.12       6.5  T
   7    -45.6111630 -0.134494E-07  0.106E-03    7.12      19.7  T
   8    -45.6111630 -0.221208E-08  0.262E-04    7.12      79.6  T
speedup  1.11
cpu  time for SCC    0.01 s
wall time for SCC    0.01 s
speedup  1.01
cpu  time for grad    0.01 s
wall time for grad    0.01 s
 E :    -45.34897411  G :  0.040031    pred/act E change: -0.516D-03  0.319D-03
Maxdispl :   0.1456   ||displ|| :   0.3517   Lambda : -0.223D-02
Largest |displ|/coords:  0.1456 (   4)  0.1358 (  10)  0.1285 (   3)
................................................................................
.............................. CYCLE   46 ......................................
................................................................................
   1    -45.5979023 -0.455979E+02  0.294E-01    7.04       0.0  T
   2    -45.5979696 -0.673748E-04  0.213E-01    7.08       1.0  T
   3    -45.5979976 -0.280091E-04  0.465E-02    7.15       1.0  T
   4    -45.5980055 -0.788154E-05  0.121E-02    7.13       1.7  T
   5    -45.5980057 -0.205144E-06  0.453E-03    7.13       4.6  T
   6    -45.5980058 -0.247014E-07  0.238E-03    7.13       8.7  T
speedup  1.04
cpu  time for SCC    0.01 s
wall time for SCC    0.00 s
speedup  1.04
cpu  time for grad    0.01 s
wall time for grad    0.01 s
 E :    -45.34977084  G :  0.027899    pred/act E change: -0.737D-03 -0.797D-03
Maxdispl :   0.2100   ||displ|| :   0.4372   Lambda : -0.185D-02
Largest |displ|/coords:  0.2100 (   4)  0.1930 (  15)  0.1625 (   3)
................................................................................
.............................. CYCLE   47 ......................................
................................................................................
   1    -45.6078370 -0.456078E+02  0.335E-01    7.16       0.0  T
   2    -45.6079061 -0.691054E-04  0.250E-01    7.16       1.0  T
   3    -45.6079484 -0.423356E-04  0.516E-02    7.16       1.0  T
   4    -45.6079566 -0.816676E-05  0.182E-02    7.15       1.1  T
   5    -45.6079573 -0.682902E-06  0.524E-03    7.15       4.0  T
   6    -45.6079573 -0.240381E-07  0.302E-03    7.15       6.9  T
speedup  0.85
cpu  time for SCC    0.00 s
wall time for SCC    0.00 s
speedup  0.96
cpu  time for grad    0.01 s
wall time for grad    0.01 s
 E :    -45.34917439  G :  0.039393    pred/act E change: -0.125D-02  0.596D-03
Maxdispl :   0.0967   ||displ|| :   0.2165   Lambda : -0.193D-02
Largest |displ|/coords:  0.0967 (   4)  0.0764 (  15)  0.0751 (  16)
................................................................................
.............................. CYCLE   48 ......................................
................................................................................
   1    -45.6056450 -0.456056E+02  0.208E-01    7.17       0.0  T
   2    -45.6056751 -0.301614E-04  0.154E-01    7.16       1.0  T
   3    -45.6056924 -0.172563E-04  0.327E-02    7.15       1.0  T
   4    -45.6056961 -0.373133E-05  0.102E-02    7.16       2.0  T
   5    -45.6056963 -0.155962E-06  0.337E-03    7.16       6.2  T
   6    -45.6056963 -0.109439E-07  0.188E-03    7.16      11.1  T
speedup  1.00
cpu  time for SCC    0.00 s
wall time for SCC    0.01 s
speedup  1.03
cpu  time for grad    0.01 s
wall time for grad    0.01 s
 E :    -45.35026063  G :  0.009076    pred/act E change: -0.110D-02 -0.109D-02
Maxdispl :   0.1820   ||displ|| :   0.4171   Lambda : -0.633D-03
Largest |displ|/coords:  0.1820 (   3)  0.1327 (  15)  0.1239 (   4)
................................................................................
.............................. CYCLE   49 ......................................
................................................................................
   1    -45.6032546 -0.456033E+02  0.296E-01    7.18       0.0  T
   2    -45.6032985 -0.439178E-04  0.221E-01    7.19       1.0  T
   3    -45.6033256 -0.270829E-04  0.450E-02    7.21       1.0  T
   4    -45.6033314 -0.581768E-05  0.185E-02    7.21       1.1  T
   5    -45.6033318 -0.383077E-06  0.415E-03    7.21       5.0  T
   6    -45.6033318 -0.212111E-07  0.268E-03    7.21       7.8  T
   7    -45.6033318 -0.982232E-08  0.784E-04    7.21      26.6  T
speedup  1.11
cpu  time for SCC    0.01 s
wall time for SCC    0.01 s
speedup  1.07
cpu  time for grad    0.01 s
wall time for grad    0.01 s
 E :    -45.35022831  G :  0.023094    pred/act E change: -0.101D-02  0.323D-04
Maxdispl :   0.0338   ||displ|| :   0.0876   Lambda : -0.693D-03
Largest |displ|/coords:  0.0338 (  12)  0.0302 (  11)  0.0261 (  23)
................................................................................
.............................. CYCLE   50 ......................................
................................................................................
   1    -45.6021691 -0.456022E+02  0.841E-02    7.19       0.0  T
   2    -45.6021791 -0.100737E-04  0.606E-02    7.21       1.0  T
   3    -45.6021829 -0.373342E-05  0.214E-02    7.22       1.0  T
   4    -45.6021837 -0.848840E-06  0.591E-03    7.22       3.5  T
   5    -45.6021838 -0.596648E-07  0.184E-03    7.21      11.4  T
speedup  1.03
cpu  time for SCC    0.00 s
wall time for SCC    0.00 s
speedup  1.03
cpu  time for grad    0.01 s
wall time for grad    0.01 s
 E :    -45.35054319  G :  0.011924    pred/act E change: -0.372D-03 -0.315D-03
Maxdispl :   0.0829   ||displ|| :   0.1641   Lambda : -0.269D-03
Largest |displ|/coords:  0.0829 (   3)  0.0661 (   4)  0.0621 (   9)
................................................................................
.............................. CYCLE   51 ......................................
................................................................................
   1    -45.6056986 -0.456057E+02  0.125E-01    7.21       0.0  T
   2    -45.6057059 -0.728860E-05  0.931E-02    7.20       1.0  T
   3    -45.6057107 -0.475229E-05  0.164E-02    7.18       1.3  T
   4    -45.6057116 -0.895719E-06  0.605E-03    7.18       3.4  T
   5    -45.6057116 -0.536153E-07  0.185E-03    7.18      11.3  T
   6    -45.6057116 -0.364815E-08  0.103E-03    7.18      20.2  T
speedup  1.06
cpu  time for SCC    0.01 s
wall time for SCC    0.00 s
speedup  0.96
cpu  time for grad    0.01 s
wall time for grad    0.01 s
 E :    -45.35049821  G :  0.013259    pred/act E change: -0.349D-03  0.450D-04
Maxdispl :   0.0575   ||displ|| :   0.1357   Lambda : -0.314D-03
Largest |displ|/coords:  0.0575 (   4)  0.0490 (   3)  0.0393 (   9)
................................................................................
.............................. CYCLE   52 ......................................
................................................................................
   1    -45.6042529 -0.456043E+02  0.107E-01    7.20       0.0  T
   2    -45.6042570 -0.413666E-05  0.797E-02    7.20       1.0  T
   3    -45.6042601 -0.313331E-05  0.141E-02    7.21       1.5  T
   4    -45.6042606 -0.462530E-06  0.544E-03    7.21       3.8  T
   5    -45.6042606 -0.339988E-07  0.148E-03    7.21      14.1  T
   6    -45.6042606 -0.248653E-08  0.909E-04    7.21      22.9  T
speedup  1.02
cpu  time for SCC    0.00 s
wall time for SCC    0.00 s
speedup  1.03
cpu  time for grad    0.01 s
wall time for grad    0.01 s
 E :    -45.35067359  G :  0.005956    pred/act E change: -0.138D-03 -0.175D-03
Maxdispl :   0.0586   ||displ|| :   0.1399   Lambda : -0.138D-03
Largest |displ|/coords:  0.0586 (  10)  0.0517 (   2)  0.0496 (  15)

generating ANC from model Hessian ...
 Shifting diagonal of input Hessian by   5.155902087867101E-003
 Lowest  eigenvalues of input Hessian
    0.005000   -0.000000   -0.000000   -0.000000    0.000000    0.000000
    0.000000    0.005204    0.005611    0.005712    0.006091    0.006358
    0.006495    0.006721    0.007052    0.007711    0.008559    0.011687
 Highest eigenvalues
    1.392870    1.398396    1.412567    2.627840    3.451230    3.663056
 
cpu  time for ANC gen    0.02 s
wall time for ANC gen    0.02 s
................................................................................
.............................. CYCLE   53 ......................................
................................................................................
   1    -45.6022802 -0.456023E+02  0.120E-01    7.21       0.0  T
   2    -45.6022844 -0.423764E-05  0.884E-02    7.21       1.0  T
   3    -45.6022879 -0.346834E-05  0.142E-02    7.23       1.5  T
   4    -45.6022883 -0.393717E-06  0.401E-03    7.22       5.2  T
   5    -45.6022883 -0.185370E-07  0.154E-03    7.22      13.6  T
   6    -45.6022883 -0.261797E-08  0.811E-04    7.22      25.7  T
   7    -45.6022883 -0.718636E-09  0.213E-04    7.22      97.8  T
speedup  1.05
cpu  time for SCC    0.01 s
wall time for SCC    0.01 s
speedup  1.01
cpu  time for grad    0.01 s
wall time for grad    0.01 s
 E :    -45.35068912  G :  0.009094    pred/act E change:  0.000D+00 -0.155D-04
Maxdispl :   0.0529   ||displ|| :   0.1033   Lambda : -0.191D-03
Largest |displ|/coords:  0.0529 (   6)  0.0447 (   5)  0.0436 (   8)
................................................................................
.............................. CYCLE   54 ......................................
................................................................................
   1    -45.6038898 -0.456039E+02  0.110E-01    7.23       0.0  T
   2    -45.6038916 -0.181075E-05  0.811E-02    7.23       1.0  T
   3    -45.6038934 -0.177496E-05  0.715E-03    7.22       2.9  T
   4    -45.6038935 -0.106802E-06  0.288E-03    7.22       7.2  T
   5    -45.6038935 -0.494016E-08  0.913E-04    7.22      22.8  T
speedup  1.00
cpu  time for SCC    0.00 s
wall time for SCC    0.00 s
speedup  1.02
cpu  time for grad    0.01 s
wall time for grad    0.01 s
 E :    -45.35083171  G :  0.004405    pred/act E change:  0.000D+00 -0.143D-03
Maxdispl :   0.1414   ||displ|| :   0.2242   Lambda : -0.250D-03
Largest |displ|/coords:  0.1414 (   9)  0.0889 (   5)  0.0847 (   8)
................................................................................
.............................. CYCLE   55 ......................................
................................................................................
   1    -45.6045812 -0.456046E+02  0.244E-01    7.21       0.0  T
   2    -45.6045901 -0.881308E-05  0.180E-01    7.21       1.0  T
   3    -45.6045992 -0.909434E-05  0.159E-02    7.20       1.3  T
   4    -45.6045996 -0.402759E-06  0.650E-03    7.20       3.2  T
   5    -45.6045996 -0.230204E-07  0.198E-03    7.20      10.5  T
   6    -45.6045996 -0.738542E-08  0.101E-03    7.20      20.6  T
speedup  1.00
cpu  time for SCC    0.01 s
wall time for SCC    0.00 s
speedup  1.02
cpu  time for grad    0.01 s
wall time for grad    0.01 s
 E :    -45.35098475  G :  0.005560    pred/act E change: -0.964D-04 -0.153D-03
Maxdispl :   0.1061   ||displ|| :   0.2006   Lambda : -0.162D-03
Largest |displ|/coords:  0.1061 (   9)  0.0979 (   6)  0.0782 (   8)
................................................................................
.............................. CYCLE   56 ......................................
................................................................................
   1    -45.6034190 -0.456034E+02  0.205E-01    7.18       0.0  T
   2    -45.6034251 -0.611625E-05  0.152E-01    7.18       1.0  T
   3    -45.6034315 -0.633823E-05  0.136E-02    7.18       1.5  T
   4    -45.6034317 -0.295367E-06  0.462E-03    7.18       4.5  T
   5    -45.6034318 -0.178490E-07  0.177E-03    7.18      11.7  T
   6    -45.6034318 -0.760500E-08  0.783E-04    7.18      26.6  T
speedup  1.04
cpu  time for SCC    0.00 s
wall time for SCC    0.00 s
speedup  0.96
cpu  time for grad    0.01 s
wall time for grad    0.01 s
 E :    -45.35108639  G :  0.007784    pred/act E change: -0.131D-03 -0.102D-03
Maxdispl :   0.1126   ||displ|| :   0.1800   Lambda : -0.182D-03
Largest |displ|/coords:  0.1126 (   9)  0.0574 (   3)  0.0539 (   6)
................................................................................
.............................. CYCLE   57 ......................................
................................................................................
   1    -45.6038318 -0.456038E+02  0.158E-01    7.18       0.0  T
   2    -45.6038354 -0.353684E-05  0.118E-01    7.17       1.0  T
   3    -45.6038388 -0.342416E-05  0.126E-02    7.16       1.7  T
   4    -45.6038391 -0.313598E-06  0.379E-03    7.16       5.5  T
   5    -45.6038391 -0.175119E-07  0.142E-03    7.16      14.6  T
   6    -45.6038391 -0.363100E-08  0.721E-04    7.16      28.9  T
speedup  1.06
cpu  time for SCC    0.00 s
wall time for SCC    0.00 s
speedup  1.05
cpu  time for grad    0.01 s
wall time for grad    0.01 s
 E :    -45.35119173  G :  0.006622    pred/act E change: -0.841D-04 -0.105D-03
Maxdispl :   0.1743   ||displ|| :   0.2510   Lambda : -0.166D-03
Largest |displ|/coords:  0.1743 (   9)  0.1033 (   8)  0.0666 (   3)
................................................................................
.............................. CYCLE   58 ......................................
................................................................................
   1    -45.6014432 -0.456014E+02  0.236E-01    7.14       0.0  T
   2    -45.6014526 -0.937477E-05  0.174E-01    7.14       1.0  T
   3    -45.6014620 -0.937845E-05  0.178E-02    7.15       1.2  T
   4    -45.6014625 -0.504419E-06  0.620E-03    7.14       3.4  T
   5    -45.6014625 -0.319212E-07  0.225E-03    7.14       9.3  T
   6    -45.6014625 -0.972923E-08  0.103E-03    7.14      20.2  T
speedup  1.06
cpu  time for SCC    0.00 s
wall time for SCC    0.00 s
speedup  1.05
cpu  time for grad    0.01 s
wall time for grad    0.01 s
 E :    -45.35128106  G :  0.009323    pred/act E change: -0.941D-04 -0.893D-04
Maxdispl :   0.0552   ||displ|| :   0.1185   Lambda : -0.177D-03
Largest |displ|/coords:  0.0552 (   3)  0.0479 (  12)  0.0464 (   9)
................................................................................
.............................. CYCLE   59 ......................................
................................................................................
   1    -45.6044571 -0.456045E+02  0.784E-02    7.20       0.0  T
   2    -45.6044592 -0.211259E-05  0.577E-02    7.19       1.0  T
   3    -45.6044604 -0.121785E-05  0.107E-02    7.18       1.9  T
   4    -45.6044607 -0.286516E-06  0.323E-03    7.18       6.5  T
   5    -45.6044607 -0.969862E-08  0.768E-04    7.18      27.1  T
   6    -45.6044607 -0.584713E-09  0.456E-04    7.18      45.7  T
speedup  1.09
cpu  time for SCC    0.00 s
wall time for SCC    0.00 s
speedup  1.07
cpu  time for grad    0.01 s
wall time for grad    0.01 s
 E :    -45.35139345  G :  0.007294    pred/act E change: -0.885D-04 -0.112D-03
Maxdispl :   0.1653   ||displ|| :   0.3210   Lambda : -0.217D-03
Largest |displ|/coords:  0.1653 (   9)  0.1621 (   3)  0.0850 (   8)
................................................................................
.............................. CYCLE   60 ......................................
................................................................................
   1    -45.6039784 -0.456040E+02  0.243E-01    7.20       0.0  T
   2    -45.6039876 -0.921278E-05  0.180E-01    7.20       1.0  T
   3    -45.6039979 -0.102898E-04  0.226E-02    7.20       1.0  T
   4    -45.6039983 -0.406478E-06  0.567E-03    7.20       3.7  T
   5    -45.6039983 -0.417259E-07  0.248E-03    7.20       8.4  T
   6    -45.6039983 -0.719043E-08  0.129E-03    7.20      16.1  T
speedup  0.85
cpu  time for SCC    0.00 s
wall time for SCC    0.00 s
speedup  0.96
cpu  time for grad    0.01 s
wall time for grad    0.01 s
 E :    -45.35155334  G :  0.007958    pred/act E change: -0.898D-04 -0.160D-03
Maxdispl :   0.2239   ||displ|| :   0.3800   Lambda : -0.274D-03
Largest |displ|/coords:  0.2239 (   3)  0.1650 (   9)  0.0996 (   2)
................................................................................
.............................. CYCLE   61 ......................................
................................................................................
   1    -45.6044594 -0.456045E+02  0.253E-01    7.23       0.0  T
   2    -45.6044695 -0.100344E-04  0.187E-01    7.22       1.0  T
   3    -45.6044808 -0.113343E-04  0.265E-02    7.21       1.0  T
   4    -45.6044813 -0.445015E-06  0.638E-03    7.22       3.3  T
   5    -45.6044813 -0.650420E-07  0.251E-03    7.22       8.3  T
   6    -45.6044813 -0.618156E-08  0.143E-03    7.22      14.6  T
speedup  1.06
cpu  time for SCC    0.00 s
wall time for SCC    0.00 s
speedup  0.97
cpu  time for grad    0.01 s
wall time for grad    0.01 s
 E :    -45.35175517  G :  0.010883    pred/act E change: -0.119D-03 -0.202D-03
Maxdispl :   0.2549   ||displ|| :   0.3902   Lambda : -0.373D-03
Largest |displ|/coords:  0.2549 (   3)  0.1544 (   2)  0.1163 (   9)
................................................................................
.............................. CYCLE   62 ......................................
................................................................................
   1    -45.6084013 -0.456084E+02  0.232E-01    7.32       0.0  T
   2    -45.6084123 -0.110173E-04  0.170E-01    7.31       1.0  T
   3    -45.6084225 -0.101918E-04  0.285E-02    7.31       1.0  T
   4    -45.6084233 -0.794629E-06  0.765E-03    7.31       2.7  T
   5    -45.6084234 -0.775469E-07  0.248E-03    7.31       8.4  T
   6    -45.6084234 -0.694153E-08  0.141E-03    7.31      14.7  T
speedup  1.02
cpu  time for SCC    0.00 s
wall time for SCC    0.00 s
speedup  1.03
cpu  time for grad    0.01 s
wall time for grad    0.01 s
 E :    -45.35196532  G :  0.011389    pred/act E change: -0.157D-03 -0.210D-03
Maxdispl :   0.3233   ||displ|| :   0.5401   Lambda : -0.448D-03
Largest |displ|/coords:  0.3233 (   3)  0.2109 (   9)  0.1783 (   2)
................................................................................
.............................. CYCLE   63 ......................................
................................................................................
   1    -45.6024199 -0.456024E+02  0.375E-01    7.27       0.0  T
   2    -45.6024507 -0.308025E-04  0.276E-01    7.29       1.0  T
   3    -45.6024793 -0.285536E-04  0.412E-02    7.31       1.0  T
   4    -45.6024817 -0.237567E-05  0.133E-02    7.30       1.6  T
   5    -45.6024819 -0.193547E-06  0.418E-03    7.30       5.0  T
   6    -45.6024819 -0.243992E-07  0.235E-03    7.30       8.9  T
   7    -45.6024819 -0.622403E-08  0.643E-04    7.30      32.4  T
speedup  0.93
cpu  time for SCC    0.00 s
wall time for SCC    0.01 s
speedup  1.00
cpu  time for grad    0.01 s
wall time for grad    0.01 s
 E :    -45.35204879  G :  0.022495    pred/act E change: -0.215D-03 -0.835D-04
Maxdispl :   0.1472   ||displ|| :   0.2505   Lambda : -0.820D-03
Largest |displ|/coords:  0.1472 (   9)  0.1165 (   6)  0.0948 (  10)
................................................................................
.............................. CYCLE   64 ......................................
................................................................................
   1    -45.6111557 -0.456112E+02  0.226E-01    7.42       0.0  T
   2    -45.6111815 -0.258065E-04  0.163E-01    7.39       1.0  T
   3    -45.6111939 -0.123562E-04  0.292E-02    7.34       1.0  T
   4    -45.6111971 -0.319999E-05  0.832E-03    7.36       2.5  T
   5    -45.6111972 -0.744978E-07  0.351E-03    7.36       5.9  T
   6    -45.6111972 -0.102218E-07  0.140E-03    7.36      14.9  T
speedup  1.04
cpu  time for SCC    0.01 s
wall time for SCC    0.00 s
speedup  1.05
cpu  time for grad    0.01 s
wall time for grad    0.01 s
 E :    -45.35174750  G :  0.030643    pred/act E change: -0.289D-03  0.301D-03
Maxdispl :   0.1112   ||displ|| :   0.2179   Lambda : -0.138D-02
Largest |displ|/coords:  0.1112 (  10)  0.1061 (   8)  0.0739 (   9)
................................................................................
.............................. CYCLE   65 ......................................
................................................................................
   1    -45.6091850 -0.456092E+02  0.234E-01    7.30       0.0  T
   2    -45.6091933 -0.830253E-05  0.172E-01    7.31       1.0  T
   3    -45.6092016 -0.830423E-05  0.126E-02    7.31       1.6  T
   4    -45.6092020 -0.385648E-06  0.537E-03    7.31       3.9  T
   5    -45.6092020 -0.202946E-07  0.197E-03    7.31      10.6  T
speedup  1.00
cpu  time for SCC    0.00 s
wall time for SCC    0.00 s
speedup  0.93
cpu  time for grad    0.01 s
wall time for grad    0.01 s
 E :    -45.35229725  G :  0.011051    pred/act E change: -0.436D-03 -0.550D-03
Maxdispl :   0.1176   ||displ|| :   0.1765   Lambda : -0.508D-03
Largest |displ|/coords:  0.1176 (   8)  0.0635 (   2)  0.0421 (   3)
................................................................................
.............................. CYCLE   66 ......................................
................................................................................
   1    -45.6062906 -0.456063E+02  0.176E-01    7.34       0.0  T
   2    -45.6063110 -0.204611E-04  0.126E-01    7.37       1.0  T
   3    -45.6063190 -0.795763E-05  0.240E-02    7.42       1.0  T
   4    -45.6063213 -0.229627E-05  0.519E-03    7.40       4.0  T
[...]
speedup  0.99
cpu  time for grad    0.01 s
wall time for grad    0.01 s
 E :    -45.38012870  G :  0.001097    pred/act E change: -0.215D-05 -0.294D-05
Maxdispl :   0.0292   ||displ|| :   0.0493   Lambda : -0.486D-05
Largest |displ|/coords:  0.0292 (  32)  0.0210 (  27)  0.0140 (  14)
................................................................................
.............................. CYCLE  327 ......................................
................................................................................
   1    -45.6394995 -0.456395E+02  0.506E-02    9.18       0.0  T
   2    -45.6395000 -0.467903E-06  0.377E-02    9.18       1.0  T
   3    -45.6395002 -0.225785E-06  0.630E-03    9.18       3.3  T
   4    -45.6395003 -0.755268E-07  0.258E-03    9.18       8.1  T
   5    -45.6395003 -0.245753E-08  0.251E-04    9.18      83.2  T
   6    -45.6395003 -0.298783E-10  0.177E-04    9.18     117.6  T
speedup  1.06
cpu  time for SCC    0.00 s
wall time for SCC    0.00 s
speedup  0.99
cpu  time for grad    0.01 s
wall time for grad    0.01 s
 E :    -45.38013220  G :  0.001317    pred/act E change: -0.197D-05 -0.349D-05
Maxdispl :   0.0233   ||displ|| :   0.0544   Lambda : -0.670D-05
Largest |displ|/coords:  0.0233 (  32)  0.0223 (   2)  0.0212 (   5)
................................................................................
.............................. CYCLE  328 ......................................
................................................................................
   1    -45.6395357 -0.456395E+02  0.511E-02    9.17       0.0  T
   2    -45.6395360 -0.340017E-06  0.383E-02    9.18       1.0  T
   3    -45.6395363 -0.308847E-06  0.502E-03    9.18       4.2  T
   4    -45.6395363 -0.359361E-07  0.198E-03    9.18      10.5  T
   5    -45.6395364 -0.237884E-08  0.343E-04    9.18      60.8  T
   6    -45.6395364 -0.729941E-10  0.237E-04    9.18      88.0  T
speedup  1.04
cpu  time for SCC    0.00 s
wall time for SCC    0.00 s
speedup  1.00
cpu  time for grad    0.01 s
wall time for grad    0.01 s
 E :    -45.38013607  G :  0.001055    pred/act E change: -0.244D-05 -0.388D-05
Maxdispl :   0.0488   ||displ|| :   0.0774   Lambda : -0.583D-05
Largest |displ|/coords:  0.0488 (  32)  0.0323 (  27)  0.0199 (   2)
................................................................................
.............................. CYCLE  329 ......................................
................................................................................
   1    -45.6390955 -0.456391E+02  0.799E-02    9.17       0.0  T
   2    -45.6390967 -0.124240E-05  0.595E-02    9.17       1.0  T
   3    -45.6390973 -0.594990E-06  0.101E-02    9.18       2.1  T
   4    -45.6390975 -0.204109E-06  0.385E-03    9.18       5.4  T
   5    -45.6390976 -0.576021E-08  0.437E-04    9.18      47.7  T
   6    -45.6390976 -0.133205E-09  0.284E-04    9.18      73.5  T
speedup  0.83
cpu  time for SCC    0.00 s
wall time for SCC    0.00 s
speedup  0.99
cpu  time for grad    0.01 s
wall time for grad    0.01 s
 E :    -45.38013396  G :  0.003168    pred/act E change: -0.336D-05  0.211D-05
Maxdispl :   0.0313   ||displ|| :   0.0515   Lambda : -0.132D-04
Largest |displ|/coords:  0.0313 (  32)  0.0233 (  27)  0.0126 (  14)
................................................................................
.............................. CYCLE  330 ......................................
................................................................................
   1    -45.6396093 -0.456396E+02  0.524E-02    9.18       0.0  T
   2    -45.6396100 -0.673209E-06  0.388E-02    9.18       1.0  T
   3    -45.6396103 -0.291064E-06  0.725E-03    9.18       2.9  T
   4    -45.6396104 -0.106167E-06  0.284E-03    9.18       7.3  T
   5    -45.6396104 -0.373518E-08  0.359E-04    9.18      58.1  T
   6    -45.6396104 -0.995755E-10  0.233E-04    9.18      89.3  T
speedup  1.04
cpu  time for SCC    0.00 s
wall time for SCC    0.00 s
speedup  0.98
cpu  time for grad    0.01 s
wall time for grad    0.01 s
 E :    -45.38013895  G :  0.000444    pred/act E change: -0.293D-05 -0.499D-05
Maxdispl :   0.0082   ||displ|| :   0.0148   Lambda : -0.753D-06
Largest |displ|/coords:  0.0082 (  32)  0.0052 (   2)  0.0050 (   5)
................................................................................
.............................. CYCLE  331 ......................................
................................................................................
   1    -45.6395848 -0.456396E+02  0.149E-02    9.18       0.0  T
   2    -45.6395848 -0.366470E-07  0.112E-02    9.18       1.9  T
   3    -45.6395849 -0.253390E-07  0.173E-03    9.18      12.0  T
   4    -45.6395849 -0.493471E-08  0.723E-04    9.18      28.8  T
   5    -45.6395849 -0.236298E-09  0.803E-05    9.18     259.7  T
speedup  0.98
cpu  time for SCC    0.00 s
wall time for SCC    0.00 s
speedup  1.04
cpu  time for grad    0.01 s
wall time for grad    0.01 s
 E :    -45.38013957  G :  0.000321    pred/act E change: -0.664D-05 -0.625D-06
Maxdispl :   0.0181   ||displ|| :   0.0321   Lambda : -0.124D-05
Largest |displ|/coords:  0.0181 (  32)  0.0114 (   5)  0.0107 (   2)
................................................................................
.............................. CYCLE  332 ......................................
................................................................................
   1    -45.6395008 -0.456395E+02  0.325E-02    9.18       0.0  T
   2    -45.6395010 -0.179225E-06  0.243E-02    9.18       1.0  T
   3    -45.6395011 -0.123248E-06  0.387E-03    9.18       5.4  T
   4    -45.6395011 -0.239385E-07  0.163E-03    9.18      12.8  T
   5    -45.6395011 -0.117116E-08  0.178E-04    9.18     117.3  T
   6    -45.6395011 -0.191989E-10  0.123E-04    9.18     169.3  T
speedup  1.04
cpu  time for SCC    0.00 s
wall time for SCC    0.00 s
speedup  0.99
cpu  time for grad    0.01 s
wall time for grad    0.01 s
 E :    -45.38014022  G :  0.000532    pred/act E change: -0.376D-06 -0.649D-06
Maxdispl :   0.0012   ||displ|| :   0.0027   Lambda : -0.219D-06
Largest |displ|/coords:  0.0012 (   5)  0.0011 (   1)  0.0011 (   4)
................................................................................
.............................. CYCLE  333 ......................................
................................................................................
   1    -45.6395335 -0.456395E+02  0.180E-03    9.18       0.0  T
   2    -45.6395335 -0.110328E-08  0.133E-03    9.18      15.7  T
   3    -45.6395335 -0.608374E-09  0.222E-04    9.18      93.9  T
   4    -45.6395335 -0.163723E-09  0.989E-05    9.18     210.8  T
speedup  0.88
cpu  time for SCC    0.00 s
wall time for SCC    0.00 s
speedup  0.93
cpu  time for grad    0.01 s
wall time for grad    0.01 s
 E :    -45.38014040  G :  0.000302    pred/act E change: -0.620D-06 -0.178D-06
Maxdispl :   0.0048   ||displ|| :   0.0102   Lambda : -0.396D-06
Largest |displ|/coords:  0.0048 (  32)  0.0046 (   5)  0.0037 (  14)
................................................................................
.............................. CYCLE  334 ......................................
................................................................................
   1    -45.6395642 -0.456396E+02  0.914E-03    9.18       0.0  T
   2    -45.6395642 -0.160070E-07  0.679E-03    9.18       3.1  T
   3    -45.6395642 -0.133998E-07  0.118E-03    9.18      17.7  T
   4    -45.6395642 -0.156663E-08  0.500E-04    9.18      41.7  T
   5    -45.6395642 -0.161407E-09  0.599E-05    9.18     348.3  T
speedup  0.98
cpu  time for SCC    0.00 s
wall time for SCC    0.00 s
speedup  0.96
cpu  time for grad    0.01 s
wall time for grad    0.01 s
 E :    -45.38014065  G :  0.000158    pred/act E change: -0.109D-06 -0.249D-06
Maxdispl :   0.0034   ||displ|| :   0.0063   Lambda : -0.143D-06
Largest |displ|/coords:  0.0034 (   9)  0.0032 (  32)  0.0018 (  27)
................................................................................
.............................. CYCLE  335 ......................................
................................................................................
   1    -45.6395664 -0.456396E+02  0.588E-03    9.18       0.0  T
   2    -45.6395664 -0.650635E-08  0.437E-03    9.18       4.8  T
   3    -45.6395664 -0.470519E-08  0.769E-04    9.18      27.1  T
   4    -45.6395664 -0.751612E-09  0.316E-04    9.18      66.0  T
speedup  1.18
cpu  time for SCC    0.00 s
wall time for SCC    0.00 s
speedup  1.03
cpu  time for grad    0.01 s
wall time for grad    0.01 s
 E :    -45.38014076  G :  0.000141    pred/act E change: -0.198D-06 -0.106D-06
Maxdispl :   0.0038   ||displ|| :   0.0059   Lambda : -0.110D-06
Largest |displ|/coords:  0.0038 (   9)  0.0025 (  32)  0.0015 (  27)
................................................................................
.............................. CYCLE  336 ......................................
................................................................................
   1    -45.6395616 -0.456396E+02  0.545E-03    9.18       0.0  T
   2    -45.6395616 -0.462455E-08  0.406E-03    9.18       5.1  T
   3    -45.6395616 -0.347934E-08  0.650E-04    9.18      32.1  T
   4    -45.6395616 -0.516344E-09  0.242E-04    9.18      86.2  T
speedup  0.91
cpu  time for SCC    0.00 s
wall time for SCC    0.00 s
speedup  1.05
cpu  time for grad    0.01 s
wall time for grad    0.01 s
 E :    -45.38014083  G :  0.000087    pred/act E change: -0.715D-07 -0.732D-07
Maxdispl :   0.0021   ||displ|| :   0.0036   Lambda : -0.397D-07
Largest |displ|/coords:  0.0021 (   9)  0.0019 (  32)  0.0011 (  27)

   *** GEOMETRY OPTIMIZATION CONVERGED AFTER 336 ITERATIONS ***

------------------------------------------------------------------------
 total energy gain (kcal):     -0.0200
------------------------------------------------------------------------
================
 final structure:
================
$coord
        1.63964140859620       -2.13432455300398        2.31749722404211      S 
       -1.10895319424297       -1.99687344149828        2.50373280506104      O 
        2.84271687264532        0.13989671474314        3.27080430898416      O 
        2.51204270718043       -2.80723406255292       -0.18954342662361      O 
        2.43942098230238       -4.37650751904739        4.12490733398195      O 
        4.19152835747947       -4.55527621102735        3.76193278923536      H 
        2.47513860059668       -0.27086483836663       -2.27037897991224      H 
       -2.81260862548820        0.57639815164252       -3.92957866053511      O 
       -2.87933808072585       -1.25054213923008       -3.56935480590573      H 
       -3.09947553029496        1.67069663644563       -1.37471420720371      H 
        1.68667958054505        4.37172251042079        1.15131042883863      O 
        2.22912679307828        2.79299924191283        2.01928512481566      H 
        2.60452703737052        5.71892471597694        1.93957724050212      H 
       -2.16078421403361       -4.05773428746917       -2.03511283481201      O 
       -2.19978242082761       -3.61571345020678       -0.25260070125332      H 
       -0.38144160893080       -4.28509007222654       -2.36426408131047      H 
        2.10974877129672        1.26077999176569       -3.23178818123972      O 
       -0.99814727775568        0.92370212500781       -4.17292984807147      H 
        2.30159302367723        2.64289568755211       -2.05678653719263      H 
       -2.94384103039216        2.23197099729550        0.62844245743192      N 
       -1.47297230726418        3.50946658451152        0.81234661253785      H 
       -2.38827537435654        0.58050946795920        1.59407365099903      H 
       -4.58654452712624        2.93019778718046        1.32314228763636      H 
$end
 
 Bond Distances (Angstroems)
 ---------------------------
S1-O2=1.4596         S1-O3=1.4519         S1-O4=1.4491         S1-O5=1.5817         O2-S1=1.4596         O3-S1=1.4519         
O4-S1=1.4491         O5-S1=1.5817         O5-H6=0.9516         H6-O5=0.9516         H7-O17=0.9763        O8-H9=0.9860         
O8-H18=0.9860        H9-O8=0.9860         H10-N20=1.1039       O11-H12=0.9956       O11-H13=0.9582       H12-O11=0.9956       
H13-O11=0.9582       O14-H15=0.9721       O14-H16=0.9651       H15-O14=0.9721       H16-O14=0.9651       O17-H7=0.9763        
O17-H19=0.9653       H18-O8=0.9860        H19-O17=0.9653       N20-H10=1.1039       N20-H21=1.0355       N20-H22=1.0542       
N20-H23=1.0136       H21-N20=1.0355       H22-N20=1.0542       H23-N20=1.0136       
 N  H  Rav=1.0518 sigma=0.0334  Rmin=1.0136  Rmax=1.1039     4
 O  H  Rav=0.9729 sigma=0.0136  Rmin=0.9516  Rmax=0.9956     9
 S  O  Rav=1.4856 sigma=0.0556  Rmin=1.4491  Rmax=1.5817     4
 
 selected bond angles (degree)
 --------------------
O3-S1-O2=111.85                O4-S1-O2=113.05                O4-S1-O3=112.46                O5-S1-O2=105.26                
O5-S1-O3=107.12                O5-S1-O4=106.50                H6-O5-S1=102.31                H18-O8-H9=104.06               
 
 selected dihedral angles (degree)
 ---------------------------------
H6-O5-S1-O2=172.00            H6-O5-S1-O3=291.19            H6-O5-S1-O4= 51.73            
 
 CMA Distance (Angstroems)
 ---------------------------
R(CMA):  2.8981

========================================================================
 FINAL SINGLEPOINT CALCULATION ON OPTIMIZED GEOMETRY
========================================================================

 Ncao       : 59
 Nao        : 58
 Nshell     : 34
 Nel        : 72
 T(el)      :   300.0
 intcut     :    25.0
 scfconv/Eh :  0.100E-05
   qconv/e  :  0.100E-03
 intneglect :  0.100E-07
 broydamp   :      0.250
 iter      E             dE          RMSdq      gap      omega  full diag
   1    -45.6395616 -0.456396E+02  0.101E-04    9.18       0.0  T
   2    -45.6395616 -0.235190E-11  0.650E-05    9.18     320.7  T
   3    -45.6395616 -0.173372E-11  0.699E-06    9.18    2983.2  T
speedup  1.20
cpu  time for SCC    0.00 s
wall time for SCC    0.00 s

   *** convergence criteria satisfied after 3 iterations ***

          eigenvalues
 #    :          24         25         26         27         28         29         30         31
 occ. :        2.000      2.000      2.000      2.000      2.000      2.000      2.000      2.000
 eps  :       -13.879    -13.637    -13.357    -12.712    -12.551    -12.373    -12.353    -12.195
 #    :          32         33         34         35         36         37         38         39
 occ. :        2.000      2.000      2.000      2.000      2.000      0.000      0.000      0.000
 eps  :       -12.118    -12.063    -11.892    -11.786    -11.698     -2.520     -1.009     -0.589
 #    :          40         41         42         43         44         45         46         47
 occ. :        0.000      0.000      0.000      0.000      0.000      0.000      0.000      0.000
 eps  :         0.743      1.212      1.834      1.981      3.779      3.918      4.555      5.412


   #   Z            q   n(s)   n(p)   n(d)      C6AA      α(0)
   1  16 S      1.675  1.581  1.789  0.954    89.341    15.908
   2   8 O     -0.730  1.763  4.967  0.000    29.529     7.286
   3   8 O     -0.741  1.770  4.972  0.000    29.861     7.327
   4   8 O     -0.746  1.772  4.974  0.000    29.994     7.343
   5   8 O     -0.583  1.751  4.833  0.000    24.758     6.717
   6   1 H      0.345  0.655  0.000  0.000     0.592     1.204
   7   1 H      0.315  0.685  0.000  0.000     0.679     1.295
   8   8 O     -0.612  1.763  4.850  0.000    25.464     6.812
   9   1 H      0.333  0.667  0.000  0.000     0.630     1.247
  10   1 H      0.309  0.691  0.000  0.000     0.686     1.297
  11   8 O     -0.632  1.743  4.889  0.000    25.973     6.878
  12   1 H      0.337  0.663  0.000  0.000     0.620     1.237
  13   1 H      0.289  0.711  0.000  0.000     0.754     1.363
  14   8 O     -0.609  1.743  4.866  0.000    25.400     6.802
  15   1 H      0.307  0.693  0.000  0.000     0.700     1.314
  16   1 H      0.305  0.695  0.000  0.000     0.706     1.320
  17   8 O     -0.625  1.750  4.875  0.000    25.804     6.856
  18   1 H      0.334  0.666  0.000  0.000     0.627     1.244
  19   1 H      0.305  0.695  0.000  0.000     0.707     1.321
  20   7 N     -0.356  1.280  4.076  0.000    29.150     8.019
  21   1 H      0.273  0.727  0.000  0.000     0.798     1.399
  22   1 H      0.283  0.717  0.000  0.000     0.767     1.372
  23   1 H      0.225  0.775  0.000  0.000     0.985     1.555

 Mol. C6AA /au·bohr⁶  :       4501.159321
 Mol. C8AA /au·bohr⁸  :      99133.719966
 Mol. α(0) /au        :         97.115346

 
 Wiberg/Mayer (AO) data. WBOs > 0.1 written file <wbo>
 largest (>0.05) Wiberg bond orders for each atom
           total WBO             WBO to atom ...
     1  S   4.863    O    4 1.325    O    3 1.314    O    2 1.286    O    5 0.899
     2  O   1.761    S    1 1.286    O    4 0.110    O    3 0.108    H   22 0.095    O    5 0.058
     3  O   1.726    S    1 1.314    O    4 0.112    O    2 0.108    H   12 0.085    O    5 0.073
     4  O   1.715    S    1 1.325    O    3 0.112    O    2 0.110    O    5 0.076
     5  O   1.978    S    1 0.899    H    6 0.864    O    4 0.076    O    3 0.073    O    2 0.058
     6  H   0.881    O    5 0.864
     7  H   0.901    O   17 0.849
     8  O   1.986    H    9 0.824    H   18 0.823    H   10 0.191    N   20 0.083
     9  H   0.889    O    8 0.824    O   14 0.063
    10  H   0.905    N   20 0.709    O    8 0.191
    11  O   1.864    H   13 0.906    H   12 0.796    H   21 0.058
    12  H   0.886    O   11 0.796    O    3 0.085
    13  H   0.916    O   11 0.906
    14  O   1.877    H   16 0.890    H   15 0.862    H    9 0.063
    15  H   0.906    O   14 0.862
    16  H   0.907    O   14 0.890
    17  O   1.865    H   19 0.881    H    7 0.849    H   18 0.063
    18  H   0.888    O    8 0.823    O   17 0.063
    19  H   0.907    O   17 0.881
    20  N   3.508    H   23 0.946    H   21 0.863    H   22 0.818    H   10 0.709    O    8 0.083
    21  H   0.925    N   20 0.863    O   11 0.058
    22  H   0.920    N   20 0.818    O    2 0.095
    23  H   0.949    N   20 0.946
 MOs/occ written to file <molden.input>
 
molecular dipole:
                 x           y           z       tot (Debye)
 q only:       -0.873       1.717       0.443
   full:       -0.053       1.382       1.305       4.834
molecular quadrupole (traceless):
                xx          xy          yy          xz          yz          zz
 q only:        6.043      -8.625       4.248      -1.134       4.342     -10.290
  q+dip:        6.334     -10.076       6.045      -1.083       4.858     -12.379
   full:        6.338     -10.305       6.319      -0.856       4.636     -12.657

SCC energy    :     -45.6395616
rep           :       0.2592109
ES            :       0.2340445
AES           :      -0.0688553
AXC           :      -0.0079021
disp          :      -0.0176893
XB            :       0.0000000
fix           :       0.0000000
total E       :     -45.3801408
atomizationE  :       4.4632033     2800.70
(atE without considering molecular charge,
 total energy contains solvation terms)
H-L gap (eV)  :          9.1778
optimized geometry written to: xtbopt.xyz


------------------------------------------------------------------------
 * finished run on 2019/09/16 at 11:40:28.349     
------------------------------------------------------------------------
 total:
 * wall-time:     0 d,  0 h,  0 min,  6.263 sec
 *  cpu-time:     0 d,  0 h,  0 min,  6.217 sec
 * ratio c/w:     0.993 speedup
 SCF:
 * wall-time:     0 d,  0 h,  0 min,  0.124 sec
 *  cpu-time:     0 d,  0 h,  0 min,  0.121 sec
 * ratio c/w:     0.973 speedup
 ANC optimizer:
 * wall-time:     0 d,  0 h,  0 min,  6.113 sec
 *  cpu-time:     0 d,  0 h,  0 min,  6.072 sec
 * ratio c/w:     0.993 speedup

