      -----------------------------------------------------------      
     |                   =====================                   |     
     |                           x T B                           |     
     |                   =====================                   |     
     |                         S. Grimme                         |     
     |          Mulliken Center for Theoretical Chemistry        |     
     |                    University of Bonn                     |     
     |                 Version 6.0.1 (SAW181210)                 |     
      -----------------------------------------------------------      

   This program is distributed in the hope that it will be useful,
   but WITHOUT ANY WARRANTY; without even the implied warranty of
   MERCHANTABILITY or FITNESS FOR A PARTICULAR PURPOSE.
   
   FOR NON-COMMERCIAL, ACADEMIA USE ONLY.
   
   Cite this work as:
   S. Grimme, C. Bannwarth, P. Shushkov, J. Comput. Theory Chem., 2017,
   13, 1989-2009.
   C. Bannwarth, S. Ehlert and S. Grimme., ChemRxiv, 2018, preprint.
   http://doi.org/10.26434/chemrxiv.7246238.v1
   
   for sTDA-xTB:
   S. Grimme and C. Bannwarth, J. Chem. Phys., 2016, 145, 054103.
   
   in the mass-spec context:
   V. Asgeirsson, C. Bauer and S. Grimme, Chem. Sci., 2017, 8, 4879.
   
   if GBSA is used:
   P. Shushkov, F. März and S. Grimme, unpublished.
   
   for ANC optimizer:
   S. Grimme, unpublished.
   Rational Function algorithm used in ANCopt:
   F. Eckert, P. Pulay, H.-J. Werner, J. Comput. Chem., 1997, 18, 1473.
   
   with help from (in alphabetical order)
   C. Bannwarth, F. Bohle, G. Brandenburg, E. Caldeweyher, M. Checinski,
   S. Dohm, S. Ehlert, S. Ehrlich, F. März, H. Neugebauer, J. Pisarek,
   P. Pracht, P. Shushkov, and S. Spicher.
   
 * started run on 2019/09/16 at 11:55:22.522     
========================================================================
 # omp threads = 1
========================================================================
number of atoms            : 23
number of electrons        : 72
charge                     : 0
spin                       : .0
first test random number   : .5620

########################################################################
# WARNING! Please study the warnings concerning your input carefully
#  - XTBPATH is not set, using XTBHOME instead
#  - the use of '-opt' is discouraged, please use '--opt' next time
#  - the use of '-chrg' is discouraged, please use '--chrg' next time
#  - the use of '-uhf' is discouraged, please use '--uhf' next time
########################################################################

           ------------------------------------------------- 
          |                 G F N 2 - x T B                 |
          | Geometry, Frequencies, Noncovalent interactions |
          |            JCTC 2018 parametrisation            |
           ------------------------------------------------- 
      method parameters     
 k(s)        :  1.8500
 k(p)        :  2.2300
 k(d)        :  2.2300
 k(f)        :  2.0000
 kEN (H0ij)  : -2.0000
 D4 a1       :  0.5200
 D4 a2       :  5.0000
 D4 s6       :  1.0000
 D4 s8       :  2.7000
 D4 s9       :  5.0000
 alphaj      :  2.0000


            Z     q(EN)     CN     RAES       Cart. coordinates
     1  S   6.0    0.61    4.51    4.58     2.31338    -1.88102    -3.47234
     2  O   6.0   -0.33    1.25    1.80     4.16789    -0.79800    -1.65136
     3  O   6.0   -0.27    1.12    1.80     3.66817    -2.76798    -5.77581
     4  O   6.0   -0.26    2.09    1.84     0.46388     0.06659    -4.17850
     5  O   6.0   -0.25    2.10    1.84     0.99753    -4.02201    -2.29030
     6  H   1.0    0.16    1.27    1.49    -0.78382    -3.68294    -2.23642
     7  H   1.0    0.15    1.21    1.47     1.32265     1.46559    -4.95076
     8  O   6.0   -0.31    2.05    1.83    -0.67095     1.17531     1.66500
     9  H   1.0    0.16    1.01    1.43     0.18051     2.60182     0.92022
    10  H   1.0    0.16    1.02    1.43     0.57980     0.35706     2.70458
    11  O   6.0   -0.28    2.02    1.83    -3.48923    -2.15883    -0.93529
    12  H   1.0    0.15    0.98    1.43    -5.24167    -2.14677    -0.44190
    13  H   1.0    0.16    1.04    1.43    -2.68988    -0.88937     0.09628
    14  O   6.0   -0.29    1.99    1.82     2.92809     4.06437    -0.68437
    15  H   1.0    0.16    1.03    1.43     3.84686     2.49789    -0.81331
    16  H   1.0    0.14    0.97    1.43     4.17831     5.32368    -0.27727
    17  O   6.0   -0.29    2.00    1.83     3.57759    -1.00562     3.39903
    18  H   1.0    0.15    0.97    1.43     4.85990    -1.89799     4.33388
    19  H   1.0    0.17    1.04    1.43     4.14350    -1.02287     1.66869
    20  N   5.0   -0.21    2.93    1.92    -6.24185     0.79621     2.84687
    21  H   1.0    0.11    1.01    1.43    -4.36814     1.23544     2.76118
    22  H   1.0    0.10    0.99    1.43    -6.56226     0.22192     4.65755
    23  H   1.0    0.10    0.99    1.43    -7.18028     2.46754     2.65434

  Z AO/shell   Hii/eV     exponent
  1     Wed Apr 25 08:07:45 CEST 2018   EN: 2.200 GM2: 0.406  GM3: 0.0800  RAES: 1.40
     1s    -10.707211    1.230000
  7     Wed Apr 25 08:07:45 CEST 2018   EN: 3.040 GM2: 0.461  GM3:-0.0640  RAES: 1.90
     2s    -16.686243    2.339881
     2p    -12.523956    2.014332
  8     Wed Apr 25 08:07:45 CEST 2018   EN: 3.440 GM2: 0.452  GM3:-0.0517  RAES: 1.80
     2s    -20.229985    2.439742
     2p    -15.503117    2.137023
 16     Tue Apr 24 11:44:34 CEST 2018   EN: 2.580 GM2: 0.340  GM3:-0.0502  RAES: 3.10
     3s    -20.029654    1.981333
     3p    -11.377694    2.025643
     3d     -0.420282    1.702555
 no old-style atom pair restraining (fixing) potential

molecular fragmentation (1/2 indicates fragments):
11111112222222222222222
# atoms in fragment 1/2:     7    16
 fragment masses (1/2) :       98.07       89.09
CMA distance (Bohr)    :   6.100
constraining FC (au)   :  0.0500
           ------------------------------------------------- 
          |        Self-Consistent Charge Iterations        |
           ------------------------------------------------- 

 Ncao       : 59
 Nao        : 58
 Nshell     : 34
 Nel        : 72
 T(el)      :   300.0
 intcut     :    25.0
 scfconv/Eh :  0.100E-05
   qconv/e  :  0.100E-03
 intneglect :  0.100E-07
 broydamp   :      0.250
 iter      E             dE          RMSdq      gap      omega  full diag
   1    -45.4975112 -0.454975E+02  0.717E+00   10.44       0.0  T
   2    -45.5516817 -0.541705E-01  0.516E+00    9.42       1.0  T
   3    -45.5876931 -0.360114E-01  0.155E+00    7.55       1.0  T
   4    -45.5938596 -0.616652E-02  0.604E-01    7.82       1.0  T
   5    -45.5944330 -0.573343E-03  0.397E-01    7.68       1.0  T
   6    -45.5951052 -0.672232E-03  0.177E-01    7.68       1.0  T
   7    -45.5952836 -0.178437E-03  0.716E-02    7.66       1.0  T
   8    -45.5953097 -0.260201E-04  0.398E-02    7.67       1.0  T
   9    -45.5953178 -0.814528E-05  0.164E-02    7.69       1.3  T
  10    -45.5953195 -0.171210E-05  0.306E-03    7.69       6.8  T
  11    -45.5953195 -0.242975E-07  0.156E-03    7.69      13.4  T
  12    -45.5953195 -0.911434E-08  0.731E-04    7.69      28.5  T
  13    -45.5953195 -0.274078E-08  0.162E-04    7.69     129.0  T
speedup  0.96
cpu  time for SCC    0.01 s
wall time for SCC    0.01 s

   *** convergence criteria satisfied after 13 iterations ***

          eigenvalues
 #    :          24         25         26         27         28         29         30         31
 occ. :        2.000      2.000      2.000      2.000      2.000      2.000      2.000      2.000
 eps  :       -13.391    -13.252    -13.174    -13.022    -12.695    -12.608    -12.304    -12.066
 #    :          32         33         34         35         36         37         38         39
 occ. :        2.000      2.000      2.000      2.000      2.000      0.000      0.000      0.000
 eps  :       -12.008    -11.763    -11.748    -11.685    -10.477     -2.791     -1.640     -0.693
 #    :          40         41         42         43         44         45         46         47
 occ. :        0.000      0.000      0.000      0.000      0.000      0.000      0.000      0.000
 eps  :         0.381      0.677      1.864      2.584      2.957      3.377      4.805      5.545


   #   Z            q   n(s)   n(p)   n(d)      C6AA      α(0)
   1  16 S      1.702  1.571  1.782  0.945    88.716    15.853
   2   8 O     -0.729  1.767  4.962  0.000    29.523     7.285
   3   8 O     -0.697  1.778  4.919  0.000    28.625     7.173
   4   8 O     -0.536  1.711  4.825  0.000    23.683     6.570
   5   8 O     -0.534  1.712  4.822  0.000    23.624     6.562
   6   1 H      0.420  0.580  0.000  0.000     0.443     1.042
   7   1 H      0.396  0.604  0.000  0.000     0.485     1.090
   8   8 O     -0.636  1.743  4.893  0.000    26.073     6.892
   9   1 H      0.317  0.683  0.000  0.000     0.673     1.289
  10   1 H      0.327  0.673  0.000  0.000     0.646     1.262
  11   8 O     -0.645  1.743  4.902  0.000    26.297     6.921
  12   1 H      0.308  0.692  0.000  0.000     0.698     1.312
  13   1 H      0.331  0.669  0.000  0.000     0.635     1.251
  14   8 O     -0.612  1.742  4.870  0.000    25.478     6.813
  15   1 H      0.318  0.682  0.000  0.000     0.669     1.285
  16   1 H      0.287  0.713  0.000  0.000     0.762     1.371
  17   8 O     -0.611  1.737  4.874  0.000    25.445     6.808
  18   1 H      0.283  0.717  0.000  0.000     0.776     1.384
  19   1 H      0.318  0.682  0.000  0.000     0.669     1.284
  20   7 N     -0.452  1.403  4.049  0.000    31.883     8.386
  21   1 H      0.177  0.823  0.000  0.000     1.229     1.737
  22   1 H      0.136  0.864  0.000  0.000     1.502     1.920
  23   1 H      0.135  0.865  0.000  0.000     1.510     1.925

 Mol. C6AA /au·bohr⁶  :       4510.047881
 Mol. C8AA /au·bohr⁸  :      98905.248229
 Mol. α(0) /au        :         97.413390

 
 Wiberg/Mayer (AO) data. WBOs > 0.1 written file <wbo>
 largest (>0.05) Wiberg bond orders for each atom
           total WBO             WBO to atom ...
     1  S   4.829    O    3 1.395    O    2 1.299    O    5 1.084    O    4 1.015
     2  O   1.708    S    1 1.299    O    3 0.131    O    4 0.084    O    5 0.079
     3  O   1.712    S    1 1.395    O    2 0.131    O    4 0.090    O    5 0.085
     4  O   2.058    S    1 1.015    H    7 0.818    O    3 0.090    O    2 0.084
     5  O   2.072    S    1 1.084    H    6 0.747    O    3 0.085    O    2 0.079
     6  H   0.824    O    5 0.747    O   11 0.052
     7  H   0.843    O    4 0.818
     8  O   1.854    H    9 0.863    H   10 0.857
     9  H   0.900    O    8 0.863
    10  H   0.893    O    8 0.857
    11  O   1.826    H   12 0.888    H   13 0.835    H    6 0.052
    12  H   0.905    O   11 0.888
    13  H   0.890    O   11 0.835
    14  O   1.837    H   16 0.912    H   15 0.858
    15  H   0.899    O   14 0.858
    16  H   0.918    O   14 0.912
    17  O   1.830    H   18 0.909    H   19 0.855
    18  H   0.920    O   17 0.909
    19  H   0.899    O   17 0.855
    20  N   2.935    H   23 0.980    H   22 0.979    H   21 0.947
    21  H   0.969    N   20 0.947
    22  H   0.982    N   20 0.979
    23  H   0.982    N   20 0.980
 MOs/occ written to file <molden.input>
 
molecular dipole:
                 x           y           z       tot (Debye)
 q only:       -0.498       0.892       0.452
   full:       -0.326       1.360       0.910       4.242
molecular quadrupole (traceless):
                xx          xy          yy          xz          yz          zz
 q only:       -0.277       8.114       2.894       9.173      -8.881      -2.618
  q+dip:        0.008       8.069       2.375       9.926      -9.417      -2.383
   full:        0.440       8.017       2.604       9.927     -10.042      -3.044

SCC energy    :     -45.5953195
rep           :       0.2826213
ES            :       0.2176353
AES           :      -0.0398524
AXC           :      -0.0057087
disp          :      -0.0151490
XB            :       0.0000000
fix           :       0.0000000
total E       :     -45.3125248
atomizationE  :       4.3955873     2758.27
(atE without considering molecular charge,
 total energy contains solvation terms)
H-L gap (eV)  :          7.6862
           ------------------------------------------------- 
          |                 ===============                 |
          |                   A N C O P T                   |
          |                 ===============                 |
          |          Approximate Normal Coordinate          |
          |           Rational Function Optimizer           |
           ------------------------------------------------- 
dumping coords to <xtbopt.coord> and <xtbopt.log>
 optlevel               2
 Maxcycle             460
 Maxmicro              25
 Econv         1.000000000000000E-007
 Gconv         2.000000000000000E-004
 Maxdispl       1.00000000000000     
 Hlow          5.000000000000000E-003
 S6             20.0000000000000     
 Nvar               63

generating ANC from model Hessian ...
 Shifting diagonal of input Hessian by   5.255221222597591E-003
 Lowest  eigenvalues of input Hessian
    0.005000   -0.000000   -0.000000    0.000000    0.000000    0.000000
    0.000000    0.005348    0.005397    0.005546    0.005734    0.006140
    0.006405    0.006466    0.006503    0.006706    0.007407    0.007642
 Highest eigenvalues
    1.425933    1.448091    1.546654    3.211669    3.409376    3.461549
 
cpu  time for ANC gen    0.01 s
wall time for ANC gen    0.01 s
................................................................................
.............................. CYCLE    1 ......................................
................................................................................
   1    -45.5953195 -0.455953E+02  0.880E-05    7.69       0.0  T
   2    -45.5953195 -0.186802E-10  0.666E-05    7.69     313.1  T
   3    -45.5953195 -0.135358E-10  0.423E-05    7.69     492.4  T
speedup  0.77
cpu  time for SCC    0.00 s
wall time for SCC    0.00 s
speedup  0.95
cpu  time for grad    0.01 s
wall time for grad    0.01 s
 E :    -45.31252481  G :  0.186322    pred/act E change:  0.000D+00  0.388D-07
Maxdispl :   0.1312   ||displ|| :   0.3461   Lambda : -0.165D-01
Largest |displ|/coords:  0.1312 (  11)  0.1167 (  26)  0.1155 (  20)
................................................................................
.............................. CYCLE    2 ......................................
................................................................................
   1    -45.5997830 -0.455998E+02  0.442E-01    7.49       0.0  T
   2    -45.6000648 -0.281795E-03  0.336E-01    7.47       1.0  T
   3    -45.6001408 -0.760535E-04  0.158E-01    7.45       1.0  T
   4    -45.6001583 -0.175247E-04  0.244E-02    7.45       1.0  T
   5    -45.6001596 -0.129076E-05  0.776E-03    7.46       2.7  T
   6    -45.6001597 -0.537541E-07  0.296E-03    7.46       7.0  T
   7    -45.6001597 -0.143953E-07  0.152E-03    7.46      13.7  T
speedup  1.07
cpu  time for SCC    0.01 s
wall time for SCC    0.01 s
speedup  1.01
cpu  time for grad    0.01 s
wall time for grad    0.01 s
 E :    -45.32539805  G :  0.127583    pred/act E change:  0.000D+00 -0.129D-01
Maxdispl :   0.1520   ||displ|| :   0.2861   Lambda : -0.971D-02
Largest |displ|/coords:  0.1520 (  17)  0.1163 (  26)  0.0736 (  21)
................................................................................
.............................. CYCLE    3 ......................................
................................................................................
   1    -45.6099178 -0.456099E+02  0.276E-01    7.39       0.0  T
   2    -45.6101095 -0.191694E-03  0.217E-01    7.39       1.0  T
   3    -45.6101589 -0.493627E-04  0.125E-01    7.39       1.0  T
   4    -45.6101641 -0.521291E-05  0.228E-02    7.39       1.0  T
   5    -45.6101649 -0.757284E-06  0.515E-03    7.39       4.1  T
   6    -45.6101649 -0.281474E-07  0.221E-03    7.39       9.4  T
speedup  1.06
cpu  time for SCC    0.00 s
wall time for SCC    0.00 s
speedup  0.99
cpu  time for grad    0.01 s
wall time for grad    0.01 s
 E :    -45.33284074  G :  0.069919    pred/act E change: -0.926D-02 -0.744D-02
Maxdispl :   0.1250   ||displ|| :   0.3231   Lambda : -0.512D-02
Largest |displ|/coords:  0.1250 (  17)  0.1198 (  15)  0.1163 (  18)
................................................................................
.............................. CYCLE    4 ......................................
................................................................................
   1    -45.6104927 -0.456105E+02  0.356E-01    7.23       0.0  T
   2    -45.6106317 -0.139057E-03  0.274E-01    7.23       1.0  T
   3    -45.6106689 -0.371207E-04  0.995E-02    7.24       1.0  T
   4    -45.6106842 -0.153756E-04  0.244E-02    7.25       1.0  T
   5    -45.6106850 -0.746550E-06  0.477E-03    7.25       4.4  T
   6    -45.6106850 -0.208793E-07  0.239E-03    7.25       8.7  T
speedup  1.06
cpu  time for SCC    0.00 s
wall time for SCC    0.00 s
speedup  0.99
cpu  time for grad    0.01 s
wall time for grad    0.01 s
 E :    -45.33643255  G :  0.034778    pred/act E change: -0.525D-02 -0.359D-02
Maxdispl :   0.2529   ||displ|| :   0.5166   Lambda : -0.555D-02
Largest |displ|/coords:  0.2529 (  17)  0.1780 (   4)  0.1455 (   9)
................................................................................
.............................. CYCLE    5 ......................................
................................................................................
   1    -45.6145641 -0.456146E+02  0.533E-01    6.89       0.0  T
   2    -45.6148740 -0.309897E-03  0.412E-01    6.91       1.0  T
   3    -45.6149504 -0.763926E-04  0.136E-01    6.97       1.0  T
   4    -45.6149888 -0.384060E-04  0.391E-02    6.98       1.0  T
   5    -45.6149907 -0.193558E-05  0.755E-03    6.98       2.8  T
   6    -45.6149908 -0.505582E-07  0.388E-03    6.98       5.4  T
   7    -45.6149908 -0.149464E-07  0.163E-03    6.98      12.8  T
speedup  1.07
cpu  time for SCC    0.01 s
wall time for SCC    0.01 s
speedup  1.00
cpu  time for grad    0.01 s
wall time for grad    0.01 s
 E :    -45.33786711  G :  0.041410    pred/act E change: -0.283D-02 -0.143D-02
Maxdispl :   0.1815   ||displ|| :   0.3235   Lambda : -0.274D-02
Largest |displ|/coords:  0.1815 (  15)  0.1200 (  16)  0.1164 (  18)
................................................................................
.............................. CYCLE    6 ......................................
................................................................................
   1    -45.6081831 -0.456082E+02  0.482E-01    6.92       0.0  T
   2    -45.6082652 -0.821745E-04  0.361E-01    6.91       1.0  T
   3    -45.6083160 -0.507933E-04  0.648E-02    6.90       1.0  T
   4    -45.6083276 -0.115749E-04  0.164E-02    6.90       1.3  T
   5    -45.6083281 -0.548022E-06  0.552E-03    6.90       3.8  T
   6    -45.6083282 -0.309485E-07  0.333E-03    6.90       6.3  T
speedup  1.04
cpu  time for SCC    0.00 s
wall time for SCC    0.00 s
speedup  0.97
cpu  time for grad    0.01 s
wall time for grad    0.01 s
 E :    -45.33774718  G :  0.050438    pred/act E change: -0.352D-02  0.120D-03
Maxdispl :   0.2074   ||displ|| :   0.4250   Lambda : -0.841D-02
Largest |displ|/coords:  0.2074 (  16)  0.1768 (  15)  0.1681 (  13)
................................................................................
.............................. CYCLE    7 ......................................
................................................................................
   1    -45.6117015 -0.456117E+02  0.707E-01    6.92       0.0  T
   2    -45.6119005 -0.199049E-03  0.535E-01    6.95       1.0  T
   3    -45.6120420 -0.141481E-03  0.892E-02    7.01       1.0  T
   4    -45.6120699 -0.278715E-04  0.215E-02    6.99       1.0  T
   5    -45.6120709 -0.979766E-06  0.943E-03    6.98       2.2  T
   6    -45.6120709 -0.582362E-07  0.471E-03    6.98       4.4  T
   7    -45.6120710 -0.510349E-07  0.108E-03    6.98      19.3  T
speedup  1.07
cpu  time for SCC    0.01 s
wall time for SCC    0.01 s
speedup  0.99
cpu  time for grad    0.01 s
wall time for grad    0.01 s
 E :    -45.33797418  G :  0.043500    pred/act E change: -0.151D-02 -0.227D-03
Maxdispl :   0.0886   ||displ|| :   0.2364   Lambda : -0.250D-02
Largest |displ|/coords:  0.0886 (  13)  0.0860 (   2)  0.0804 (   3)
................................................................................
.............................. CYCLE    8 ......................................
................................................................................
   1    -45.6128555 -0.456129E+02  0.316E-01    7.01       0.0  T
   2    -45.6128833 -0.277590E-04  0.240E-01    7.00       1.0  T
   3    -45.6129048 -0.215253E-04  0.326E-02    7.00       1.0  T
   4    -45.6129085 -0.370040E-05  0.105E-02    7.01       2.0  T
   5    -45.6129088 -0.226664E-06  0.347E-03    7.01       6.0  T
   6    -45.6129088 -0.707225E-08  0.199E-03    7.01      10.5  T
speedup  0.85
cpu  time for SCC    0.00 s
wall time for SCC    0.00 s
speedup  0.89
cpu  time for grad    0.01 s
wall time for grad    0.01 s
 E :    -45.33951054  G :  0.022655    pred/act E change: -0.496D-02 -0.154D-02
Maxdispl :   0.2562   ||displ|| :   0.4550   Lambda : -0.275D-02
Largest |displ|/coords:  0.2562 (   5)  0.2203 (   6)  0.1585 (   4)
................................................................................
.............................. CYCLE    9 ......................................
................................................................................
   1    -45.6089961 -0.456090E+02  0.454E-01    7.04       0.0  T
   2    -45.6090861 -0.899455E-04  0.339E-01    7.04       1.0  T
   3    -45.6091464 -0.603194E-04  0.597E-02    7.05       1.0  T
   4    -45.6091584 -0.120242E-04  0.196E-02    7.05       1.1  T
   5    -45.6091591 -0.667696E-06  0.725E-03    7.05       2.9  T
   6    -45.6091591 -0.743213E-07  0.424E-03    7.05       4.9  T
   7    -45.6091592 -0.361013E-07  0.994E-04    7.05      21.0  T
speedup  1.09
cpu  time for SCC    0.01 s
wall time for SCC    0.01 s
speedup  1.01
cpu  time for grad    0.01 s
wall time for grad    0.01 s
 E :    -45.33872546  G :  0.054837    pred/act E change: -0.132D-02  0.785D-03
Maxdispl :   0.2298   ||displ|| :   0.4043   Lambda : -0.751D-02
Largest |displ|/coords:  0.2298 (   5)  0.1601 (   6)  0.1102 (  16)
................................................................................
.............................. CYCLE   10 ......................................
................................................................................
   1    -45.6073122 -0.456073E+02  0.528E-01    7.02       0.0  T
   2    -45.6074456 -0.133470E-03  0.396E-01    7.04       1.0  T
   3    -45.6075416 -0.959454E-04  0.698E-02    7.07       1.0  T
   4    -45.6075589 -0.173462E-04  0.181E-02    7.06       1.2  T
   5    -45.6075594 -0.449686E-06  0.836E-03    7.06       2.5  T
   6    -45.6075594 -0.621828E-07  0.404E-03    7.06       5.2  T
   7    -45.6075595 -0.328723E-07  0.874E-04    7.06      23.9  T
speedup  0.93
cpu  time for SCC    0.01 s
wall time for SCC    0.01 s
speedup  1.01
cpu  time for grad    0.01 s
wall time for grad    0.01 s
 E :    -45.33905164  G :  0.044503    pred/act E change: -0.166D-02 -0.326D-03
Maxdispl :   0.0914   ||displ|| :   0.2305   Lambda : -0.330D-02
Largest |displ|/coords:  0.0914 (  20)  0.0792 (   6)  0.0729 (   3)
................................................................................
.............................. CYCLE   11 ......................................
................................................................................
   1    -45.6174598 -0.456175E+02  0.333E-01    7.11       0.0  T
   2    -45.6175103 -0.504975E-04  0.252E-01    7.10       1.0  T
   3    -45.6175483 -0.379492E-04  0.419E-02    7.10       1.0  T
   4    -45.6175553 -0.699035E-05  0.930E-03    7.10       2.2  T
   5    -45.6175554 -0.877104E-07  0.472E-03    7.10       4.4  T
   6    -45.6175554 -0.137619E-07  0.205E-03    7.10      10.2  T
speedup  1.04
cpu  time for SCC    0.00 s
wall time for SCC    0.00 s
speedup  0.98
cpu  time for grad    0.01 s
wall time for grad    0.01 s
 E :    -45.34014327  G :  0.023101    pred/act E change: -0.437D-02 -0.109D-02
Maxdispl :   0.2004   ||displ|| :   0.3643   Lambda : -0.235D-02
Largest |displ|/coords:  0.2004 (   5)  0.1307 (   2)  0.1062 (  12)
................................................................................
.............................. CYCLE   12 ......................................
................................................................................
   1    -45.6058768 -0.456059E+02  0.381E-01    7.17       0.0  T
   2    -45.6059251 -0.482868E-04  0.285E-01    7.18       1.0  T
   3    -45.6059582 -0.331185E-04  0.447E-02    7.18       1.0  T
   4    -45.6059647 -0.648891E-05  0.142E-02    7.18       1.5  T
   5    -45.6059651 -0.355186E-06  0.531E-03    7.18       3.9  T
   6    -45.6059651 -0.328818E-07  0.303E-03    7.18       6.9  T
speedup  1.04
cpu  time for SCC    0.00 s
wall time for SCC    0.00 s
speedup  0.97
cpu  time for grad    0.01 s
wall time for grad    0.01 s
 E :    -45.34054587  G :  0.037832    pred/act E change: -0.174D-02 -0.403D-03
Maxdispl :   0.0752   ||displ|| :   0.1480   Lambda : -0.153D-02
Largest |displ|/coords:  0.0752 (   3)  0.0661 (   5)  0.0380 (   1)
................................................................................
.............................. CYCLE   13 ......................................
................................................................................
   1    -45.6107907 -0.456108E+02  0.145E-01    7.15       0.0  T
   2    -45.6108018 -0.111170E-04  0.108E-01    7.16       1.0  T
   3    -45.6108093 -0.751869E-05  0.200E-02    7.17       1.0  T
   4    -45.6108107 -0.134972E-05  0.591E-03    7.17       3.5  T
   5    -45.6108107 -0.551516E-07  0.224E-03    7.17       9.3  T
speedup  1.00
cpu  time for SCC    0.00 s
wall time for SCC    0.00 s
speedup  1.06
cpu  time for grad    0.01 s
wall time for grad    0.01 s
 E :    -45.34137546  G :  0.014344    pred/act E change: -0.133D-02 -0.830D-03
Maxdispl :   0.1306   ||displ|| :   0.2578   Lambda : -0.621D-03
Largest |displ|/coords:  0.1306 (   3)  0.1260 (   2)  0.0941 (   4)
................................................................................
.............................. CYCLE   14 ......................................
................................................................................
   1    -45.6106622 -0.456107E+02  0.155E-01    7.19       0.0  T
   2    -45.6106698 -0.763610E-05  0.116E-01    7.21       1.0  T
   3    -45.6106742 -0.432857E-05  0.183E-02    7.25       1.1  T
   4    -45.6106752 -0.108552E-05  0.627E-03    7.24       3.3  T
   5    -45.6106753 -0.391473E-07  0.198E-03    7.24      10.5  T
   6    -45.6106753 -0.421134E-08  0.102E-03    7.24      20.4  T
speedup  1.06
cpu  time for SCC    0.00 s
wall time for SCC    0.00 s
speedup  1.05
cpu  time for grad    0.01 s
wall time for grad    0.01 s
 E :    -45.34179575  G :  0.014957    pred/act E change: -0.784D-03 -0.420D-03
Maxdispl :   0.2992   ||displ|| :   0.5845   Lambda : -0.138D-02
Largest |displ|/coords:  0.2992 (   2)  0.2751 (   3)  0.1946 (   4)
................................................................................
.............................. CYCLE   15 ......................................
................................................................................
   1    -45.6099605 -0.456100E+02  0.290E-01    7.30       0.0  T
   2    -45.6099847 -0.241672E-04  0.216E-01    7.32       1.0  T
   3    -45.6100017 -0.170265E-04  0.354E-02    7.38       1.0  T
   4    -45.6100048 -0.309511E-05  0.130E-02    7.38       1.6  T
   5    -45.6100050 -0.204215E-06  0.379E-03    7.37       5.5  T
   6    -45.6100050 -0.166298E-07  0.231E-03    7.37       9.0  T
   7    -45.6100050 -0.868597E-08  0.682E-04    7.37      30.6  T
speedup  1.05
cpu  time for SCC    0.01 s
wall time for SCC    0.01 s
speedup  1.07
cpu  time for grad    0.01 s
wall time for grad    0.01 s
 E :    -45.34295101  G :  0.012578    pred/act E change: -0.331D-03 -0.116D-02
Maxdispl :   0.3281   ||displ|| :   0.6938   Lambda : -0.180D-02
Largest |displ|/coords:  0.3281 (   2)  0.2645 (   1)  0.2334 (   3)
................................................................................
.............................. CYCLE   16 ......................................
................................................................................
   1    -45.6079939 -0.456080E+02  0.403E-01    7.52       0.0  T
   2    -45.6080327 -0.387707E-04  0.299E-01    7.55       1.0  T
   3    -45.6080612 -0.284871E-04  0.419E-02    7.60       1.0  T
   4    -45.6080660 -0.488214E-05  0.175E-02    7.60       1.2  T
   5    -45.6080664 -0.326049E-06  0.512E-03    7.60       4.1  T
   6    -45.6080664 -0.296317E-07  0.304E-03    7.60       6.9  T
   7    -45.6080664 -0.141932E-07  0.889E-04    7.60      23.5  T
   8    -45.6080664 -0.214696E-08  0.326E-04    7.60      64.0  T
speedup  0.94
cpu  time for SCC    0.01 s
wall time for SCC    0.01 s
speedup  0.93
cpu  time for grad    0.01 s
wall time for grad    0.01 s
 E :    -45.34419561  G :  0.017770    pred/act E change: -0.922D-03 -0.124D-02
Maxdispl :   0.3603   ||displ|| :   0.6278   Lambda : -0.134D-02
Largest |displ|/coords:  0.3603 (   2)  0.2529 (   4)  0.2309 (   1)
................................................................................
.............................. CYCLE   17 ......................................
................................................................................
   1    -45.6007349 -0.456007E+02  0.418E-01    7.64       0.0  T
   2    -45.6007778 -0.429299E-04  0.311E-01    7.67       1.0  T
   3    -45.6008106 -0.327580E-04  0.454E-02    7.74       1.0  T
   4    -45.6008156 -0.500145E-05  0.150E-02    7.73       1.4  T
   5    -45.6008158 -0.288169E-06  0.531E-03    7.72       3.9  T
   6    -45.6008159 -0.368390E-07  0.291E-03    7.72       7.2  T
   7    -45.6008159 -0.171983E-07  0.842E-04    7.73      24.8  T
speedup  1.09
cpu  time for SCC    0.01 s
wall time for SCC    0.01 s
speedup  1.00
cpu  time for grad    0.01 s
wall time for grad    0.01 s
 E :    -45.34434023  G :  0.041083    pred/act E change: -0.134D-02 -0.145D-03
Maxdispl :   0.1575   ||displ|| :   0.3077   Lambda : -0.244D-02
Largest |displ|/coords:  0.1575 (   2)  0.1538 (   1)  0.1155 (  11)
................................................................................
.............................. CYCLE   18 ......................................
................................................................................
   1    -45.6136998 -0.456137E+02  0.223E-01    7.79       0.0  T
   2    -45.6137323 -0.324988E-04  0.164E-01    7.77       1.0  T
   3    -45.6137509 -0.185100E-04  0.381E-02    7.74       1.0  T
   4    -45.6137547 -0.380906E-05  0.912E-03    7.76       2.3  T
   5    -45.6137548 -0.170284E-06  0.356E-03    7.75       5.9  T
   6    -45.6137548 -0.124804E-07  0.177E-03    7.75      11.8  T
speedup  1.09
cpu  time for SCC    0.00 s
wall time for SCC    0.00 s
speedup  0.95
cpu  time for grad    0.01 s
wall time for grad    0.01 s
 E :    -45.34546500  G :  0.018738    pred/act E change: -0.936D-03 -0.112D-02
Maxdispl :   0.2057   ||displ|| :   0.4815   Lambda : -0.183D-02
Largest |displ|/coords:  0.2057 (   1)  0.1937 (   2)  0.1680 (  13)
................................................................................
.............................. CYCLE   19 ......................................
................................................................................
   1    -45.6001483 -0.456001E+02  0.437E-01    7.63       0.0  T
   2    -45.6002974 -0.149082E-03  0.315E-01    7.71       1.0  T
   3    -45.6003526 -0.552313E-04  0.718E-02    7.85       1.0  T
   4    -45.6003697 -0.171263E-04  0.166E-02    7.81       1.3  T
   5    -45.6003701 -0.320682E-06  0.675E-03    7.81       3.1  T
   6    -45.6003701 -0.725738E-07  0.288E-03    7.81       7.2  T
   7    -45.6003701 -0.151194E-07  0.915E-04    7.81      22.8  T
speedup  0.93
cpu  time for SCC    0.00 s
wall time for SCC    0.01 s
speedup  1.01
cpu  time for grad    0.01 s
wall time for grad    0.01 s
 E :    -45.34321637  G :  0.064968    pred/act E change: -0.134D-02  0.225D-02
Maxdispl :   0.1934   ||displ|| :   0.4363   Lambda : -0.120D-01
Largest |displ|/coords:  0.1934 (   8)  0.1927 (   9)  0.1845 (  13)
................................................................................
.............................. CYCLE   20 ......................................
................................................................................
   1    -45.6153391 -0.456153E+02  0.544E-01    8.09       0.0  T
   2    -45.6156145 -0.275402E-03  0.392E-01    7.98       1.0  T
   3    -45.6157271 -0.112516E-03  0.934E-02    7.77       1.0  T
   4    -45.6157578 -0.307868E-04  0.201E-02    7.83       1.0  T
   5    -45.6157583 -0.471207E-06  0.927E-03    7.83       2.3  T
   6    -45.6157584 -0.768140E-07  0.327E-03    7.83       6.4  T
   7    -45.6157584 -0.234477E-07  0.103E-03    7.83      20.2  T
speedup  1.09
cpu  time for SCC    0.01 s
wall time for SCC    0.01 s
speedup  1.00
cpu  time for grad    0.01 s
wall time for grad    0.01 s
 E :    -45.34271470  G :  0.074789    pred/act E change: -0.113D-02  0.502D-03
Maxdispl :   0.1316   ||displ|| :   0.3658   Lambda : -0.127D-01
Largest |displ|/coords:  0.1316 (   8)  0.1297 (  13)  0.1236 (   9)
................................................................................
.............................. CYCLE   21 ......................................
................................................................................
   1    -45.6091949 -0.456092E+02  0.481E-01    7.61       0.0  T
   2    -45.6094441 -0.249216E-03  0.346E-01    7.70       1.0  T
   3    -45.6095420 -0.979262E-04  0.921E-02    7.85       1.0  T
   4    -45.6095671 -0.250788E-04  0.213E-02    7.80       1.0  T
   5    -45.6095678 -0.671322E-06  0.770E-03    7.79       2.7  T
   6    -45.6095678 -0.909319E-07  0.352E-03    7.79       5.9  T
   7    -45.6095679 -0.269877E-07  0.106E-03    7.79      19.7  T
speedup  1.11
cpu  time for SCC    0.01 s
wall time for SCC    0.01 s
speedup  1.00
cpu  time for grad    0.01 s
wall time for grad    0.01 s
 E :    -45.34440045  G :  0.053132    pred/act E change: -0.717D-02 -0.169D-02
Maxdispl :   0.0901   ||displ|| :   0.2606   Lambda : -0.621D-02
Largest |displ|/coords:  0.0901 (   7)  0.0871 (   2)  0.0823 (  16)
................................................................................
.............................. CYCLE   22 ......................................
................................................................................
   1    -45.6083631 -0.456084E+02  0.353E-01    7.93       0.0  T
   2    -45.6084766 -0.113468E-03  0.258E-01    7.89       1.0  T
   3    -45.6085352 -0.586143E-04  0.644E-02    7.81       1.0  T
   4    -45.6085484 -0.131921E-04  0.167E-02    7.84       1.2  T
   5    -45.6085489 -0.460274E-06  0.610E-03    7.85       3.4  T
   6    -45.6085489 -0.446628E-07  0.320E-03    7.85       6.5  T
   7    -45.6085490 -0.217871E-07  0.885E-04    7.84      23.6  T
speedup  1.07
cpu  time for SCC    0.01 s
wall time for SCC    0.01 s
speedup  0.99
cpu  time for grad    0.01 s
wall time for grad    0.01 s
 E :    -45.34553366  G :  0.034184    pred/act E change: -0.718D-02 -0.113D-02
Maxdispl :   0.1093   ||displ|| :   0.1770   Lambda : -0.229D-02
Largest |displ|/coords:  0.1093 (   1)  0.0590 (   4)  0.0491 (  15)
................................................................................
.............................. CYCLE   23 ......................................
................................................................................
   1    -45.6128042 -0.456128E+02  0.194E-01    7.83       0.0  T
   2    -45.6128337 -0.295295E-04  0.143E-01    7.84       1.0  T
   3    -45.6128525 -0.187516E-04  0.355E-02    7.85       1.0  T
   4    -45.6128557 -0.315761E-05  0.966E-03    7.84       2.2  T
   5    -45.6128558 -0.184157E-06  0.352E-03    7.84       5.9  T
   6    -45.6128559 -0.108103E-07  0.184E-03    7.84      11.4  T
speedup  1.04
cpu  time for SCC    0.01 s
wall time for SCC    0.00 s
speedup  0.98
cpu  time for grad    0.01 s
wall time for grad    0.01 s
 E :    -45.34649180  G :  0.017215    pred/act E change: -0.331D-02 -0.958D-03
Maxdispl :   0.2106   ||displ|| :   0.3265   Lambda : -0.848D-03
Largest |displ|/coords:  0.2106 (   2)  0.1308 (   1)  0.0992 (   6)
................................................................................
.............................. CYCLE   24 ......................................
................................................................................
   1    -45.6086781 -0.456087E+02  0.175E-01    7.77       0.0  T
   2    -45.6086950 -0.169658E-04  0.130E-01    7.78       1.0  T
   3    -45.6087055 -0.104609E-04  0.293E-02    7.82       1.0  T
   4    -45.6087076 -0.208378E-05  0.942E-03    7.82       2.2  T
   5    -45.6087077 -0.137461E-06  0.299E-03    7.82       7.0  T
   6    -45.6087077 -0.138060E-07  0.160E-03    7.82      13.0  T
speedup  1.04
cpu  time for SCC    0.01 s
wall time for SCC    0.00 s
speedup  1.06
cpu  time for grad    0.01 s
wall time for grad    0.01 s
 E :    -45.34674176  G :  0.018950    pred/act E change: -0.118D-02 -0.250D-03
Maxdispl :   0.1259   ||displ|| :   0.2103   Lambda : -0.520D-03
Largest |displ|/coords:  0.1259 (   1)  0.1022 (   2)  0.0642 (  12)
................................................................................
.............................. CYCLE   25 ......................................
................................................................................
   1    -45.6079016 -0.456079E+02  0.123E-01    7.83       0.0  T
   2    -45.6079046 -0.305070E-05  0.910E-02    7.84       1.0  T
   3    -45.6079073 -0.269171E-05  0.121E-02    7.85       1.7  T
   4    -45.6079076 -0.261103E-06  0.424E-03    7.85       4.9  T
   5    -45.6079076 -0.195268E-07  0.137E-03    7.85      15.3  T
   6    -45.6079076 -0.287092E-08  0.716E-04    7.85      29.1  T
speedup  0.82
cpu  time for SCC    0.00 s
wall time for SCC    0.00 s
speedup  0.97
cpu  time for grad    0.01 s
wall time for grad    0.01 s
 E :    -45.34708600  G :  0.013149    pred/act E change: -0.469D-03 -0.344D-03
Maxdispl :   0.2298   ||displ|| :   0.3586   Lambda : -0.657D-03
Largest |displ|/coords:  0.2298 (   2)  0.2013 (   1)  0.1087 (   4)

generating ANC from model Hessian ...
 Shifting diagonal of input Hessian by   5.114904991456787E-003
 Lowest  eigenvalues of input Hessian
    0.005000   -0.000000   -0.000000   -0.000000    0.000000    0.000000
    0.000000    0.005409    0.005601    0.005703    0.005948    0.006394
    0.006557    0.006820    0.008698    0.008979    0.009082    0.009509
 Highest eigenvalues
    1.402547    1.407939    1.412479    2.582747    3.306617    3.716059
 
cpu  time for ANC gen    0.01 s
wall time for ANC gen    0.01 s
................................................................................
.............................. CYCLE   26 ......................................
................................................................................
   1    -45.6113226 -0.456113E+02  0.172E-01    7.93       0.0  T
   2    -45.6113318 -0.923999E-05  0.126E-01    7.92       1.0  T
   3    -45.6113376 -0.584758E-05  0.233E-02    7.90       1.0  T
   4    -45.6113388 -0.117137E-05  0.591E-03    7.91       3.5  T
   5    -45.6113389 -0.481380E-07  0.217E-03    7.91       9.6  T
   6    -45.6113389 -0.691337E-08  0.107E-03    7.91      19.5  T
   7    -45.6113389 -0.186379E-08  0.402E-04    7.91      51.9  T
   8    -45.6113389 -0.448757E-09  0.122E-04    7.91     170.9  T
speedup  0.97
cpu  time for SCC    0.01 s
wall time for SCC    0.01 s
speedup  0.99
cpu  time for grad    0.01 s
wall time for grad    0.01 s
 E :    -45.34740384  G :  0.015133    pred/act E change:  0.000D+00 -0.318D-03
Maxdispl :   0.1045   ||displ|| :   0.2210   Lambda : -0.664D-03
Largest |displ|/coords:  0.1045 (  13)  0.0993 (   5)  0.0764 (  16)
................................................................................
.............................. CYCLE   27 ......................................
................................................................................
   1    -45.6112986 -0.456113E+02  0.209E-01    7.93       0.0  T
   2    -45.6113073 -0.863814E-05  0.154E-01    7.95       1.0  T
   3    -45.6113135 -0.621850E-05  0.158E-02    7.98       1.3  T
   4    -45.6113144 -0.930800E-06  0.533E-03    7.97       3.9  T
   5    -45.6113144 -0.168406E-07  0.211E-03    7.97       9.9  T
   6    -45.6113144 -0.485949E-08  0.741E-04    7.97      28.1  T
speedup  0.85
cpu  time for SCC    0.00 s
wall time for SCC    0.00 s
speedup  0.97
cpu  time for grad    0.01 s
wall time for grad    0.01 s
 E :    -45.34787641  G :  0.006366    pred/act E change:  0.000D+00 -0.473D-03
Maxdispl :   0.1577   ||displ|| :   0.3158   Lambda : -0.471D-03
Largest |displ|/coords:  0.1577 (   1)  0.1311 (   5)  0.1117 (   3)
................................................................................
.............................. CYCLE   28 ......................................
................................................................................
   1    -45.6100454 -0.456100E+02  0.267E-01    8.01       0.0  T
   2    -45.6100554 -0.100072E-04  0.200E-01    8.03       1.0  T
   3    -45.6100640 -0.863193E-05  0.193E-02    8.07       1.1  T
   4    -45.6100651 -0.105240E-05  0.729E-03    8.06       2.9  T
   5    -45.6100651 -0.264618E-07  0.257E-03    8.06       8.1  T
   6    -45.6100651 -0.917928E-08  0.980E-04    8.06      21.3  T
speedup  1.04
cpu  time for SCC    0.00 s
wall time for SCC    0.00 s
speedup  0.95
cpu  time for grad    0.01 s
wall time for grad    0.01 s
 E :    -45.34819343  G :  0.010414    pred/act E change: -0.348D-03 -0.317D-03
Maxdispl :   0.2796   ||displ|| :   0.4292   Lambda : -0.535D-03
Largest |displ|/coords:  0.2796 (   1)  0.1499 (   3)  0.1331 (   5)
................................................................................
.............................. CYCLE   29 ......................................
................................................................................
   1    -45.6092233 -0.456092E+02  0.259E-01    8.13       0.0  T
   2    -45.6092303 -0.699411E-05  0.194E-01    8.14       1.0  T
   3    -45.6092362 -0.587645E-05  0.182E-02    8.18       1.1  T
   4    -45.6092370 -0.812792E-06  0.703E-03    8.17       3.0  T
   5    -45.6092370 -0.462263E-07  0.218E-03    8.17       9.6  T
   6    -45.6092370 -0.596969E-08  0.112E-03    8.17      18.6  T
speedup  1.06
cpu  time for SCC    0.00 s
wall time for SCC    0.00 s
speedup  1.06
cpu  time for grad    0.01 s
wall time for grad    0.01 s
 E :    -45.34857536  G :  0.015014    pred/act E change: -0.259D-03 -0.382D-03
Maxdispl :   0.4178   ||displ|| :   0.5658   Lambda : -0.829D-03
Largest |displ|/coords:  0.4178 (   1)  0.1730 (   5)  0.1657 (   3)
................................................................................
.............................. CYCLE   30 ......................................
................................................................................
   1    -45.6080653 -0.456081E+02  0.358E-01    8.25       0.0  T
   2    -45.6080880 -0.227182E-04  0.270E-01    8.26       1.0  T
   3    -45.6081082 -0.201838E-04  0.307E-02    8.28       1.0  T
   4    -45.6081107 -0.252222E-05  0.111E-02    8.28       1.9  T
   5    -45.6081108 -0.135469E-06  0.348E-03    8.28       6.0  T
   6    -45.6081108 -0.104408E-07  0.189E-03    8.28      11.0  T
   7    -45.6081108 -0.857718E-08  0.494E-04    8.28      42.2  T
speedup  0.93
cpu  time for SCC    0.00 s
wall time for SCC    0.01 s
speedup  0.92
cpu  time for grad    0.01 s
wall time for grad    0.01 s
 E :    -45.34893902  G :  0.026605    pred/act E change: -0.317D-03 -0.364D-03
Maxdispl :   0.3521   ||displ|| :   0.4723   Lambda : -0.187D-02
Largest |displ|/coords:  0.3521 (   1)  0.1256 (   5)  0.1024 (   3)
................................................................................
.............................. CYCLE   31 ......................................
................................................................................
   1    -45.6195189 -0.456195E+02  0.296E-01    8.33       0.0  T
   2    -45.6195659 -0.469521E-04  0.220E-01    8.32       1.0  T
   3    -45.6195991 -0.331986E-04  0.430E-02    8.32       1.0  T
   4    -45.6196046 -0.552363E-05  0.127E-02    8.33       1.6  T
   5    -45.6196049 -0.304269E-06  0.486E-03    8.33       4.3  T
   6    -45.6196049 -0.153605E-07  0.243E-03    8.33       8.6  T
speedup  1.06
cpu  time for SCC    0.00 s
wall time for SCC    0.00 s
speedup  0.98
cpu  time for grad    0.01 s
wall time for grad    0.01 s
 E :    -45.34875845  G :  0.039861    pred/act E change: -0.547D-03  0.181D-03
Maxdispl :   0.0954   ||displ|| :   0.2496   Lambda : -0.202D-02
Largest |displ|/coords:  0.0954 (  13)  0.0854 (   3)  0.0829 (  16)
................................................................................
.............................. CYCLE   32 ......................................
................................................................................
   1    -45.6099547 -0.456100E+02  0.251E-01    8.31       0.0  T
   2    -45.6099782 -0.235247E-04  0.184E-01    8.33       1.0  T
   3    -45.6099896 -0.113301E-04  0.276E-02    8.37       1.0  T
   4    -45.6099929 -0.332179E-05  0.777E-03    8.35       2.7  T
   5    -45.6099930 -0.635070E-07  0.326E-03    8.35       6.4  T
   6    -45.6099930 -0.753644E-08  0.132E-03    8.35      15.8  T
speedup  1.04
cpu  time for SCC    0.00 s
wall time for SCC    0.00 s
speedup  1.05
cpu  time for grad    0.01 s
wall time for grad    0.01 s
 E :    -45.34978281  G :  0.019858    pred/act E change: -0.114D-02 -0.102D-02
Maxdispl :   0.1951   ||displ|| :   0.2930   Lambda : -0.101D-02
Largest |displ|/coords:  0.1951 (   1)  0.1346 (   4)  0.0800 (  13)
................................................................................
.............................. CYCLE   33 ......................................
................................................................................
   1    -45.6085316 -0.456085E+02  0.244E-01    8.38       0.0  T
   2    -45.6085523 -0.206199E-04  0.183E-01    8.39       1.0  T
   3    -45.6085678 -0.155727E-04  0.277E-02    8.41       1.0  T
   4    -45.6085704 -0.256048E-05  0.754E-03    8.40       2.8  T
   5    -45.6085705 -0.738990E-07  0.334E-03    8.40       6.2  T
   6    -45.6085705 -0.634564E-08  0.151E-03    8.40      13.8  T
   7    -45.6085705 -0.523261E-08  0.326E-04    8.40      64.0  T
speedup  0.89
cpu  time for SCC    0.00 s
wall time for SCC    0.01 s
speedup  0.99
cpu  time for grad    0.01 s
wall time for grad    0.01 s
 E :    -45.34968103  G :  0.028480    pred/act E change: -0.107D-02  0.102D-03
Maxdispl :   0.1497   ||displ|| :   0.2443   Lambda : -0.117D-02
Largest |displ|/coords:  0.1497 (   1)  0.1019 (   3)  0.0638 (   5)
................................................................................
.............................. CYCLE   34 ......................................
................................................................................
   1    -45.6105953 -0.456106E+02  0.196E-01    8.40       0.0  T
   2    -45.6106065 -0.111699E-04  0.147E-01    8.39       1.0  T
   3    -45.6106155 -0.898187E-05  0.200E-02    8.37       1.0  T
   4    -45.6106169 -0.144733E-05  0.605E-03    8.38       3.4  T
   5    -45.6106170 -0.424375E-07  0.267E-03    8.38       7.8  T
   6    -45.6106170 -0.733980E-08  0.105E-03    8.38      19.8  T
speedup  0.85
cpu  time for SCC    0.00 s
wall time for SCC    0.00 s
speedup  0.98
cpu  time for grad    0.01 s
wall time for grad    0.01 s
 E :    -45.35035942  G :  0.011461    pred/act E change: -0.548D-03 -0.678D-03
Maxdispl :   0.3297   ||displ|| :   0.4558   Lambda : -0.611D-03
Largest |displ|/coords:  0.3297 (   1)  0.1536 (   3)  0.1455 (   5)
................................................................................
.............................. CYCLE   35 ......................................
................................................................................
   1    -45.6060971 -0.456061E+02  0.291E-01    8.34       0.0  T
   2    -45.6061270 -0.298929E-04  0.212E-01    8.37       1.0  T
   3    -45.6061438 -0.168912E-04  0.307E-02    8.43       1.0  T
   4    -45.6061476 -0.375058E-05  0.934E-03    8.41       2.2  T
   5    -45.6061477 -0.651640E-07  0.392E-03    8.41       5.3  T
   6    -45.6061477 -0.217418E-07  0.142E-03    8.41      14.6  T
   7    -45.6061477 -0.477359E-08  0.498E-04    8.41      41.9  T
speedup  0.91
cpu  time for SCC    0.00 s
wall time for SCC    0.01 s
speedup  1.00
cpu  time for grad    0.01 s
wall time for grad    0.01 s
 E :    -45.35033751  G :  0.026725    pred/act E change: -0.618D-03  0.219D-04
Maxdispl :   0.0838   ||displ|| :   0.1709   Lambda : -0.101D-02
Largest |displ|/coords:  0.0838 (  12)  0.0600 (   1)  0.0570 (   8)
................................................................................
.............................. CYCLE   36 ......................................
................................................................................
   1    -45.6139018 -0.456139E+02  0.117E-01    8.48       0.0  T
   2    -45.6139124 -0.105741E-04  0.831E-02    8.46       1.0  T
   3    -45.6139164 -0.395522E-05  0.187E-02    8.43       1.1  T
   4    -45.6139175 -0.112692E-05  0.405E-03    8.44       5.2  T
   5    -45.6139175 -0.158510E-07  0.160E-03    8.44      13.0  T
speedup  0.95
cpu  time for SCC    0.00 s
wall time for SCC    0.00 s
speedup  0.93
cpu  time for grad    0.01 s
wall time for grad    0.01 s
 E :    -45.35083232  G :  0.015392    pred/act E change: -0.369D-03 -0.495D-03
Maxdispl :   0.3677   ||displ|| :   0.4782   Lambda : -0.750D-03
Largest |displ|/coords:  0.3677 (   1)  0.1432 (   4)  0.1361 (   5)
................................................................................
.............................. CYCLE   37 ......................................
................................................................................
   1    -45.6073700 -0.456074E+02  0.255E-01    8.44       0.0  T
   2    -45.6073898 -0.198034E-04  0.191E-01    8.43       1.0  T
   3    -45.6074028 -0.130117E-04  0.295E-02    8.43       1.0  T
   4    -45.6074056 -0.272892E-05  0.825E-03    8.43       2.5  T
   5    -45.6074057 -0.132324E-06  0.347E-03    8.43       6.0  T
   6    -45.6074057 -0.983839E-08  0.190E-03    8.43      10.9  T
   7    -45.6074057 -0.710971E-08  0.420E-04    8.43      49.6  T
speedup  1.09
cpu  time for SCC    0.01 s
wall time for SCC    0.01 s
speedup  1.00
cpu  time for grad    0.01 s
wall time for grad    0.01 s
 E :    -45.35078479  G :  0.026808    pred/act E change: -0.521D-03  0.475D-04
Maxdispl :   0.0903   ||displ|| :   0.1754   Lambda : -0.105D-02
Largest |displ|/coords:  0.0903 (  14)  0.0789 (   8)  0.0508 (   6)
................................................................................
.............................. CYCLE   38 ......................................
................................................................................
   1    -45.6137821 -0.456138E+02  0.146E-01    8.46       0.0  T
   2    -45.6137940 -0.118369E-04  0.106E-01    8.47       1.0  T
   3    -45.6138020 -0.803084E-05  0.201E-02    8.48       1.0  T
   4    -45.6138032 -0.121188E-05  0.622E-03    8.47       3.4  T
   5    -45.6138033 -0.516117E-07  0.251E-03    8.47       8.3  T
   6    -45.6138033 -0.680385E-08  0.116E-03    8.48      18.0  T
speedup  1.09
cpu  time for SCC    0.00 s
wall time for SCC    0.00 s
speedup  0.99
cpu  time for grad    0.01 s
wall time for grad    0.01 s
 E :    -45.35129915  G :  0.009978    pred/act E change: -0.460D-03 -0.514D-03
Maxdispl :   0.3007   ||displ|| :   0.4470   Lambda : -0.762D-03
Largest |displ|/coords:  0.3007 (   1)  0.1436 (   3)  0.1354 (   4)
................................................................................
.............................. CYCLE   39 ......................................
................................................................................
   1    -45.6103928 -0.456104E+02  0.287E-01    8.46       0.0  T
   2    -45.6104186 -0.257933E-04  0.212E-01    8.47       1.0  T
   3    -45.6104371 -0.185566E-04  0.300E-02    8.51       1.0  T
   4    -45.6104402 -0.305953E-05  0.102E-02    8.50       2.0  T
   5    -45.6104403 -0.114589E-06  0.420E-03    8.50       5.0  T
   6    -45.6104403 -0.221229E-07  0.184E-03    8.50      11.3  T
   7    -45.6104403 -0.766725E-08  0.549E-04    8.50      38.0  T
speedup  0.93
cpu  time for SCC    0.00 s
wall time for SCC    0.01 s
speedup  1.00
cpu  time for grad    0.01 s
wall time for grad    0.01 s
 E :    -45.35123279  G :  0.029268    pred/act E change: -0.543D-03  0.664D-04
Maxdispl :   0.0879   ||displ|| :   0.1435   Lambda : -0.901D-03
Largest |displ|/coords:  0.0879 (   1)  0.0588 (  13)  0.0414 (  17)
................................................................................
.............................. CYCLE   40 ......................................
................................................................................
   1    -45.6126660 -0.456127E+02  0.118E-01    8.53       0.0  T
   2    -45.6126725 -0.649350E-05  0.869E-02    8.52       1.0  T
   3    -45.6126766 -0.410357E-05  0.150E-02    8.50       1.4  T
   4    -45.6126774 -0.776015E-06  0.454E-03    8.51       4.6  T
   5    -45.6126774 -0.257664E-07  0.178E-03    8.51      11.7  T
speedup  0.98
cpu  time for SCC    0.00 s
wall time for SCC    0.00 s
speedup  0.94
cpu  time for grad    0.01 s
wall time for grad    0.01 s
 E :    -45.35175972  G :  0.008757    pred/act E change: -0.457D-03 -0.527D-03
Maxdispl :   0.2807   ||displ|| :   0.3659   Lambda : -0.324D-03
Largest |displ|/coords:  0.2807 (   1)  0.0956 (   3)  0.0781 (  14)
................................................................................
.............................. CYCLE   41 ......................................
................................................................................
   1    -45.6116353 -0.456116E+02  0.168E-01    8.52       0.0  T
   2    -45.6116402 -0.488994E-05  0.125E-01    8.52       1.0  T
   3    -45.6116442 -0.400286E-05  0.158E-02    8.52       1.3  T
   4    -45.6116447 -0.517305E-06  0.571E-03    8.52       3.7  T
   5    -45.6116448 -0.290601E-07  0.157E-03    8.52      13.3  T
   6    -45.6116448 -0.247348E-08  0.859E-04    8.52      24.3  T
speedup  1.06
cpu  time for SCC    0.01 s
wall time for SCC    0.00 s
speedup  0.98
cpu  time for grad    0.01 s
wall time for grad    0.01 s
 E :    -45.35200140  G :  0.008427    pred/act E change: -0.460D-03 -0.242D-03
Maxdispl :   0.4266   ||displ|| :   0.6278   Lambda : -0.650D-03
Largest |displ|/coords:  0.4266 (   1)  0.1997 (   2)  0.1524 (   4)
................................................................................
.............................. CYCLE   42 ......................................
................................................................................
   1    -45.6114750 -0.456115E+02  0.337E-01    8.55       0.0  T
   2    -45.6114920 -0.170161E-04  0.250E-01    8.55       1.0  T
   3    -45.6115069 -0.148677E-04  0.290E-02    8.55       1.0  T
   4    -45.6115084 -0.153404E-05  0.109E-02    8.55       1.9  T
   5    -45.6115085 -0.101855E-06  0.324E-03    8.55       6.4  T
   6    -45.6115086 -0.980233E-08  0.184E-03    8.55      11.3  T
   7    -45.6115086 -0.458521E-08  0.434E-04    8.55      48.1  T
speedup  1.07
cpu  time for SCC    0.01 s
wall time for SCC    0.01 s
speedup  0.99
cpu  time for grad    0.01 s
wall time for grad    0.01 s
 E :    -45.35224557  G :  0.019697    pred/act E change: -0.184D-03 -0.244D-03
Maxdispl :   0.2063   ||displ|| :   0.3290   Lambda : -0.757D-03
Largest |displ|/coords:  0.2063 (   1)  0.1193 (   2)  0.0905 (   9)
................................................................................
.............................. CYCLE   43 ......................................
................................................................................
   1    -45.6151517 -0.456152E+02  0.159E-01    8.56       0.0  T
   2    -45.6151647 -0.130379E-04  0.117E-01    8.55       1.0  T
   3    -45.6151706 -0.590895E-05  0.256E-02    8.53       1.0  T
   4    -45.6151723 -0.171710E-05  0.713E-03    8.54       2.9  T
   5    -45.6151724 -0.103085E-06  0.250E-03    8.54       8.4  T
   6    -45.6151724 -0.506321E-08  0.129E-03    8.54      16.1  T
speedup  1.04
cpu  time for SCC    0.00 s
wall time for SCC    0.00 s
speedup  0.97
cpu  time for grad    0.01 s
wall time for grad    0.01 s
 E :    -45.35262882  G :  0.011375    pred/act E change: -0.453D-03 -0.383D-03
Maxdispl :   0.2873   ||displ|| :   0.4258   Lambda : -0.592D-03
Largest |displ|/coords:  0.2873 (   1)  0.1862 (   3)  0.1273 (  14)
................................................................................
.............................. CYCLE   44 ......................................
................................................................................
   1    -45.6104553 -0.456105E+02  0.248E-01    8.45       0.0  T
   2    -45.6104737 -0.183912E-04  0.181E-01    8.47       1.0  T
   3    -45.6104849 -0.112343E-04  0.251E-02    8.51       1.0  T
   4    -45.6104872 -0.226762E-05  0.803E-03    8.49       2.6  T
   5    -45.6104872 -0.390351E-07  0.293E-03    8.49       7.1  T
   6    -45.6104872 -0.119074E-07  0.130E-03    8.49      16.0  T
speedup  1.09
cpu  time for SCC    0.00 s
wall time for SCC    0.00 s
speedup  1.07
cpu  time for grad    0.01 s
wall time for grad    0.01 s
 E :    -45.35269664  G :  0.018630    pred/act E change: -0.420D-03 -0.678D-04
Maxdispl :   0.0684   ||displ|| :   0.1188   Lambda : -0.574D-03
Largest |displ|/coords:  0.0684 (   6)  0.0562 (   2)  0.0368 (  10)
................................................................................
.............................. CYCLE   45 ......................................
................................................................................
   1    -45.6137804 -0.456138E+02  0.902E-02    8.54       0.0  T
   2    -45.6137857 -0.536671E-05  0.656E-02    8.52       1.0  T
   3    -45.6137876 -0.189571E-05  0.140E-02    8.50       1.5  T
   4    -45.6137884 -0.765131E-06  0.297E-03    8.51       7.0  T
   5    -45.6137884 -0.836885E-08  0.109E-03    8.51      19.1  T
speedup  1.22
cpu  time for SCC    0.00 s
wall time for SCC    0.00 s
speedup  1.03
cpu  time for grad    0.01 s
wall time for grad    0.01 s
 E :    -45.35300015  G :  0.008746    pred/act E change: -0.350D-03 -0.304D-03
Maxdispl :   0.1696   ||displ|| :   0.3174   Lambda : -0.429D-03
Largest |displ|/coords:  0.1696 (   1)  0.1692 (   2)  0.0839 (   9)
................................................................................
.............................. CYCLE   46 ......................................
................................................................................
   1    -45.6135197 -0.456135E+02  0.193E-01    8.55       0.0  T
   2    -45.6135263 -0.656453E-05  0.143E-01    8.55       1.0  T
   3    -45.6135314 -0.507270E-05  0.166E-02    8.56       1.3  T
   4    -45.6135321 -0.765643E-06  0.634E-03    8.56       3.3  T
   5    -45.6135322 -0.493696E-07  0.206E-03    8.56      10.1  T
   6    -45.6135322 -0.424756E-08  0.115E-03    8.56      18.2  T
speedup  1.06
cpu  time for SCC    0.00 s
wall time for SCC    0.00 s
speedup  0.97
cpu  time for grad    0.01 s
wall time for grad    0.01 s
 E :    -45.35306237  G :  0.015707    pred/act E change: -0.291D-03 -0.622D-04
Maxdispl :   0.0810   ||displ|| :   0.1520   Lambda : -0.407D-03
Largest |displ|/coords:  0.0810 (   3)  0.0711 (   5)  0.0570 (   4)
................................................................................
.............................. CYCLE   47 ......................................
................................................................................
   1    -45.6154598 -0.456155E+02  0.874E-02    8.58       0.0  T
   2    -45.6154615 -0.168608E-05  0.651E-02    8.58       1.0  T
   3    -45.6154631 -0.155125E-05  0.782E-03    8.59       2.7  T
   4    -45.6154632 -0.143851E-06  0.279E-03    8.59       7.5  T
   5    -45.6154632 -0.810088E-08  0.985E-04    8.59      21.2  T
speedup  1.00
cpu  time for SCC    0.00 s
wall time for SCC    0.00 s
speedup  1.04
cpu  time for grad    0.01 s
wall time for grad    0.01 s
 E :    -45.35331949  G :  0.007686    pred/act E change: -0.236D-03 -0.257D-03
Maxdispl :   0.2615   ||displ|| :   0.4449   Lambda : -0.480D-03
Largest |displ|/coords:  0.2615 (   1)  0.2568 (   3)  0.0860 (  17)
................................................................................
.............................. CYCLE   48 ......................................
................................................................................
   1    -45.6070520 -0.456071E+02  0.279E-01    8.42       0.0  T
   2    -45.6070686 -0.166666E-04  0.207E-01    8.43       1.0  T
   3    -45.6070826 -0.139272E-04  0.256E-02    8.45       1.0  T
   4    -45.6070842 -0.163536E-05  0.794E-03    8.45       2.6  T
   5    -45.6070843 -0.714057E-07  0.323E-03    8.45       6.5  T
   6    -45.6070843 -0.123056E-07  0.165E-03    8.45      12.6  T
   7    -45.6070843 -0.493954E-08  0.383E-04    8.45      54.5  T
speedup  0.93
cpu  time for SCC    0.01 s
wall time for SCC    0.01 s
speedup  1.00
cpu  time for grad    0.01 s
wall time for grad    0.01 s
 E :    -45.35313140  G :  0.024620    pred/act E change: -0.208D-03  0.188D-03
Maxdispl :   0.0870   ||displ|| :   0.1446   Lambda : -0.865D-03
Largest |displ|/coords:  0.0870 (   1)  0.0530 (  10)  0.0473 (   5)
................................................................................
.............................. CYCLE   49 ......................................
................................................................................
   1    -45.6137351 -0.456137E+02  0.998E-02    8.52       0.0  T
   2    -45.6137423 -0.716094E-05  0.736E-02    8.52       1.0  T
   3    -45.6137475 -0.515325E-05  0.163E-02    8.51       1.3  T
   4    -45.6137482 -0.793396E-06  0.426E-03    8.51       4.9  T
   5    -45.6137483 -0.318636E-07  0.175E-03    8.51      11.9  T
speedup  1.03
cpu  time for SCC    0.00 s
wall time for SCC    0.00 s
speedup  1.05
cpu  time for grad    0.01 s
wall time for grad    0.01 s
 E :    -45.35354310  G :  0.008558    pred/act E change: -0.287D-03 -0.412D-03
Maxdispl :   0.0858   ||displ|| :   0.1694   Lambda : -0.396D-03
Largest |displ|/coords:  0.0858 (  11)  0.0529 (   1)  0.0523 (   5)
................................................................................
.............................. CYCLE   50 ......................................
................................................................................
   1    -45.6157832 -0.456158E+02  0.145E-01    8.68       0.0  T
   2    -45.6157944 -0.111384E-04  0.107E-01    8.68       1.0  T
   3    -45.6158020 -0.759351E-05  0.206E-02    8.69       1.0  T
   4    -45.6158032 -0.122214E-05  0.539E-03    8.69       3.9  T
   5    -45.6158032 -0.413127E-07  0.243E-03    8.69       8.6  T
   6    -45.6158032 -0.545637E-08  0.108E-03    8.69      19.4  T
speedup  1.04
cpu  time for SCC    0.00 s
wall time for SCC    0.00 s
speedup  0.96
cpu  time for grad    0.01 s
wall time for grad    0.01 s
 E :    -45.35329569  G :  0.025188    pred/act E change: -0.441D-03  0.247D-03
Maxdispl :   0.0390   ||displ|| :   0.0975   Lambda : -0.777D-03
Largest |displ|/coords:  0.0390 (  11)  0.0349 (   3)  0.0334 (   5)
................................................................................
.............................. CYCLE   51 ......................................
................................................................................
   1    -45.6153647 -0.456154E+02  0.913E-02    8.65       0.0  T
   2    -45.6153703 -0.563881E-05  0.683E-02    8.66       1.0  T
   3    -45.6153746 -0.423350E-05  0.139E-02    8.66       1.5  T
   4    -45.6153752 -0.627357E-06  0.407E-03    8.66       5.1  T
   5    -45.6153752 -0.231010E-07  0.160E-03    8.66      13.0  T
speedup  0.98
cpu  time for SCC    0.00 s
wall time for SCC    0.00 s
speedup  1.01
cpu  time for grad    0.01 s
wall time for grad    0.01 s
 E :    -45.35367524  G :  0.006152    pred/act E change: -0.204D-03 -0.380D-03
Maxdispl :   0.1740   ||displ|| :   0.2822   Lambda : -0.354D-03
Largest |displ|/coords:  0.1740 (   1)  0.1612 (   3)  0.0708 (   6)
................................................................................
.............................. CYCLE   52 ......................................
................................................................................
   1    -45.6115377 -0.456115E+02  0.172E-01    8.39       0.0  T
   2    -45.6115521 -0.143831E-04  0.127E-01    8.38       1.0  T
   3    -45.6115594 -0.725218E-05  0.302E-02    8.37       1.0  T
   4    -45.6115611 -0.176286E-05  0.689E-03    8.37       3.0  T
   5    -45.6115612 -0.101429E-06  0.220E-03    8.37       9.5  T
   6    -45.6115612 -0.689828E-08  0.129E-03    8.37      16.1  T
speedup  1.06
cpu  time for SCC    0.01 s
wall time for SCC    0.00 s
speedup  1.06
cpu  time for grad    0.01 s
wall time for grad    0.01 s
 E :    -45.35357401  G :  0.016404    pred/act E change: -0.392D-03  0.101D-03
Maxdispl :   0.0766   ||displ|| :   0.1288   Lambda : -0.466D-03
Largest |displ|/coords:  0.0766 (   1)  0.0678 (   5)  0.0463 (   6)

generating ANC from model Hessian ...
 Shifting diagonal of input Hessian by   4.936649635105865E-003
 Lowest  eigenvalues of input Hessian
   -0.000000   -0.000000   -0.000000    0.000000    0.000000    0.000000
    0.005000    0.005274    0.005682    0.005968    0.006120    0.006651
    0.007164    0.008123    0.008715    0.010415    0.011495    0.011983
 Highest eigenvalues
    1.396481    1.403146    1.420818    2.673846    3.205093    3.772989
 
cpu  time for ANC gen    0.02 s
wall time for ANC gen    0.02 s
................................................................................
.............................. CYCLE   53 ......................................
................................................................................
   1    -45.6138884 -0.456139E+02  0.898E-02    8.54       0.0  T
   2    -45.6138919 -0.355452E-05  0.650E-02    8.55       1.0  T
   3    -45.6138936 -0.166830E-05  0.153E-02    8.56       1.4  T
   4    -45.6138940 -0.354674E-06  0.366E-03    8.56       5.7  T
   5    -45.6138940 -0.263940E-07  0.102E-03    8.56      20.5  T
   6    -45.6138940 -0.165524E-08  0.589E-04    8.56      35.4  T
   7    -45.6138940 -0.869825E-09  0.259E-04    8.56      80.5  T
speedup  1.09
cpu  time for SCC    0.01 s
wall time for SCC    0.01 s
speedup  1.03
cpu  time for grad    0.01 s
wall time for grad    0.01 s
 E :    -45.35384554  G :  0.005440    pred/act E change:  0.000D+00 -0.272D-03
Maxdispl :   0.0688   ||displ|| :   0.1678   Lambda : -0.314D-03
Largest |displ|/coords:  0.0688 (   5)  0.0607 (   1)  0.0563 (  14)
................................................................................
.............................. CYCLE   54 ......................................
................................................................................
   1    -45.6140703 -0.456141E+02  0.182E-01    8.60       0.0  T
   2    -45.6140747 -0.442307E-05  0.137E-01    8.60       1.0  T
   3    -45.6140803 -0.557080E-05  0.116E-02    8.60       1.8  T
   4    -45.6140804 -0.120832E-06  0.405E-03    8.60       5.1  T
   5    -45.6140804 -0.104625E-07  0.143E-03    8.60      14.6  T
   6    -45.6140804 -0.224159E-08  0.562E-04    8.60      37.1  T
speedup  1.02
cpu  time for SCC    0.00 s
wall time for SCC    0.00 s
speedup  0.96
cpu  time for grad    0.01 s
wall time for grad    0.01 s
 E :    -45.35407785  G :  0.005263    pred/act E change:  0.000D+00 -0.232D-03
Maxdispl :   0.1629   ||displ|| :   0.3278   Lambda : -0.380D-03
Largest |displ|/coords:  0.1629 (   5)  0.1475 (   1)  0.1251 (   2)
................................................................................
.............................. CYCLE   55 ......................................
................................................................................
   1    -45.6117645 -0.456118E+02  0.285E-01    8.64       0.0  T
   2    -45.6117744 -0.981534E-05  0.212E-01    8.64       1.0  T
   3    -45.6117850 -0.105970E-04  0.186E-02    8.65       1.1  T
   4    -45.6117855 -0.542924E-06  0.627E-03    8.65       3.3  T
   5    -45.6117855 -0.337504E-07  0.274E-03    8.65       7.6  T
   6    -45.6117855 -0.128819E-07  0.120E-03    8.65      17.4  T
speedup  1.04
cpu  time for SCC    0.01 s
wall time for SCC    0.00 s
speedup  1.04
cpu  time for grad    0.01 s
wall time for grad    0.01 s
 E :    -45.35427396  G :  0.013945    pred/act E change: -0.161D-03 -0.196D-03
Maxdispl :   0.1025   ||displ|| :   0.1681   Lambda : -0.291D-03
Largest |displ|/coords:  0.1025 (   1)  0.0789 (   2)  0.0668 (   5)
................................................................................
.............................. CYCLE   56 ......................................
................................................................................
   1    -45.6132509 -0.456133E+02  0.126E-01    8.65       0.0  T
   2    -45.6132555 -0.457821E-05  0.932E-02    8.65       1.0  T
   3    -45.6132590 -0.350291E-05  0.128E-02    8.66       1.6  T
   4    -45.6132595 -0.461467E-06  0.419E-03    8.66       5.0  T
   5    -45.6132595 -0.187924E-07  0.155E-03    8.66      13.4  T
   6    -45.6132595 -0.213202E-08  0.816E-04    8.66      25.6  T
speedup  1.04
cpu  time for SCC    0.00 s
wall time for SCC    0.00 s
speedup  0.96
cpu  time for grad    0.01 s
wall time for grad    0.01 s
 E :    -45.35440796  G :  0.007566    pred/act E change: -0.211D-03 -0.134D-03
Maxdispl :   0.0930   ||displ|| :   0.1736   Lambda : -0.200D-03
Largest |displ|/coords:  0.0930 (   2)  0.0836 (   1)  0.0707 (   4)
................................................................................
.............................. CYCLE   57 ......................................
................................................................................
   1    -45.6144267 -0.456144E+02  0.118E-01    8.66       0.0  T
   2    -45.6144294 -0.265908E-05  0.877E-02    8.66       1.0  T
   3    -45.6144315 -0.205274E-05  0.117E-02    8.65       1.8  T
   4    -45.6144318 -0.343769E-06  0.331E-03    8.66       6.3  T
   5    -45.6144318 -0.125590E-07  0.121E-03    8.66      17.2  T
   6    -45.6144318 -0.200674E-08  0.634E-04    8.66      32.9  T
speedup  1.04
cpu  time for SCC    0.00 s
wall time for SCC    0.00 s
speedup  1.05
cpu  time for grad    0.01 s
wall time for grad    0.01 s
 E :    -45.35455388  G :  0.003752    pred/act E change: -0.150D-03 -0.146D-03
Maxdispl :   0.2198   ||displ|| :   0.4274   Lambda : -0.250D-03
Largest |displ|/coords:  0.2198 (   1)  0.2102 (   5)  0.2030 (   2)
................................................................................
.............................. CYCLE   58 ......................................
................................................................................
   1    -45.6104895 -0.456105E+02  0.295E-01    8.62       0.0  T
   2    -45.6105012 -0.117207E-04  0.220E-01    8.63       1.0  T
   3    -45.6105141 -0.128839E-04  0.236E-02    8.63       1.0  T
   4    -45.6105149 -0.749635E-06  0.615E-03    8.63       3.4  T
   5    -45.6105149 -0.394818E-07  0.318E-03    8.63       6.6  T
   6    -45.6105149 -0.154147E-07  0.144E-03    8.63      14.5  T
   7    -45.6105149 -0.263290E-08  0.330E-04    8.63      63.2  T
   8    -45.6105149 -0.311566E-09  0.112E-04    8.63     185.7  T
speedup  1.08
cpu  time for SCC    0.01 s
wall time for SCC    0.01 s
speedup  1.03
cpu  time for grad    0.01 s
wall time for grad    0.01 s
 E :    -45.35459141  G :  0.016421    pred/act E change: -0.103D-03 -0.375D-04
Maxdispl :   0.0432   ||displ|| :   0.0788   Lambda : -0.294D-03
Largest |displ|/coords:  0.0432 (   5)  0.0317 (  14)  0.0275 (  13)
................................................................................
.............................. CYCLE   59 ......................................
................................................................................
   1    -45.6145391 -0.456145E+02  0.840E-02    8.64       0.0  T
   2    -45.6145428 -0.367280E-05  0.624E-02    8.64       1.0  T
   3    -45.6145450 -0.223894E-05  0.115E-02    8.63       1.8  T
   4    -45.6145455 -0.488955E-06  0.283E-03    8.63       7.4  T
   5    -45.6145455 -0.126662E-07  0.119E-03    8.63      17.5  T
speedup  0.98
cpu  time for SCC    0.00 s
wall time for SCC    0.00 s
speedup  1.02
cpu  time for grad    0.01 s
wall time for grad    0.01 s
 E :    -45.35471898  G :  0.004226    pred/act E change: -0.148D-03 -0.128D-03
Maxdispl :   0.0692   ||displ|| :   0.1338   Lambda : -0.627D-04
Largest |displ|/coords:  0.0692 (   2)  0.0689 (   5)  0.0644 (   1)
................................................................................
.............................. CYCLE   60 ......................................
................................................................................
   1    -45.6136599 -0.456137E+02  0.881E-02    8.63       0.0  T
   2    -45.6136608 -0.906007E-06  0.654E-02    8.63       1.0  T
   3    -45.6136617 -0.899968E-06  0.615E-03    8.64       3.4  T
   4    -45.6136617 -0.610401E-07  0.201E-03    8.64      10.4  T
   5    -45.6136618 -0.403337E-08  0.752E-04    8.64      27.7  T
speedup  1.00
cpu  time for SCC    0.00 s
wall time for SCC    0.00 s
speedup  0.93
cpu  time for grad    0.01 s
wall time for grad    0.01 s
 E :    -45.35476706  G :  0.002854    pred/act E change: -0.148D-03 -0.481D-04
Maxdispl :   0.1555   ||displ|| :   0.3126   Lambda : -0.121D-03
Largest |displ|/coords:  0.1555 (   2)  0.1544 (   5)  0.1453 (   4)
................................................................................
.............................. CYCLE   61 ......................................
................................................................................
   1    -45.6118710 -0.456119E+02  0.207E-01    8.63       0.0  T
   2    -45.6118764 -0.535538E-05  0.154E-01    8.64       1.0  T
   3    -45.6118819 -0.550447E-05  0.153E-02    8.66       1.4  T
   4    -45.6118823 -0.426807E-06  0.584E-03    8.66       3.6  T
   5    -45.6118823 -0.326846E-07  0.194E-03    8.65      10.8  T
   6    -45.6118823 -0.450471E-08  0.114E-03    8.65      18.3  T
   7    -45.6118823 -0.186948E-08  0.241E-04    8.65      86.5  T
   8    -45.6118823 -0.144858E-09  0.982E-05    8.65     212.3  T
speedup  1.11
cpu  time for SCC    0.01 s
wall time for SCC    0.01 s
speedup  1.04
cpu  time for grad    0.01 s
wall time for grad    0.01 s
 E :    -45.35481719  G :  0.008398    pred/act E change: -0.319D-04 -0.501D-04
Maxdispl :   0.0202   ||displ|| :   0.0450   Lambda : -0.774D-04
Largest |displ|/coords:  0.0202 (   7)  0.0180 (  11)  0.0142 (   6)
................................................................................
.............................. CYCLE   62 ......................................
................................................................................
   1    -45.6132219 -0.456132E+02  0.323E-02    8.68       0.0  T
   2    -45.6132225 -0.584031E-06  0.238E-02    8.68       1.0  T
   3    -45.6132229 -0.419070E-06  0.488E-03    8.69       4.3  T
   4    -45.6132230 -0.622583E-07  0.163E-03    8.69      12.8  T
   5    -45.6132230 -0.403584E-08  0.545E-04    8.69      38.3  T
speedup  0.98
cpu  time for SCC    0.00 s
wall time for SCC    0.00 s
speedup  1.02
cpu  time for grad    0.01 s
wall time for grad    0.01 s
 E :    -45.35486618  G :  0.003813    pred/act E change: -0.666D-04 -0.490D-04
Maxdispl :   0.0434   ||displ|| :   0.0838   Lambda : -0.724D-04
Largest |displ|/coords:  0.0434 (   4)  0.0399 (   7)  0.0172 (  13)
................................................................................
.............................. CYCLE   63 ......................................
................................................................................
   1    -45.6150636 -0.456151E+02  0.620E-02    8.73       0.0  T
   2    -45.6150646 -0.982201E-06  0.460E-02    8.73       1.0  T
   3    -45.6150650 -0.467455E-06  0.766E-03    8.74       2.7  T
   4    -45.6150652 -0.154366E-06  0.194E-03    8.74      10.8  T
   5    -45.6150652 -0.386605E-08  0.585E-04    8.74      35.6  T
   6    -45.6150652 -0.348543E-09  0.287E-04    8.74      72.5  T
speedup  1.02
cpu  time for SCC    0.01 s
wall time for SCC    0.00 s
speedup  1.00
cpu  time for grad    0.01 s
wall time for grad    0.01 s
 E :    -45.35490527  G :  0.003748    pred/act E change: -0.388D-04 -0.391D-04
Maxdispl :   0.1292   ||displ|| :   0.2246   Lambda : -0.835D-04
Largest |displ|/coords:  0.1292 (   5)  0.0899 (   4)  0.0872 (   2)
................................................................................
.............................. CYCLE   64 ......................................
................................................................................
   1    -45.6135963 -0.456136E+02  0.167E-01    8.74       0.0  T
   2    -45.6136015 -0.528728E-05  0.125E-01    8.76       1.0  T
   3    -45.6136054 -0.380892E-05  0.148E-02    8.79       1.4  T
   4    -45.6136060 -0.693733E-06  0.521E-03    8.78       4.0  T
   5    -45.6136061 -0.233863E-07  0.164E-03    8.78      12.7  T
   6    -45.6136061 -0.315994E-08  0.821E-04    8.78      25.4  T
   7    -45.6136061 -0.169801E-08  0.265E-04    8.78      78.8  T
speedup  1.07
cpu  time for SCC    0.01 s
wall time for SCC    0.01 s
speedup  1.03
cpu  time for grad    0.01 s
wall time for grad    0.01 s
 E :    -45.35494039  G :  0.006436    pred/act E change: -0.364D-04 -0.351D-04
Maxdispl :   0.0193   ||displ|| :   0.0478   Lambda : -0.519D-04
Largest |displ|/coords:  0.0193 (   7)  0.0150 (  13)  0.0141 (   8)
................................................................................
.............................. CYCLE   65 ......................................
................................................................................
   1    -45.6140492 -0.456140E+02  0.256E-02    8.78       0.0  T
   2    -45.6140494 -0.158783E-06  0.190E-02    8.78       1.1  T
   3    -45.6140495 -0.110287E-06  0.240E-03    8.78       8.7  T
   4    -45.6140495 -0.176388E-07  0.676E-04    8.78      30.9  T
speedup  0.91
cpu  time for SCC    0.00 s
wall time for SCC    0.00 s
speedup  0.98
cpu  time for grad    0.01 s
wall time for grad    0.01 s
[...]
   1    -45.6108206 -0.456108E+02  0.289E-02    9.03       0.0  T
   2    -45.6108207 -0.125901E-06  0.216E-02    9.02       1.0  T
   3    -45.6108208 -0.996317E-07  0.195E-03    9.02      10.7  T
   4    -45.6108208 -0.179950E-07  0.619E-04    9.02      33.7  T
   5    -45.6108208 -0.517183E-09  0.318E-04    9.02      65.6  T
speedup  1.00
cpu  time for SCC    0.00 s
wall time for SCC    0.00 s
speedup  1.00
cpu  time for grad    0.01 s
wall time for grad    0.01 s
 E :    -45.35541308  G :  0.000717    pred/act E change: -0.641D-06 -0.710D-06
Maxdispl :   0.0125   ||displ|| :   0.0211   Lambda : -0.192D-05
Largest |displ|/coords:  0.0125 (   2)  0.0085 (   7)  0.0071 (  12)
................................................................................
.............................. CYCLE  129 ......................................
................................................................................
   1    -45.6111535 -0.456112E+02  0.140E-02    9.02       0.0  T
   2    -45.6111535 -0.547784E-07  0.104E-02    9.02       2.0  T
   3    -45.6111536 -0.341543E-07  0.150E-03    9.02      13.9  T
   4    -45.6111536 -0.805764E-08  0.529E-04    9.02      39.4  T
   5    -45.6111536 -0.388916E-09  0.173E-04    9.02     120.7  T
speedup  0.98
cpu  time for SCC    0.00 s
wall time for SCC    0.00 s
speedup  0.99
cpu  time for grad    0.01 s
wall time for grad    0.01 s
 E :    -45.35541366  G :  0.000622    pred/act E change: -0.678D-06 -0.580D-06
Maxdispl :   0.0079   ||displ|| :   0.0109   Lambda : -0.785D-06
Largest |displ|/coords:  0.0079 (   4)  0.0049 (   2)  0.0039 (   1)
................................................................................
.............................. CYCLE  130 ......................................
................................................................................
   1    -45.6110903 -0.456111E+02  0.587E-03    9.02       0.0  T
   2    -45.6110903 -0.439532E-08  0.437E-03    9.02       4.8  T
   3    -45.6110903 -0.339104E-08  0.428E-04    9.02      48.8  T
   4    -45.6110903 -0.531152E-09  0.160E-04    9.02     129.9  T
speedup  0.91
cpu  time for SCC    0.00 s
wall time for SCC    0.00 s
speedup  0.97
cpu  time for grad    0.01 s
wall time for grad    0.01 s
 E :    -45.35541422  G :  0.000319    pred/act E change: -0.962D-06 -0.563D-06
Maxdispl :   0.0128   ||displ|| :   0.0184   Lambda : -0.579D-06
Largest |displ|/coords:  0.0128 (   2)  0.0108 (   4)  0.0039 (  12)
................................................................................
.............................. CYCLE  131 ......................................
................................................................................
   1    -45.6110984 -0.456111E+02  0.935E-03    9.02       0.0  T
   2    -45.6110984 -0.103366E-07  0.699E-03    9.02       3.0  T
   3    -45.6110984 -0.901693E-08  0.636E-04    9.02      32.8  T
   4    -45.6110984 -0.123021E-08  0.235E-04    9.02      88.9  T
speedup  0.94
cpu  time for SCC    0.00 s
wall time for SCC    0.00 s
speedup  0.95
cpu  time for grad    0.01 s
wall time for grad    0.01 s
 E :    -45.35541462  G :  0.000228    pred/act E change: -0.393D-06 -0.401D-06
Maxdispl :   0.0131   ||displ|| :   0.0164   Lambda : -0.348D-06
Largest |displ|/coords:  0.0131 (   2)  0.0068 (   4)  0.0037 (  12)
................................................................................
.............................. CYCLE  132 ......................................
................................................................................
   1    -45.6111455 -0.456111E+02  0.768E-03    9.02       0.0  T
   2    -45.6111455 -0.782814E-08  0.574E-03    9.02       3.6  T
   3    -45.6111455 -0.617862E-08  0.541E-04    9.02      38.5  T
   4    -45.6111455 -0.105511E-08  0.179E-04    9.02     116.6  T
speedup  1.21
cpu  time for SCC    0.00 s
wall time for SCC    0.00 s
speedup  1.07
cpu  time for grad    0.01 s
wall time for grad    0.01 s
 E :    -45.35541490  G :  0.000254    pred/act E change: -0.290D-06 -0.276D-06
Maxdispl :   0.0305   ||displ|| :   0.0371   Lambda : -0.540D-06
Largest |displ|/coords:  0.0305 (   2)  0.0170 (   4)  0.0062 (  12)
................................................................................
.............................. CYCLE  133 ......................................
................................................................................
   1    -45.6112098 -0.456112E+02  0.160E-02    9.02       0.0  T
   2    -45.6112099 -0.340357E-07  0.120E-02    9.01       1.7  T
   3    -45.6112099 -0.274496E-07  0.101E-03    9.01      20.6  T
   4    -45.6112099 -0.437657E-08  0.355E-04    9.01      58.7  T
   5    -45.6112099 -0.143700E-09  0.147E-04    9.01     141.7  T
speedup  1.00
cpu  time for SCC    0.00 s
wall time for SCC    0.00 s
speedup  1.00
cpu  time for grad    0.01 s
wall time for grad    0.01 s
 E :    -45.35541530  G :  0.000332    pred/act E change: -0.174D-06 -0.401D-06
Maxdispl :   0.0334   ||displ|| :   0.0389   Lambda : -0.538D-06
Largest |displ|/coords:  0.0334 (   2)  0.0151 (   4)  0.0056 (   3)
................................................................................
.............................. CYCLE  134 ......................................
................................................................................
   1    -45.6112818 -0.456113E+02  0.154E-02    9.01       0.0  T
   2    -45.6112818 -0.371790E-07  0.115E-02    9.01       1.8  T
   3    -45.6112818 -0.278570E-07  0.105E-03    9.01      19.9  T
   4    -45.6112818 -0.500062E-08  0.377E-04    9.01      55.4  T
   5    -45.6112818 -0.165763E-09  0.146E-04    9.01     142.4  T
speedup  1.03
cpu  time for SCC    0.00 s
wall time for SCC    0.00 s
speedup  1.00
cpu  time for grad    0.01 s
wall time for grad    0.01 s
 E :    -45.35541570  G :  0.000307    pred/act E change: -0.270D-06 -0.398D-06
Maxdispl :   0.0373   ||displ|| :   0.0433   Lambda : -0.494D-06
Largest |displ|/coords:  0.0373 (   2)  0.0181 (   4)  0.0057 (   3)
................................................................................
.............................. CYCLE  135 ......................................
................................................................................
   1    -45.6113092 -0.456113E+02  0.167E-02    9.01       0.0  T
   2    -45.6113092 -0.505442E-07  0.124E-02    9.01       1.7  T
   3    -45.6113093 -0.349579E-07  0.121E-03    9.01      17.2  T
   4    -45.6113093 -0.713354E-08  0.443E-04    9.01      47.1  T
   5    -45.6113093 -0.237137E-09  0.166E-04    9.01     125.5  T
speedup  1.00
cpu  time for SCC    0.00 s
wall time for SCC    0.00 s
speedup  1.00
cpu  time for grad    0.01 s
wall time for grad    0.01 s
 E :    -45.35541604  G :  0.000211    pred/act E change: -0.269D-06 -0.348D-06
Maxdispl :   0.0188   ||displ|| :   0.0214   Lambda : -0.336D-06
Largest |displ|/coords:  0.0188 (   2)  0.0054 (   5)  0.0054 (   3)
................................................................................
.............................. CYCLE  136 ......................................
................................................................................
   1    -45.6113640 -0.456114E+02  0.820E-03    9.01       0.0  T
   2    -45.6113641 -0.158952E-07  0.609E-03    9.01       3.4  T
   3    -45.6113641 -0.122105E-07  0.843E-04    9.01      24.7  T
   4    -45.6113641 -0.185178E-08  0.311E-04    9.01      67.0  T
speedup  1.18
cpu  time for SCC    0.00 s
wall time for SCC    0.00 s
speedup  1.07
cpu  time for grad    0.01 s
wall time for grad    0.01 s
 E :    -45.35541625  G :  0.000187    pred/act E change: -0.247D-06 -0.205D-06
Maxdispl :   0.0197   ||displ|| :   0.0238   Lambda : -0.207D-06
Largest |displ|/coords:  0.0197 (   2)  0.0114 (   4)  0.0037 (   1)
................................................................................
.............................. CYCLE  137 ......................................
................................................................................
   1    -45.6113124 -0.456113E+02  0.100E-02    9.01       0.0  T
   2    -45.6113124 -0.196513E-07  0.746E-03    9.01       2.8  T
   3    -45.6113125 -0.135247E-07  0.779E-04    9.01      26.8  T
   4    -45.6113125 -0.260061E-08  0.264E-04    9.01      79.1  T
speedup  0.94
cpu  time for SCC    0.00 s
wall time for SCC    0.00 s
speedup  0.98
cpu  time for grad    0.01 s
wall time for grad    0.01 s
 E :    -45.35541636  G :  0.000182    pred/act E change: -0.168D-06 -0.115D-06
Maxdispl :   0.0057   ||displ|| :   0.0082   Lambda : -0.135D-06
Largest |displ|/coords:  0.0057 (   4)  0.0031 (   2)  0.0027 (  12)
................................................................................
.............................. CYCLE  138 ......................................
................................................................................
   1    -45.6113309 -0.456113E+02  0.483E-03    9.01       0.0  T
   2    -45.6113309 -0.296995E-08  0.360E-03    9.01       5.8  T
   3    -45.6113309 -0.274952E-08  0.430E-04    9.01      48.5  T
   4    -45.6113309 -0.326445E-09  0.125E-04    9.01     167.2  T
speedup  0.94
cpu  time for SCC    0.00 s
wall time for SCC    0.00 s
speedup  0.99
cpu  time for grad    0.01 s
wall time for grad    0.01 s
 E :    -45.35541646  G :  0.000128    pred/act E change: -0.103D-06 -0.916D-07
Maxdispl :   0.0038   ||displ|| :   0.0059   Lambda : -0.684D-07
Largest |displ|/coords:  0.0038 (   4)  0.0027 (   2)  0.0013 (   3)

   *** GEOMETRY OPTIMIZATION CONVERGED AFTER 138 ITERATIONS ***

------------------------------------------------------------------------
 total energy gain (kcal):     -0.0282
------------------------------------------------------------------------
================
 final structure:
================
$coord
        2.44343031960740       -2.41168341926870       -2.80137285369303      S 
        4.36785435624565       -1.01093392221744       -1.40725545458834      O 
        3.26598770439815       -4.64985376866032       -4.00473755636505      O 
        1.34200539829061       -0.54227591963587       -4.82431515425822      O 
        0.25331624330762       -2.93475327058877       -1.03108724903274      O 
       -1.16375106859745       -1.33390584087686       -0.94961951070781      H 
        1.49220211600939        1.17192606459017       -4.16857446653540      H 
        0.07471541921032        3.48220219959051        1.96664452853979      O 
        1.16262455577719        4.13900156031527        0.65233630503574      H 
        1.05230763952830        2.14688167894297        2.80464175899027      H 
       -2.77186705524392        0.53016164306578       -0.68700947208336      O 
       -4.07300151801619       -0.15694633134084        0.48695763978629      H 
       -1.82350060209203        1.83902801427228        0.32106202860464      H 
        3.09091621011288        3.59344303642061       -2.35620775763044      O 
        3.92630936358132        2.02695507491449       -1.78678884977306      H 
        4.33892315488752        4.56166286356360       -3.24349152319751      H 
        2.61285932100274       -0.72125862127665        3.33527649043321      O 
        1.53713026358261       -2.18162638381279        3.35543062555516      H 
        3.57271073880836       -0.86677781391258        1.76686941383176      H 
       -5.90282905629384       -1.44921920015341        2.77756698840420      N 
       -5.47168030703240       -0.70369765100074        4.48620153868330      H 
       -5.55290620836819       -3.32907696401913        2.83657382361795      H 
       -7.77375696970708       -1.19925302894121        2.47089870643803      H 
$end
 
 Bond Distances (Angstroems)
 ---------------------------
S1-O2=1.4597         S1-O3=1.4134         S1-O4=1.5698         S1-O5=1.5157         O2-S1=1.4597         O3-S1=1.4134         
O4-S1=1.5698         O4-H7=0.9745         O5-S1=1.5157         O5-H6=1.1322         H6-O5=1.1322         H7-O4=0.9745         
O8-H9=0.9674         O8-H10=0.9816        H9-O8=0.9674         H10-O8=0.9816        O11-H12=0.9961       O11-H13=1.0080       
H12-O11=0.9961       H13-O11=1.0080       O14-H15=0.9866       O14-H16=0.9587       H15-O14=0.9866       H16-O14=0.9587       
O17-H18=0.9599       O17-H19=0.9761       H18-O17=0.9599       H19-O17=0.9761       N20-H21=1.0125       N20-H22=1.0123       
N20-H23=1.0119       H21-N20=1.0125       H22-N20=1.0123       H23-N20=1.0119       
 N  H  Rav=1.0123 sigma=0.0002  Rmin=1.0119  Rmax=1.0125     3
 O  H  Rav=0.9941 sigma=0.0483  Rmin=0.9587  Rmax=1.1322    10
 S  O  Rav=1.4897 sigma=0.0588  Rmin=1.4134  Rmax=1.5698     4
 
 selected bond angles (degree)
 --------------------
O3-S1-O2=116.00                O4-S1-O2=106.48                O4-S1-O3=109.58                O5-S1-O2=108.29                
O5-S1-O3=111.16                O5-S1-O4=104.63                H7-O4-S1=108.27                H6-O5-S1=113.16                
H10-O8-H9=105.65               
 
 selected dihedral angles (degree)
 ---------------------------------
H7-O4-S1-O2=331.27            H7-O4-S1-O3=205.08            H7-O4-S1-O5= 85.82            H6-O5-S1-O2= 86.02            
H6-O5-S1-O3=214.55            H6-O5-S1-O4=332.75            
 
 CMA Distance (Angstroems)
 ---------------------------
R(CMA):  3.0689

========================================================================
 FINAL SINGLEPOINT CALCULATION ON OPTIMIZED GEOMETRY
========================================================================

 Ncao       : 59
 Nao        : 58
 Nshell     : 34
 Nel        : 72
 T(el)      :   300.0
 intcut     :    25.0
 scfconv/Eh :  0.100E-05
   qconv/e  :  0.100E-03
 intneglect :  0.100E-07
 broydamp   :      0.250
 iter      E             dE          RMSdq      gap      omega  full diag
   1    -45.6113309 -0.456113E+02  0.551E-05    9.01       0.0  T
   2    -45.6113309 -0.181188E-11  0.360E-05    9.01     579.9  T
   3    -45.6113309 -0.845546E-12  0.777E-06    9.01    2682.7  T
speedup  1.15
cpu  time for SCC    0.00 s
wall time for SCC    0.00 s

   *** convergence criteria satisfied after 3 iterations ***

          eigenvalues
 #    :          24         25         26         27         28         29         30         31
 occ. :        2.000      2.000      2.000      2.000      2.000      2.000      2.000      2.000
 eps  :       -14.070    -13.770    -13.435    -12.911    -12.773    -12.759    -12.560    -12.476
 #    :          32         33         34         35         36         37         38         39
 occ. :        2.000      2.000      2.000      2.000      2.000      0.000      0.000      0.000
 eps  :       -12.201    -12.120    -12.023    -12.011    -11.871     -2.864     -1.061     -0.158
 #    :          40         41         42         43         44         45         46         47
 occ. :        0.000      0.000      0.000      0.000      0.000      0.000      0.000      0.000
 eps  :         0.291      0.566      1.033      2.029      2.904      4.324      4.872      4.887


   #   Z            q   n(s)   n(p)   n(d)      C6AA      α(0)
   1  16 S      1.684  1.578  1.788  0.949    89.125    15.889
   2   8 O     -0.739  1.770  4.969  0.000    29.796     7.319
   3   8 O     -0.635  1.749  4.886  0.000    26.986     6.965
   4   8 O     -0.601  1.755  4.846  0.000    25.179     6.774
   5   8 O     -0.669  1.766  4.903  0.000    26.950     7.005
   6   1 H      0.395  0.605  0.000  0.000     0.483     1.086
   7   1 H      0.379  0.621  0.000  0.000     0.522     1.133
   8   8 O     -0.618  1.758  4.861  0.000    25.624     6.832
   9   1 H      0.315  0.685  0.000  0.000     0.678     1.294
  10   1 H      0.329  0.671  0.000  0.000     0.641     1.258
  11   8 O     -0.597  1.764  4.833  0.000    25.036     6.757
  12   1 H      0.333  0.667  0.000  0.000     0.630     1.247
  13   1 H      0.354  0.646  0.000  0.000     0.580     1.196
  14   8 O     -0.627  1.747  4.880  0.000    25.843     6.861
  15   1 H      0.333  0.667  0.000  0.000     0.631     1.248
  16   1 H      0.294  0.706  0.000  0.000     0.738     1.350
  17   8 O     -0.609  1.743  4.865  0.000    25.391     6.801
  18   1 H      0.291  0.709  0.000  0.000     0.747     1.358
  19   1 H      0.318  0.682  0.000  0.000     0.669     1.285
  20   7 N     -0.431  1.359  4.071  0.000    31.252     8.302
  21   1 H      0.169  0.831  0.000  0.000     1.279     1.772
  22   1 H      0.167  0.833  0.000  0.000     1.291     1.780
  23   1 H      0.165  0.835  0.000  0.000     1.304     1.789

 Mol. C6AA /au·bohr⁶  :       4503.524005
 Mol. C8AA /au·bohr⁸  :      98939.081833
 Mol. α(0) /au        :         97.298790

 
 Wiberg/Mayer (AO) data. WBOs > 0.1 written file <wbo>
 largest (>0.05) Wiberg bond orders for each atom
           total WBO             WBO to atom ...
     1  S   4.867    O    3 1.522    O    2 1.280    O    5 1.077    O    4 0.946
     2  O   1.739    S    1 1.280    O    3 0.116    O    5 0.091    O    4 0.082    H   15 0.071
     3  O   1.826    S    1 1.522    O    2 0.116    O    5 0.089    O    4 0.075
     4  O   1.980    S    1 0.946    H    7 0.784    O    2 0.082    O    3 0.075    O    5 0.069
     5  O   1.902    S    1 1.077    H    6 0.490    O    2 0.091    O    3 0.089    O   11 0.074    O    4 0.069
     6  H   0.844    O    5 0.490    O   11 0.336
     7  H   0.857    O    4 0.784    O   14 0.052
     8  O   1.916    H    9 0.874    H   10 0.834    H   13 0.113
     9  H   0.901    O    8 0.874
    10  H   0.892    O    8 0.834    O   17 0.057
    11  O   2.075    H   12 0.792    H   13 0.759    H    6 0.336    O    5 0.074
    12  H   0.889    O   11 0.792    N   20 0.095
    13  H   0.875    O   11 0.759    O    8 0.113
    14  O   1.867    H   16 0.907    H   15 0.812    H    7 0.052
    15  H   0.889    O   14 0.812    O    2 0.071
    16  H   0.913    O   14 0.907
    17  O   1.868    H   18 0.909    H   19 0.847    H   10 0.057
    18  H   0.915    O   17 0.909
    19  H   0.899    O   17 0.847
    20  N   3.051    H   23 0.971    H   22 0.971    H   21 0.970    H   12 0.095
    21  H   0.971    N   20 0.970
    22  H   0.972    N   20 0.971
    23  H   0.973    N   20 0.971
 MOs/occ written to file <molden.input>
 
molecular dipole:
                 x           y           z       tot (Debye)
 q only:       -1.690       1.024       0.980
   full:       -1.616       0.788       1.094       5.351
molecular quadrupole (traceless):
                xx          xy          yy          xz          yz          zz
 q only:        8.978      14.208      -5.665      -6.014     -14.573      -3.313
  q+dip:       12.503      18.748      -7.884     -11.108     -18.379      -4.619
   full:       12.422      18.734      -7.525     -11.265     -18.667      -4.897

SCC energy    :     -45.6113309
rep           :       0.2557421
ES            :       0.2068881
AES           :      -0.0471597
AXC           :      -0.0063644
disp          :      -0.0158661
XB            :       0.0000000
fix           :       0.0000000
total E       :     -45.3554165
atomizationE  :       4.4384790     2785.19
(atE without considering molecular charge,
 total energy contains solvation terms)
H-L gap (eV)  :          9.0067
optimized geometry written to: xtbopt.xyz


------------------------------------------------------------------------
 * finished run on 2019/09/16 at 11:55:25.136     
------------------------------------------------------------------------
 total:
 * wall-time:     0 d,  0 h,  0 min,  2.613 sec
 *  cpu-time:     0 d,  0 h,  0 min,  2.588 sec
 * ratio c/w:     0.990 speedup
 SCF:
 * wall-time:     0 d,  0 h,  0 min,  0.122 sec
 *  cpu-time:     0 d,  0 h,  0 min,  0.119 sec
 * ratio c/w:     0.975 speedup
 ANC optimizer:
 * wall-time:     0 d,  0 h,  0 min,  2.466 sec
 *  cpu-time:     0 d,  0 h,  0 min,  2.446 sec
 * ratio c/w:     0.992 speedup

