      -----------------------------------------------------------      
     |                   =====================                   |     
     |                           x T B                           |     
     |                   =====================                   |     
     |                         S. Grimme                         |     
     |          Mulliken Center for Theoretical Chemistry        |     
     |                    University of Bonn                     |     
     |                 Version 6.0.1 (SAW181210)                 |     
      -----------------------------------------------------------      

   This program is distributed in the hope that it will be useful,
   but WITHOUT ANY WARRANTY; without even the implied warranty of
   MERCHANTABILITY or FITNESS FOR A PARTICULAR PURPOSE.
   
   FOR NON-COMMERCIAL, ACADEMIA USE ONLY.
   
   Cite this work as:
   S. Grimme, C. Bannwarth, P. Shushkov, J. Comput. Theory Chem., 2017,
   13, 1989-2009.
   C. Bannwarth, S. Ehlert and S. Grimme., ChemRxiv, 2018, preprint.
   http://doi.org/10.26434/chemrxiv.7246238.v1
   
   for sTDA-xTB:
   S. Grimme and C. Bannwarth, J. Chem. Phys., 2016, 145, 054103.
   
   in the mass-spec context:
   V. Asgeirsson, C. Bauer and S. Grimme, Chem. Sci., 2017, 8, 4879.
   
   if GBSA is used:
   P. Shushkov, F. März and S. Grimme, unpublished.
   
   for ANC optimizer:
   S. Grimme, unpublished.
   Rational Function algorithm used in ANCopt:
   F. Eckert, P. Pulay, H.-J. Werner, J. Comput. Chem., 1997, 18, 1473.
   
   with help from (in alphabetical order)
   C. Bannwarth, F. Bohle, G. Brandenburg, E. Caldeweyher, M. Checinski,
   S. Dohm, S. Ehlert, S. Ehrlich, F. März, H. Neugebauer, J. Pisarek,
   P. Pracht, P. Shushkov, and S. Spicher.
   
 * started run on 2019/09/16 at 12:19:15.902     
========================================================================
 # omp threads = 1
========================================================================
number of atoms            : 23
number of electrons        : 72
charge                     : 0
spin                       : .0
first test random number   : .0709

########################################################################
# WARNING! Please study the warnings concerning your input carefully
#  - XTBPATH is not set, using XTBHOME instead
#  - the use of '-opt' is discouraged, please use '--opt' next time
#  - the use of '-chrg' is discouraged, please use '--chrg' next time
#  - the use of '-uhf' is discouraged, please use '--uhf' next time
########################################################################

           ------------------------------------------------- 
          |                 G F N 2 - x T B                 |
          | Geometry, Frequencies, Noncovalent interactions |
          |            JCTC 2018 parametrisation            |
           ------------------------------------------------- 
      method parameters     
 k(s)        :  1.8500
 k(p)        :  2.2300
 k(d)        :  2.2300
 k(f)        :  2.0000
 kEN (H0ij)  : -2.0000
 D4 a1       :  0.5200
 D4 a2       :  5.0000
 D4 s6       :  1.0000
 D4 s8       :  2.7000
 D4 s9       :  5.0000
 alphaj      :  2.0000


            Z     q(EN)     CN     RAES       Cart. coordinates
     1  S   6.0    0.60    4.55    4.63     1.22656     2.24010     0.06737
     2  O   6.0   -0.33    1.21    1.80    -1.05948     1.58122    -1.43863
     3  O   6.0   -0.30    1.15    1.80     3.53635     1.72158    -1.45713
     4  O   6.0   -0.27    2.11    1.84     1.28266     0.70825     2.38314
     5  O   6.0   -0.25    2.10    1.84     1.14702     4.93322     0.74062
     6  H   1.0    0.16    1.24    1.48     1.14900     5.10630     2.54648
     7  H   1.0    0.15    1.29    1.49     1.33463    -1.05123     1.94423
     8  O   6.0   -0.29    2.01    1.83    -4.85471     2.97836     1.74159
     9  H   1.0    0.14    0.97    1.43    -6.60379     2.77798     1.27770
    10  H   1.0    0.17    1.04    1.43    -3.90487     2.37584     0.31002
    11  O   6.0   -0.29    2.04    1.83     1.30336    -0.95070    -5.38706
    12  H   1.0    0.17    1.00    1.43     2.76828    -0.16134    -4.64845
    13  H   1.0    0.17    1.01    1.43    -0.12642    -0.14865    -4.59519
    14  O   6.0   -0.29    1.98    1.82     0.91668    -5.74810    -3.96400
    15  H   1.0    0.16    1.05    1.44     1.08175    -4.03370    -4.55409
    16  H   1.0    0.15    0.97    1.43     0.84366    -6.77028    -5.46880
    17  O   6.0   -0.28    1.98    1.82    -1.51809     4.81311     5.11707
    18  H   1.0    0.16    1.03    1.43    -2.93006     4.24453     4.11823
    19  H   1.0    0.14    0.97    1.43    -2.21324     5.20732     6.75291
    20  N   5.0   -0.22    3.02    1.93     1.58372    -4.41456     1.26886
    21  H   1.0    0.11    0.99    1.43     3.37813    -5.04175     1.58156
    22  H   1.0    0.12    1.03    1.43     1.22467    -4.76260    -0.59152
    23  H   1.0    0.10    0.99    1.43     0.43419    -5.60492     2.25510

  Z AO/shell   Hii/eV     exponent
  1     Wed Apr 25 08:07:45 CEST 2018   EN: 2.200 GM2: 0.406  GM3: 0.0800  RAES: 1.40
     1s    -10.707211    1.230000
  7     Wed Apr 25 08:07:45 CEST 2018   EN: 3.040 GM2: 0.461  GM3:-0.0640  RAES: 1.90
     2s    -16.686243    2.339881
     2p    -12.523956    2.014332
  8     Wed Apr 25 08:07:45 CEST 2018   EN: 3.440 GM2: 0.452  GM3:-0.0517  RAES: 1.80
     2s    -20.229985    2.439742
     2p    -15.503117    2.137023
 16     Tue Apr 24 11:44:34 CEST 2018   EN: 2.580 GM2: 0.340  GM3:-0.0502  RAES: 3.10
     3s    -20.029654    1.981333
     3p    -11.377694    2.025643
     3d     -0.420282    1.702555
 no old-style atom pair restraining (fixing) potential

molecular fragmentation (1/2 indicates fragments):
11111112222222222222222
# atoms in fragment 1/2:     7    16
 fragment masses (1/2) :       98.07       89.09
CMA distance (Bohr)    :   3.403
constraining FC (au)   :  0.0500
           ------------------------------------------------- 
          |        Self-Consistent Charge Iterations        |
           ------------------------------------------------- 

 Ncao       : 59
 Nao        : 58
 Nshell     : 34
 Nel        : 72
 T(el)      :   300.0
 intcut     :    25.0
 scfconv/Eh :  0.100E-05
   qconv/e  :  0.100E-03
 intneglect :  0.100E-07
 broydamp   :      0.250
 iter      E             dE          RMSdq      gap      omega  full diag
   1    -45.5115377 -0.455115E+02  0.720E+00   10.32       0.0  T
   2    -45.5633898 -0.518521E-01  0.520E+00    9.58       1.0  T
   3    -45.5989428 -0.355531E-01  0.151E+00    8.29       1.0  T
   4    -45.6048275 -0.588469E-02  0.617E-01    8.54       1.0  T
   5    -45.6054504 -0.622885E-03  0.387E-01    8.46       1.0  T
   6    -45.6061123 -0.661878E-03  0.165E-01    8.45       1.0  T
   7    -45.6062660 -0.153689E-03  0.636E-02    8.43       1.0  T
   8    -45.6062870 -0.210340E-04  0.362E-02    8.43       1.0  T
   9    -45.6062936 -0.663528E-05  0.150E-02    8.45       1.4  T
  10    -45.6062950 -0.138687E-05  0.310E-03    8.45       6.7  T
  11    -45.6062950 -0.234111E-07  0.136E-03    8.45      15.3  T
  12    -45.6062951 -0.664863E-08  0.610E-04    8.45      34.2  T
  13    -45.6062951 -0.185685E-08  0.158E-04    8.45     132.0  T
speedup  1.03
cpu  time for SCC    0.01 s
wall time for SCC    0.01 s

   *** convergence criteria satisfied after 13 iterations ***

          eigenvalues
 #    :          24         25         26         27         28         29         30         31
 occ. :        2.000      2.000      2.000      2.000      2.000      2.000      2.000      2.000
 eps  :       -13.594    -13.421    -12.977    -12.945    -12.496    -12.264    -12.259    -12.139
 #    :          32         33         34         35         36         37         38         39
 occ. :        2.000      2.000      2.000      2.000      2.000      0.000      0.000      0.000
 eps  :       -12.052    -11.731    -11.383    -11.371    -11.024     -2.578     -1.433     -0.352
 #    :          40         41         42         43         44         45         46         47
 occ. :        0.000      0.000      0.000      0.000      0.000      0.000      0.000      0.000
 eps  :         0.534      1.137      1.454      2.663      3.256      4.269      4.888      5.268


   #   Z            q   n(s)   n(p)   n(d)      C6AA      α(0)
   1  16 S      1.699  1.574  1.784  0.942    88.785    15.859
   2   8 O     -0.728  1.771  4.956  0.000    29.469     7.278
   3   8 O     -0.711  1.774  4.936  0.000    28.999     7.220
   4   8 O     -0.561  1.711  4.850  0.000    24.248     6.648
   5   8 O     -0.532  1.711  4.820  0.000    23.577     6.555
   6   1 H      0.410  0.590  0.000  0.000     0.460     1.061
   7   1 H      0.402  0.598  0.000  0.000     0.474     1.077
   8   8 O     -0.612  1.737  4.874  0.000    25.463     6.811
   9   1 H      0.289  0.711  0.000  0.000     0.754     1.364
  10   1 H      0.318  0.682  0.000  0.000     0.668     1.284
  11   8 O     -0.598  1.730  4.868  0.000    25.145     6.768
  12   1 H      0.310  0.690  0.000  0.000     0.693     1.307
  13   1 H      0.306  0.694  0.000  0.000     0.703     1.317
  14   8 O     -0.625  1.742  4.882  0.000    25.785     6.853
  15   1 H      0.321  0.679  0.000  0.000     0.660     1.276
  16   1 H      0.273  0.727  0.000  0.000     0.807     1.411
  17   8 O     -0.624  1.744  4.880  0.000    25.756     6.850
  18   1 H      0.328  0.672  0.000  0.000     0.643     1.259
  19   1 H      0.286  0.714  0.000  0.000     0.765     1.374
  20   7 N     -0.474  1.398  4.076  0.000    32.545     8.472
  21   1 H      0.155  0.845  0.000  0.000     1.368     1.832
  22   1 H      0.211  0.789  0.000  0.000     1.051     1.606
  23   1 H      0.155  0.845  0.000  0.000     1.371     1.834

 Mol. C6AA /au·bohr⁶  :       4501.652270
 Mol. C8AA /au·bohr⁸  :      98802.128681
 Mol. α(0) /au        :         97.316664

 
 Wiberg/Mayer (AO) data. WBOs > 0.1 written file <wbo>
 largest (>0.05) Wiberg bond orders for each atom
           total WBO             WBO to atom ...
     1  S   4.825    O    3 1.366    O    2 1.315    O    5 1.060    O    4 1.049
     2  O   1.704    S    1 1.315    O    3 0.132    O    4 0.089    O    5 0.078
     3  O   1.705    S    1 1.366    O    2 0.132    O    4 0.092    O    5 0.080
     4  O   2.043    S    1 1.049    H    7 0.732    O    3 0.092    O    2 0.089
     5  O   2.070    S    1 1.060    H    6 0.782    O    3 0.080    O    2 0.078
     6  H   0.832    O    5 0.782
     7  H   0.838    O    4 0.732    N   20 0.087
     8  O   1.838    H    9 0.908    H   10 0.857
     9  H   0.916    O    8 0.908
    10  H   0.899    O    8 0.857
    11  O   1.883    H   13 0.884    H   12 0.883    H   15 0.064
    12  H   0.904    O   11 0.883
    13  H   0.906    O   11 0.884
    14  O   1.816    H   16 0.916    H   15 0.832
    15  H   0.897    O   14 0.832    O   11 0.064
    16  H   0.925    O   14 0.916
    17  O   1.821    H   19 0.913    H   18 0.851
    18  H   0.892    O   17 0.851
    19  H   0.918    O   17 0.913
    20  N   3.017    H   21 0.974    H   23 0.974    H   22 0.927    H    7 0.087
    21  H   0.976    N   20 0.974
    22  H   0.955    N   20 0.927
    23  H   0.976    N   20 0.974
 MOs/occ written to file <molden.input>
 
molecular dipole:
                 x           y           z       tot (Debye)
 q only:       -0.670       0.059       1.547
   full:       -0.951      -0.075       1.794       5.164
molecular quadrupole (traceless):
                xx          xy          yy          xz          yz          zz
 q only:        0.066      -3.519       0.982       2.126       4.595      -1.048
  q+dip:        0.848      -5.597       1.988       2.255       5.966      -2.835
   full:        0.544      -5.505       1.886       2.242       6.295      -2.430

SCC energy    :     -45.6062951
rep           :       0.2825333
ES            :       0.2158062
AES           :      -0.0421567
AXC           :      -0.0064767
disp          :      -0.0149126
XB            :       0.0000000
fix           :       0.0000000
total E       :     -45.3236208
atomizationE  :       4.4066833     2765.24
(atE without considering molecular charge,
 total energy contains solvation terms)
H-L gap (eV)  :          8.4461
           ------------------------------------------------- 
          |                 ===============                 |
          |                   A N C O P T                   |
          |                 ===============                 |
          |          Approximate Normal Coordinate          |
          |           Rational Function Optimizer           |
           ------------------------------------------------- 
dumping coords to <xtbopt.coord> and <xtbopt.log>
 optlevel               2
 Maxcycle             460
 Maxmicro              25
 Econv         1.000000000000000E-007
 Gconv         2.000000000000000E-004
 Maxdispl       1.00000000000000     
 Hlow          5.000000000000000E-003
 S6             20.0000000000000     
 Nvar               63

generating ANC from model Hessian ...
 Shifting diagonal of input Hessian by   5.057256586914955E-003
 Lowest  eigenvalues of input Hessian
    0.005000   -0.000000   -0.000000   -0.000000    0.000000    0.000000
    0.000000    0.005067    0.005102    0.005425    0.005526    0.005682
    0.005811    0.005871    0.006275    0.006390    0.006896    0.007007
 Highest eigenvalues
    1.420590    1.442299    1.550919    3.209381    3.409046    3.458741
 
cpu  time for ANC gen    0.01 s
wall time for ANC gen    0.01 s
................................................................................
.............................. CYCLE    1 ......................................
................................................................................
   1    -45.6062951 -0.456063E+02  0.596E-05    8.45       0.0  T
   2    -45.6062951 -0.784439E-11  0.464E-05    8.45     449.5  T
   3    -45.6062951 -0.482459E-11  0.312E-05    8.45     667.8  T
speedup  1.20
cpu  time for SCC    0.00 s
wall time for SCC    0.00 s
speedup  0.97
cpu  time for grad    0.01 s
wall time for grad    0.01 s
 E :    -45.32362081  G :  0.181516    pred/act E change:  0.000D+00  0.251D-07
Maxdispl :   0.1539   ||displ|| :   0.3100   Lambda : -0.163D-01
Largest |displ|/coords:  0.1539 (  22)  0.1108 (  23)  0.0850 (  21)
................................................................................
.............................. CYCLE    2 ......................................
................................................................................
   1    -45.6111653 -0.456112E+02  0.244E-01    8.51       0.0  T
   2    -45.6113855 -0.220199E-03  0.199E-01    8.55       1.0  T
   3    -45.6114425 -0.569910E-04  0.141E-01    8.59       1.0  T
   4    -45.6114497 -0.720704E-05  0.266E-02    8.63       1.0  T
   5    -45.6114505 -0.797744E-06  0.485E-03    8.63       4.3  T
   6    -45.6114506 -0.358486E-07  0.243E-03    8.63       8.6  T
speedup  1.09
cpu  time for SCC    0.00 s
wall time for SCC    0.00 s
speedup  1.01
cpu  time for grad    0.01 s
wall time for grad    0.01 s
 E :    -45.33715550  G :  0.118642    pred/act E change:  0.000D+00 -0.135D-01
Maxdispl :   0.2073   ||displ|| :   0.3428   Lambda : -0.104D-01
Largest |displ|/coords:  0.2073 (  22)  0.1261 (  21)  0.0943 (  23)
................................................................................
.............................. CYCLE    3 ......................................
................................................................................
   1    -45.6166095 -0.456166E+02  0.204E-01    8.64       0.0  T
   2    -45.6168559 -0.246340E-03  0.174E-01    8.69       1.0  T
   3    -45.6169112 -0.553567E-04  0.137E-01    8.73       1.0  T
   4    -45.6169229 -0.117115E-04  0.264E-02    8.79       1.0  T
   5    -45.6169233 -0.384113E-06  0.450E-03    8.79       4.6  T
   6    -45.6169233 -0.329500E-07  0.224E-03    8.80       9.3  T
speedup  1.09
cpu  time for SCC    0.00 s
wall time for SCC    0.00 s
speedup  1.00
cpu  time for grad    0.01 s
wall time for grad    0.01 s
 E :    -45.34546063  G :  0.065107    pred/act E change: -0.895D-02 -0.831D-02
Maxdispl :   0.1756   ||displ|| :   0.3216   Lambda : -0.515D-02
Largest |displ|/coords:  0.1756 (  22)  0.1241 (  15)  0.1131 (  21)
................................................................................
.............................. CYCLE    4 ......................................
................................................................................
   1    -45.6189198 -0.456189E+02  0.208E-01    8.73       0.0  T
   2    -45.6190773 -0.157514E-03  0.171E-01    8.77       1.0  T
   3    -45.6191204 -0.430486E-04  0.108E-01    8.82       1.0  T
   4    -45.6191243 -0.395804E-05  0.234E-02    8.85       1.0  T
   5    -45.6191246 -0.289414E-06  0.375E-03    8.85       5.6  T
   6    -45.6191246 -0.218353E-07  0.194E-03    8.85      10.7  T
speedup  0.87
cpu  time for SCC    0.00 s
wall time for SCC    0.00 s
speedup  1.00
cpu  time for grad    0.01 s
wall time for grad    0.01 s
 E :    -45.34938357  G :  0.033418    pred/act E change: -0.580D-02 -0.392D-02
Maxdispl :   0.1561   ||displ|| :   0.3775   Lambda : -0.396D-02
Largest |displ|/coords:  0.1561 (  15)  0.1405 (   7)  0.1339 (  22)
................................................................................
.............................. CYCLE    5 ......................................
................................................................................
   1    -45.6184807 -0.456185E+02  0.309E-01    8.68       0.0  T
   2    -45.6186478 -0.167069E-03  0.243E-01    8.71       1.0  T
   3    -45.6186908 -0.430739E-04  0.957E-02    8.77       1.0  T
   4    -45.6187037 -0.128909E-04  0.289E-02    8.78       1.0  T
   5    -45.6187042 -0.422726E-06  0.423E-03    8.78       4.9  T
   6    -45.6187042 -0.349071E-07  0.230E-03    8.78       9.1  T
speedup  1.09
cpu  time for SCC    0.01 s
wall time for SCC    0.00 s
speedup  1.00
cpu  time for grad    0.01 s
wall time for grad    0.01 s
 E :    -45.35172043  G :  0.025044    pred/act E change: -0.284D-02 -0.234D-02
Maxdispl :   0.1993   ||displ|| :   0.4823   Lambda : -0.223D-02
Largest |displ|/coords:  0.1993 (   5)  0.1918 (  11)  0.1643 (   4)
................................................................................
.............................. CYCLE    6 ......................................
................................................................................
   1    -45.6038918 -0.456039E+02  0.680E-01    8.60       0.0  T
   2    -45.6040421 -0.150294E-03  0.514E-01    8.63       1.0  T
   3    -45.6041398 -0.977301E-04  0.800E-02    8.69       1.0  T
   4    -45.6041620 -0.222309E-04  0.299E-02    8.68       1.0  T
   5    -45.6041630 -0.958460E-06  0.598E-03    8.68       3.5  T
   6    -45.6041630 -0.365730E-07  0.366E-03    8.68       5.7  T
speedup  1.09
cpu  time for SCC    0.00 s
wall time for SCC    0.00 s
speedup  1.00
cpu  time for grad    0.01 s
wall time for grad    0.01 s
 E :    -45.34971763  G :  0.064918    pred/act E change: -0.226D-02  0.200D-02
Maxdispl :   0.2575   ||displ|| :   0.5393   Lambda : -0.147D-01
Largest |displ|/coords:  0.2575 (   4)  0.2463 (   5)  0.1679 (  14)
................................................................................
.............................. CYCLE    7 ......................................
................................................................................
   1    -45.6205438 -0.456205E+02  0.889E-01    8.78       0.0  T
   2    -45.6208712 -0.327370E-03  0.674E-01    8.78       1.0  T
   3    -45.6210978 -0.226583E-03  0.118E-01    8.78       1.0  T
   4    -45.6211437 -0.459588E-04  0.307E-02    8.78       1.0  T
   5    -45.6211459 -0.217779E-05  0.112E-02    8.78       1.9  T
   6    -45.6211460 -0.367789E-07  0.578E-03    8.78       3.6  T
   7    -45.6211460 -0.402549E-07  0.922E-04    8.78      22.6  T
speedup  0.94
cpu  time for SCC    0.00 s
wall time for SCC    0.01 s
speedup  0.94
cpu  time for grad    0.01 s
wall time for grad    0.01 s
 E :    -45.35135062  G :  0.038211    pred/act E change: -0.138D-02 -0.163D-02
Maxdispl :   0.1369   ||displ|| :   0.2874   Lambda : -0.267D-02
Largest |displ|/coords:  0.1369 (  11)  0.1068 (  13)  0.0983 (  14)
................................................................................
.............................. CYCLE    8 ......................................
................................................................................
   1    -45.6165959 -0.456166E+02  0.414E-01    8.76       0.0  T
   2    -45.6166371 -0.411765E-04  0.314E-01    8.76       1.0  T
   3    -45.6166752 -0.381523E-04  0.429E-02    8.77       1.0  T
   4    -45.6166796 -0.432426E-05  0.116E-02    8.77       1.8  T
   5    -45.6166798 -0.208464E-06  0.409E-03    8.77       5.1  T
   6    -45.6166798 -0.130854E-07  0.216E-03    8.77       9.6  T
speedup  1.06
cpu  time for SCC    0.00 s
wall time for SCC    0.00 s
speedup  0.99
cpu  time for grad    0.01 s
wall time for grad    0.01 s
 E :    -45.35262382  G :  0.033059    pred/act E change: -0.952D-02 -0.127D-02
Maxdispl :   0.2053   ||displ|| :   0.3809   Lambda : -0.286D-02
Largest |displ|/coords:  0.2053 (   8)  0.1573 (  13)  0.1190 (   1)
................................................................................
.............................. CYCLE    9 ......................................
................................................................................
   1    -45.6154246 -0.456154E+02  0.436E-01    8.77       0.0  T
   2    -45.6154859 -0.613787E-04  0.330E-01    8.78       1.0  T
   3    -45.6155328 -0.468425E-04  0.455E-02    8.82       1.0  T
   4    -45.6155415 -0.867939E-05  0.166E-02    8.81       1.3  T
   5    -45.6155419 -0.392478E-06  0.582E-03    8.81       3.6  T
   6    -45.6155419 -0.238959E-07  0.328E-03    8.81       6.4  T
speedup  1.09
cpu  time for SCC    0.00 s
wall time for SCC    0.00 s
speedup  1.00
cpu  time for grad    0.01 s
wall time for grad    0.01 s
 E :    -45.35284253  G :  0.030316    pred/act E change: -0.144D-02 -0.219D-03
Maxdispl :   0.0694   ||displ|| :   0.2201   Lambda : -0.178D-02
Largest |displ|/coords:  0.0694 (   7)  0.0663 (  17)  0.0615 (  15)
................................................................................
.............................. CYCLE   10 ......................................
................................................................................
   1    -45.6167678 -0.456168E+02  0.198E-01    8.84       0.0  T
   2    -45.6167823 -0.144887E-04  0.148E-01    8.85       1.0  T
   3    -45.6167896 -0.734067E-05  0.226E-02    8.87       1.0  T
   4    -45.6167920 -0.230633E-05  0.648E-03    8.87       3.2  T
   5    -45.6167920 -0.919302E-07  0.261E-03    8.86       8.0  T
   6    -45.6167920 -0.544419E-08  0.144E-03    8.86      14.5  T
speedup  0.89
cpu  time for SCC    0.00 s
wall time for SCC    0.00 s
speedup  1.01
cpu  time for grad    0.01 s
wall time for grad    0.01 s
 E :    -45.35385427  G :  0.018698    pred/act E change: -0.164D-02 -0.101D-02
Maxdispl :   0.0855   ||displ|| :   0.1775   Lambda : -0.673D-03
Largest |displ|/coords:  0.0855 (  13)  0.0704 (  10)  0.0603 (   9)
................................................................................
.............................. CYCLE   11 ......................................
................................................................................
   1    -45.6148397 -0.456148E+02  0.184E-01    8.89       0.0  T
   2    -45.6148495 -0.984927E-05  0.139E-01    8.89       1.0  T
   3    -45.6148558 -0.622876E-05  0.194E-02    8.90       1.1  T
   4    -45.6148573 -0.153373E-05  0.648E-03    8.90       3.2  T
   5    -45.6148574 -0.809702E-07  0.203E-03    8.90      10.3  T
   6    -45.6148574 -0.250078E-08  0.117E-03    8.90      17.8  T
speedup  1.09
cpu  time for SCC    0.01 s
wall time for SCC    0.00 s
speedup  1.00
cpu  time for grad    0.01 s
wall time for grad    0.01 s
 E :    -45.35432373  G :  0.022085    pred/act E change: -0.932D-03 -0.469D-03
Maxdispl :   0.1316   ||displ|| :   0.3251   Lambda : -0.112D-02
Largest |displ|/coords:  0.1316 (   9)  0.1069 (  13)  0.1040 (   7)
................................................................................
.............................. CYCLE   12 ......................................
................................................................................
   1    -45.6150154 -0.456150E+02  0.227E-01    8.96       0.0  T
   2    -45.6150372 -0.218427E-04  0.171E-01    8.98       1.0  T
   3    -45.6150493 -0.120926E-04  0.286E-02    9.02       1.0  T
   4    -45.6150530 -0.366130E-05  0.937E-03    9.01       2.2  T
   5    -45.6150531 -0.103663E-06  0.303E-03    9.01       6.9  T
   6    -45.6150531 -0.110955E-07  0.153E-03    9.01      13.7  T
speedup  1.09
cpu  time for SCC    0.01 s
wall time for SCC    0.00 s
speedup  1.00
cpu  time for grad    0.01 s
wall time for grad    0.01 s
 E :    -45.35504123  G :  0.015275    pred/act E change: -0.347D-03 -0.717D-03
Maxdispl :   0.2277   ||displ|| :   0.5319   Lambda : -0.170D-02
Largest |displ|/coords:  0.2277 (   9)  0.2167 (  10)  0.1945 (   1)
................................................................................
.............................. CYCLE   13 ......................................
................................................................................
   1    -45.6079581 -0.456080E+02  0.487E-01    9.09       0.0  T
   2    -45.6080636 -0.105466E-03  0.367E-01    9.12       1.0  T
   3    -45.6081139 -0.503043E-04  0.578E-02    9.20       1.0  T
   4    -45.6081336 -0.197279E-04  0.179E-02    9.19       1.2  T
   5    -45.6081340 -0.397781E-06  0.637E-03    9.19       3.3  T
   6    -45.6081341 -0.501249E-07  0.341E-03    9.19       6.1  T
   7    -45.6081341 -0.121005E-07  0.102E-03    9.19      20.4  T
   8    -45.6081341 -0.219522E-08  0.283E-04    9.19      73.6  T
speedup  0.98
cpu  time for SCC    0.01 s
wall time for SCC    0.01 s
speedup  0.95
cpu  time for grad    0.01 s
wall time for grad    0.01 s
 E :    -45.35594298  G :  0.027574    pred/act E change: -0.618D-03 -0.902D-03
Maxdispl :   0.1236   ||displ|| :   0.2566   Lambda : -0.127D-02
Largest |displ|/coords:  0.1236 (  10)  0.1203 (   9)  0.0774 (   5)
................................................................................
.............................. CYCLE   14 ......................................
................................................................................
   1    -45.6129946 -0.456130E+02  0.217E-01    9.25       0.0  T
   2    -45.6130431 -0.484907E-04  0.162E-01    9.26       1.0  T
   3    -45.6130655 -0.224130E-04  0.433E-02    9.29       1.0  T
   4    -45.6130717 -0.617221E-05  0.139E-02    9.29       1.5  T
   5    -45.6130720 -0.304125E-06  0.395E-03    9.29       5.3  T
   6    -45.6130720 -0.203252E-07  0.212E-03    9.29       9.8  T
speedup  1.11
cpu  time for SCC    0.00 s
wall time for SCC    0.00 s
speedup  1.00
cpu  time for grad    0.01 s
wall time for grad    0.01 s
 E :    -45.35649617  G :  0.024810    pred/act E change: -0.109D-02 -0.553D-03
Maxdispl :   0.1990   ||displ|| :   0.3782   Lambda : -0.179D-02
Largest |displ|/coords:  0.1990 (  10)  0.1364 (   9)  0.1261 (   2)
................................................................................
.............................. CYCLE   15 ......................................
................................................................................
   1    -45.6184884 -0.456185E+02  0.298E-01    9.32       0.0  T
   2    -45.6186153 -0.126886E-03  0.225E-01    9.35       1.0  T
   3    -45.6186607 -0.454385E-04  0.718E-02    9.40       1.0  T
   4    -45.6186749 -0.141998E-04  0.223E-02    9.39       1.0  T
   5    -45.6186757 -0.761909E-06  0.539E-03    9.39       3.9  T
   6    -45.6186757 -0.410050E-07  0.300E-03    9.39       6.9  T
speedup  0.91
cpu  time for SCC    0.00 s
wall time for SCC    0.00 s
speedup  1.01
cpu  time for grad    0.01 s
wall time for grad    0.01 s
 E :    -45.35738823  G :  0.021841    pred/act E change: -0.676D-03 -0.892D-03
Maxdispl :   0.2567   ||displ|| :   0.4882   Lambda : -0.158D-02
Largest |displ|/coords:  0.2567 (  10)  0.2264 (   9)  0.1599 (   5)
................................................................................
.............................. CYCLE   16 ......................................
................................................................................
   1    -45.6100144 -0.456100E+02  0.379E-01    9.38       0.0  T
   2    -45.6101228 -0.108402E-03  0.285E-01    9.38       1.0  T
   3    -45.6101608 -0.379992E-04  0.612E-02    9.37       1.0  T
   4    -45.6101799 -0.190700E-04  0.183E-02    9.37       1.1  T
   5    -45.6101804 -0.529372E-06  0.590E-03    9.37       3.5  T
   6    -45.6101805 -0.473772E-07  0.333E-03    9.37       6.3  T
speedup  1.09
cpu  time for SCC    0.00 s
wall time for SCC    0.00 s
speedup  1.09
cpu  time for grad    0.01 s
wall time for grad    0.01 s
 E :    -45.35816612  G :  0.028090    pred/act E change: -0.102D-02 -0.778D-03
Maxdispl :   0.1307   ||displ|| :   0.2807   Lambda : -0.156D-02
Largest |displ|/coords:  0.1307 (   5)  0.1033 (  11)  0.0937 (  14)
................................................................................
.............................. CYCLE   17 ......................................
................................................................................
   1    -45.6134786 -0.456135E+02  0.158E-01    9.36       0.0  T
   2    -45.6134954 -0.168767E-04  0.118E-01    9.36       1.0  T
   3    -45.6135052 -0.972848E-05  0.266E-02    9.35       1.0  T
   4    -45.6135073 -0.213719E-05  0.748E-03    9.36       2.8  T
   5    -45.6135074 -0.101005E-06  0.264E-03    9.36       7.9  T
   6    -45.6135074 -0.743112E-08  0.147E-03    9.36      14.2  T
speedup  1.11
cpu  time for SCC    0.00 s
wall time for SCC    0.00 s
speedup  1.00
cpu  time for grad    0.01 s
wall time for grad    0.01 s
 E :    -45.35879550  G :  0.019073    pred/act E change: -0.976D-03 -0.629D-03
Maxdispl :   0.2112   ||displ|| :   0.3807   Lambda : -0.147D-02
Largest |displ|/coords:  0.2112 (  10)  0.1516 (   2)  0.0891 (   5)
................................................................................
.............................. CYCLE   18 ......................................
................................................................................
   1    -45.6124227 -0.456124E+02  0.280E-01    9.34       0.0  T
   2    -45.6125150 -0.922901E-04  0.211E-01    9.34       1.0  T
   3    -45.6125484 -0.334592E-04  0.611E-02    9.33       1.0  T
   4    -45.6125606 -0.122038E-04  0.180E-02    9.32       1.2  T
   5    -45.6125612 -0.534103E-06  0.480E-03    9.32       4.3  T
   6    -45.6125612 -0.297534E-07  0.268E-03    9.32       7.8  T
   7    -45.6125612 -0.917068E-08  0.860E-04    9.32      24.3  T
speedup  0.93
cpu  time for SCC    0.00 s
wall time for SCC    0.01 s
speedup  1.01
cpu  time for grad    0.01 s
wall time for grad    0.01 s
 E :    -45.35948176  G :  0.023208    pred/act E change: -0.840D-03 -0.686D-03
Maxdispl :   0.2513   ||displ|| :   0.4013   Lambda : -0.161D-02
Largest |displ|/coords:  0.2513 (  10)  0.1559 (   2)  0.1265 (   1)
................................................................................
.............................. CYCLE   19 ......................................
................................................................................
   1    -45.6157830 -0.456158E+02  0.350E-01    9.32       0.0  T
   2    -45.6158494 -0.663899E-04  0.263E-01    9.32       1.0  T
   3    -45.6158941 -0.446742E-04  0.502E-02    9.31       1.0  T
   4    -45.6159031 -0.900365E-05  0.160E-02    9.31       1.3  T
   5    -45.6159035 -0.427288E-06  0.539E-03    9.31       3.9  T
   6    -45.6159035 -0.260852E-07  0.294E-03    9.31       7.1  T
speedup  1.09
cpu  time for SCC    0.00 s
wall time for SCC    0.00 s
speedup  1.00
cpu  time for grad    0.01 s
wall time for grad    0.01 s
 E :    -45.35794584  G :  0.052357    pred/act E change: -0.844D-03  0.154D-02
Maxdispl :   0.2248   ||displ|| :   0.4259   Lambda : -0.836D-02
Largest |displ|/coords:  0.2248 (   6)  0.1707 (  10)  0.1363 (  14)
................................................................................
.............................. CYCLE   20 ......................................
................................................................................
   1    -45.6094610 -0.456095E+02  0.555E-01    9.24       0.0  T
   2    -45.6096468 -0.185751E-03  0.417E-01    9.24       1.0  T
   3    -45.6097647 -0.117875E-03  0.844E-02    9.26       1.0  T
   4    -45.6097882 -0.235761E-04  0.262E-02    9.27       1.0  T
   5    -45.6097895 -0.123925E-05  0.768E-03    9.26       2.7  T
   6    -45.6097896 -0.921052E-07  0.464E-03    9.26       4.5  T
   7    -45.6097896 -0.356345E-07  0.110E-03    9.26      18.9  T
speedup  0.96
cpu  time for SCC    0.00 s
wall time for SCC    0.01 s
speedup  1.02
cpu  time for grad    0.01 s
wall time for grad    0.01 s
 E :    -45.35696117  G :  0.064098    pred/act E change: -0.937D-03  0.985D-03
Maxdispl :   0.1711   ||displ|| :   0.4231   Lambda : -0.122D-01
Largest |displ|/coords:  0.1711 (   6)  0.1702 (  21)  0.1649 (   5)
................................................................................
.............................. CYCLE   21 ......................................
................................................................................
   1    -45.6134755 -0.456135E+02  0.606E-01    9.37       0.0  T
   2    -45.6137554 -0.279884E-03  0.453E-01    9.38       1.0  T
   3    -45.6139271 -0.171711E-03  0.104E-01    9.37       1.0  T
   4    -45.6139594 -0.322633E-04  0.298E-02    9.36       1.0  T
   5    -45.6139612 -0.183785E-05  0.964E-03    9.36       2.2  T
   6    -45.6139613 -0.575138E-07  0.528E-03    9.36       4.0  T
   7    -45.6139613 -0.435007E-07  0.130E-03    9.36      16.0  T
speedup  1.13
cpu  time for SCC    0.01 s
wall time for SCC    0.01 s
speedup  1.03
cpu  time for grad    0.01 s
wall time for grad    0.01 s
 E :    -45.35698173  G :  0.072283    pred/act E change: -0.494D-02 -0.206D-04
Maxdispl :   0.1893   ||displ|| :   0.3563   Lambda : -0.105D-01
Largest |displ|/coords:  0.1893 (   5)  0.1343 (  21)  0.1033 (  13)
................................................................................
.............................. CYCLE   22 ......................................
................................................................................
   1    -45.6182361 -0.456182E+02  0.473E-01    9.26       0.0  T
   2    -45.6184930 -0.256890E-03  0.353E-01    9.27       1.0  T
   3    -45.6186305 -0.137500E-03  0.987E-02    9.30       1.0  T
   4    -45.6186565 -0.260583E-04  0.309E-02    9.31       1.0  T
   5    -45.6186586 -0.213312E-05  0.904E-03    9.31       2.3  T
   6    -45.6186587 -0.732533E-07  0.482E-03    9.31       4.3  T
   7    -45.6186587 -0.282167E-07  0.133E-03    9.31      15.7  T
speedup  0.94
cpu  time for SCC    0.00 s
wall time for SCC    0.01 s
speedup  1.03
cpu  time for grad    0.01 s
wall time for grad    0.01 s
 E :    -45.35843548  G :  0.048807    pred/act E change: -0.720D-02 -0.145D-02
Maxdispl :   0.0706   ||displ|| :   0.1653   Lambda : -0.320D-02
Largest |displ|/coords:  0.0706 (   5)  0.0432 (  13)  0.0431 (  24)
................................................................................
.............................. CYCLE   23 ......................................
................................................................................
   1    -45.6148271 -0.456148E+02  0.201E-01    9.34       0.0  T
   2    -45.6148756 -0.485469E-04  0.149E-01    9.34       1.0  T
   3    -45.6149001 -0.244846E-04  0.440E-02    9.34       1.0  T
   4    -45.6149049 -0.478942E-05  0.139E-02    9.34       1.5  T
   5    -45.6149053 -0.391978E-06  0.383E-03    9.34       5.4  T
   6    -45.6149053 -0.180661E-07  0.220E-03    9.34       9.5  T
speedup  1.11
cpu  time for SCC    0.00 s
wall time for SCC    0.00 s
speedup  1.01
cpu  time for grad    0.01 s
wall time for grad    0.01 s
 E :    -45.36005284  G :  0.011121    pred/act E change: -0.592D-02 -0.162D-02
Maxdispl :   0.0677   ||displ|| :   0.1827   Lambda : -0.827D-03
Largest |displ|/coords:  0.0677 (   8)  0.0668 (  15)  0.0519 (   3)
................................................................................
.............................. CYCLE   24 ......................................
................................................................................
   1    -45.6137495 -0.456137E+02  0.172E-01    9.38       0.0  T
   2    -45.6137674 -0.178990E-04  0.129E-01    9.37       1.0  T
   3    -45.6137775 -0.101445E-04  0.259E-02    9.36       1.0  T
   4    -45.6137801 -0.255897E-05  0.840E-03    9.36       2.5  T
   5    -45.6137802 -0.104620E-06  0.276E-03    9.36       7.6  T
   6    -45.6137802 -0.865384E-08  0.138E-03    9.36      15.1  T
speedup  0.87
cpu  time for SCC    0.00 s
wall time for SCC    0.00 s
speedup  0.99
cpu  time for grad    0.01 s
wall time for grad    0.01 s
 E :    -45.35987163  G :  0.027050    pred/act E change: -0.164D-02  0.181D-03
Maxdispl :   0.0651   ||displ|| :   0.1189   Lambda : -0.957D-03
Largest |displ|/coords:  0.0651 (  18)  0.0568 (  17)  0.0357 (   2)
................................................................................
.............................. CYCLE   25 ......................................
................................................................................
   1    -45.6145367 -0.456145E+02  0.107E-01    9.35       0.0  T
   2    -45.6145440 -0.725145E-05  0.782E-02    9.35       1.0  T
   3    -45.6145487 -0.473319E-05  0.166E-02    9.35       1.3  T
   4    -45.6145494 -0.633668E-06  0.654E-03    9.35       3.2  T
   5    -45.6145494 -0.551061E-07  0.158E-03    9.35      13.2  T
   6    -45.6145494 -0.298878E-08  0.899E-04    9.35      23.2  T
speedup  0.89
cpu  time for SCC    0.00 s
wall time for SCC    0.00 s
speedup  1.00
cpu  time for grad    0.01 s
wall time for grad    0.01 s
 E :    -45.36032530  G :  0.009035    pred/act E change: -0.428D-03 -0.454D-03
Maxdispl :   0.0835   ||displ|| :   0.1436   Lambda : -0.429D-03
Largest |displ|/coords:  0.0835 (  17)  0.0639 (   2)  0.0424 (  16)

generating ANC from model Hessian ...
 Shifting diagonal of input Hessian by   5.033484902642329E-003
 Lowest  eigenvalues of input Hessian
    0.005000   -0.000000   -0.000000   -0.000000   -0.000000   -0.000000
    0.000000    0.005182    0.005459    0.005687    0.005967    0.006997
    0.007666    0.007915    0.009360    0.011010    0.011722    0.014087
 Highest eigenvalues
    1.405012    1.439513    1.463473    2.772890    3.318080    3.591712
 
cpu  time for ANC gen    0.01 s
wall time for ANC gen    0.01 s
................................................................................
.............................. CYCLE   26 ......................................
................................................................................
   1    -45.6167172 -0.456167E+02  0.114E-01    9.37       0.0  T
   2    -45.6167221 -0.495657E-05  0.847E-02    9.37       1.0  T
   3    -45.6167266 -0.444062E-05  0.124E-02    9.37       1.7  T
   4    -45.6167269 -0.310151E-06  0.450E-03    9.37       4.6  T
   5    -45.6167269 -0.206667E-07  0.135E-03    9.37      15.4  T
   6    -45.6167269 -0.234318E-08  0.747E-04    9.37      27.9  T
   7    -45.6167269 -0.107491E-08  0.187E-04    9.37     111.2  T
speedup  0.96
cpu  time for SCC    0.00 s
wall time for SCC    0.01 s
speedup  0.99
cpu  time for grad    0.01 s
wall time for grad    0.01 s
 E :    -45.36017047  G :  0.016228    pred/act E change:  0.000D+00  0.155D-03
Maxdispl :   0.2301   ||displ|| :   0.2829   Lambda : -0.102D-02
Largest |displ|/coords:  0.2301 (   4)  0.0737 (  10)  0.0700 (   9)
................................................................................
.............................. CYCLE   27 ......................................
................................................................................
   1    -45.6145586 -0.456146E+02  0.289E-01    9.37       0.0  T
   2    -45.6145637 -0.512612E-05  0.218E-01    9.37       1.0  T
   3    -45.6145703 -0.656717E-05  0.108E-02    9.37       1.9  T
   4    -45.6145705 -0.257938E-06  0.451E-03    9.37       4.6  T
   5    -45.6145705 -0.136184E-07  0.200E-03    9.37      10.4  T
   6    -45.6145705 -0.960186E-08  0.732E-04    9.37      28.5  T
speedup  0.87
cpu  time for SCC    0.00 s
wall time for SCC    0.00 s
speedup  0.99
cpu  time for grad    0.01 s
wall time for grad    0.01 s
 E :    -45.36086557  G :  0.008243    pred/act E change:  0.000D+00 -0.695D-03
Maxdispl :   0.1714   ||displ|| :   0.3192   Lambda : -0.820D-03
Largest |displ|/coords:  0.1714 (   4)  0.1289 (  10)  0.1133 (  15)
................................................................................
.............................. CYCLE   28 ......................................
................................................................................
   1    -45.6097703 -0.456098E+02  0.367E-01    9.37       0.0  T
   2    -45.6097927 -0.224478E-04  0.278E-01    9.37       1.0  T
   3    -45.6098111 -0.183544E-04  0.266E-02    9.37       1.0  T
   4    -45.6098140 -0.292773E-05  0.901E-03    9.37       2.3  T
   5    -45.6098141 -0.130207E-06  0.328E-03    9.37       6.4  T
   6    -45.6098141 -0.569850E-08  0.177E-03    9.37      11.8  T
   7    -45.6098141 -0.708009E-08  0.343E-04    9.37      60.7  T
speedup  0.93
cpu  time for SCC    0.00 s
wall time for SCC    0.01 s
speedup  1.01
cpu  time for grad    0.01 s
wall time for grad    0.01 s
 E :    -45.36110298  G :  0.026576    pred/act E change: -0.550D-03 -0.237D-03
Maxdispl :   0.0720   ||displ|| :   0.1017   Lambda : -0.630D-03
Largest |displ|/coords:  0.0720 (   4)  0.0327 (   1)  0.0243 (  14)
................................................................................
.............................. CYCLE   29 ......................................
................................................................................
   1    -45.6148277 -0.456148E+02  0.108E-01    9.38       0.0  T
   2    -45.6148346 -0.690971E-05  0.806E-02    9.38       1.0  T
   3    -45.6148396 -0.496348E-05  0.161E-02    9.38       1.3  T
   4    -45.6148405 -0.875713E-06  0.375E-03    9.38       5.6  T
   5    -45.6148405 -0.215524E-07  0.180E-03    9.38      11.6  T
speedup  1.05
cpu  time for SCC    0.00 s
wall time for SCC    0.00 s
speedup  1.07
cpu  time for grad    0.01 s
wall time for grad    0.01 s
 E :    -45.36143771  G :  0.008830    pred/act E change: -0.452D-03 -0.335D-03
Maxdispl :   0.1099   ||displ|| :   0.1830   Lambda : -0.308D-03
Largest |displ|/coords:  0.1099 (   4)  0.0702 (   8)  0.0691 (   1)
................................................................................
.............................. CYCLE   30 ......................................
................................................................................
   1    -45.6151939 -0.456152E+02  0.147E-01    9.40       0.0  T
   2    -45.6151957 -0.180062E-05  0.111E-01    9.40       1.0  T
   3    -45.6151968 -0.106733E-05  0.814E-03    9.40       2.6  T
   4    -45.6151971 -0.317001E-06  0.232E-03    9.40       9.0  T
   5    -45.6151971 -0.656429E-08  0.102E-03    9.40      20.5  T
speedup  1.05
cpu  time for SCC    0.00 s
wall time for SCC    0.00 s
speedup  1.07
cpu  time for grad    0.01 s
wall time for grad    0.01 s
 E :    -45.36166598  G :  0.006386    pred/act E change: -0.318D-03 -0.228D-03
Maxdispl :   0.2035   ||displ|| :   0.3823   Lambda : -0.525D-03
Largest |displ|/coords:  0.2035 (   4)  0.1782 (   1)  0.1380 (  10)
................................................................................
.............................. CYCLE   31 ......................................
................................................................................
   1    -45.6134544 -0.456135E+02  0.314E-01    9.44       0.0  T
   2    -45.6134653 -0.109193E-04  0.237E-01    9.44       1.0  T
   3    -45.6134741 -0.880173E-05  0.181E-02    9.44       1.2  T
   4    -45.6134756 -0.151067E-05  0.631E-03    9.44       3.3  T
   5    -45.6134756 -0.380906E-07  0.266E-03    9.44       7.8  T
   6    -45.6134756 -0.518810E-08  0.123E-03    9.44      17.0  T
speedup  1.09
cpu  time for SCC    0.00 s
wall time for SCC    0.00 s
speedup  0.99
cpu  time for grad    0.01 s
wall time for grad    0.01 s
 E :    -45.36200420  G :  0.011030    pred/act E change: -0.159D-03 -0.338D-03
Maxdispl :   0.1207   ||displ|| :   0.2246   Lambda : -0.292D-03
Largest |displ|/coords:  0.1207 (   1)  0.0925 (  10)  0.0753 (   4)
................................................................................
.............................. CYCLE   32 ......................................
................................................................................
   1    -45.6134770 -0.456135E+02  0.171E-01    9.46       0.0  T
   2    -45.6134818 -0.480125E-05  0.129E-01    9.46       1.0  T
   3    -45.6134862 -0.444844E-05  0.125E-02    9.46       1.7  T
   4    -45.6134868 -0.543410E-06  0.351E-03    9.46       5.9  T
   5    -45.6134868 -0.105853E-07  0.163E-03    9.46      12.8  T
   6    -45.6134868 -0.263405E-08  0.682E-04    9.46      30.6  T
speedup  0.89
cpu  time for SCC    0.00 s
wall time for SCC    0.00 s
speedup  0.99
cpu  time for grad    0.01 s
wall time for grad    0.01 s
 E :    -45.36213887  G :  0.013399    pred/act E change: -0.301D-03 -0.135D-03
Maxdispl :   0.1851   ||displ|| :   0.3330   Lambda : -0.664D-03
Largest |displ|/coords:  0.1851 (   4)  0.1488 (   1)  0.0907 (  10)
................................................................................
.............................. CYCLE   33 ......................................
................................................................................
   1    -45.6165544 -0.456166E+02  0.222E-01    9.49       0.0  T
   2    -45.6165714 -0.170377E-04  0.167E-01    9.49       1.0  T
   3    -45.6165841 -0.126297E-04  0.255E-02    9.49       1.0  T
   4    -45.6165862 -0.219117E-05  0.696E-03    9.49       3.0  T
   5    -45.6165863 -0.720216E-07  0.307E-03    9.49       6.8  T
   6    -45.6165863 -0.870236E-08  0.151E-03    9.49      13.8  T
   7    -45.6165863 -0.467534E-08  0.346E-04    9.49      60.3  T
speedup  0.93
cpu  time for SCC    0.01 s
wall time for SCC    0.01 s
speedup  1.01
cpu  time for grad    0.01 s
wall time for grad    0.01 s
 E :    -45.36195589  G :  0.027050    pred/act E change: -0.153D-03  0.183D-03
Maxdispl :   0.0736   ||displ|| :   0.1465   Lambda : -0.949D-03
Largest |displ|/coords:  0.0736 (   2)  0.0616 (   8)  0.0563 (   1)
................................................................................
.............................. CYCLE   34 ......................................
................................................................................
   1    -45.6122436 -0.456122E+02  0.160E-01    9.47       0.0  T
   2    -45.6122588 -0.152274E-04  0.120E-01    9.48       1.0  T
   3    -45.6122700 -0.112343E-04  0.232E-02    9.48       1.0  T
   4    -45.6122720 -0.198451E-05  0.601E-03    9.48       3.5  T
   5    -45.6122721 -0.335463E-07  0.277E-03    9.48       7.5  T
   6    -45.6122721 -0.948318E-08  0.106E-03    9.48      19.7  T
speedup  1.11
cpu  time for SCC    0.00 s
wall time for SCC    0.00 s
speedup  1.01
cpu  time for grad    0.01 s
wall time for grad    0.01 s
 E :    -45.36219697  G :  0.017500    pred/act E change: -0.369D-03 -0.241D-03
Maxdispl :   0.1545   ||displ|| :   0.2129   Lambda : -0.118D-02
Largest |displ|/coords:  0.1545 (  14)  0.0727 (  12)  0.0474 (   1)
................................................................................
.............................. CYCLE   35 ......................................
................................................................................
   1    -45.6103176 -0.456103E+02  0.273E-01    9.45       0.0  T
   2    -45.6103629 -0.453519E-04  0.205E-01    9.45       1.0  T
   3    -45.6103926 -0.296856E-04  0.407E-02    9.44       1.0  T
   4    -45.6103986 -0.601121E-05  0.779E-03    9.45       2.7  T
   5    -45.6103987 -0.626254E-07  0.443E-03    9.45       4.7  T
   6    -45.6103987 -0.204436E-07  0.138E-03    9.45      15.1  T
   7    -45.6103987 -0.411044E-08  0.418E-04    9.45      49.9  T
speedup  0.96
cpu  time for SCC    0.01 s
wall time for SCC    0.01 s
speedup  1.03
cpu  time for grad    0.01 s
wall time for grad    0.01 s
 E :    -45.36154090  G :  0.038586    pred/act E change: -0.484D-03  0.656D-03
Maxdispl :   0.0806   ||displ|| :   0.1551   Lambda : -0.176D-02
Largest |displ|/coords:  0.0806 (   4)  0.0662 (   8)  0.0491 (   1)
................................................................................
.............................. CYCLE   36 ......................................
................................................................................
   1    -45.6175100 -0.456175E+02  0.174E-01    9.46       0.0  T
   2    -45.6175303 -0.202664E-04  0.129E-01    9.46       1.0  T
   3    -45.6175441 -0.138108E-04  0.267E-02    9.46       1.0  T
   4    -45.6175466 -0.252972E-05  0.603E-03    9.46       3.5  T
   5    -45.6175467 -0.455573E-07  0.307E-03    9.46       6.8  T
   6    -45.6175467 -0.880788E-08  0.111E-03    9.46      18.7  T
speedup  0.89
cpu  time for SCC    0.00 s
wall time for SCC    0.00 s
speedup  1.00
cpu  time for grad    0.01 s
wall time for grad    0.01 s
 E :    -45.36231946  G :  0.013008    pred/act E change: -0.614D-03 -0.779D-03
Maxdispl :   0.2428   ||displ|| :   0.3490   Lambda : -0.624D-03
Largest |displ|/coords:  0.2428 (   4)  0.1060 (  14)  0.1017 (   1)
................................................................................
.............................. CYCLE   37 ......................................
................................................................................
   1    -45.6102440 -0.456102E+02  0.324E-01    9.48       0.0  T
   2    -45.6102745 -0.305006E-04  0.243E-01    9.48       1.0  T
   3    -45.6102933 -0.187851E-04  0.334E-02    9.48       1.0  T
   4    -45.6102979 -0.461395E-05  0.810E-03    9.48       2.6  T
   5    -45.6102980 -0.866383E-07  0.363E-03    9.48       5.8  T
   6    -45.6102980 -0.905992E-08  0.194E-03    9.48      10.8  T
   7    -45.6102980 -0.519763E-08  0.334E-04    9.48      62.5  T
speedup  1.11
cpu  time for SCC    0.01 s
wall time for SCC    0.01 s
speedup  1.01
cpu  time for grad    0.01 s
wall time for grad    0.01 s
 E :    -45.36213680  G :  0.023115    pred/act E change: -0.900D-03  0.183D-03
Maxdispl :   0.1271   ||displ|| :   0.1776   Lambda : -0.909D-03
Largest |displ|/coords:  0.1271 (   4)  0.0700 (  14)  0.0366 (  15)
................................................................................
.............................. CYCLE   38 ......................................
................................................................................
   1    -45.6148174 -0.456148E+02  0.183E-01    9.47       0.0  T
   2    -45.6148318 -0.144528E-04  0.137E-01    9.47       1.0  T
   3    -45.6148403 -0.853415E-05  0.232E-02    9.47       1.0  T
   4    -45.6148424 -0.209504E-05  0.519E-03    9.47       4.0  T
   5    -45.6148425 -0.404080E-07  0.239E-03    9.47       8.7  T
speedup  1.03
cpu  time for SCC    0.00 s
wall time for SCC    0.00 s
speedup  0.96
cpu  time for grad    0.01 s
wall time for grad    0.01 s
 E :    -45.36251885  G :  0.003532    pred/act E change: -0.350D-03 -0.382D-03
Maxdispl :   0.0494   ||displ|| :   0.0959   Lambda : -0.528D-04
Largest |displ|/coords:  0.0494 (   2)  0.0458 (   4)  0.0391 (   1)
................................................................................
.............................. CYCLE   39 ......................................
................................................................................
   1    -45.6143025 -0.456143E+02  0.607E-02    9.47       0.0  T
   2    -45.6143028 -0.272084E-06  0.457E-02    9.47       1.0  T
   3    -45.6143031 -0.272325E-06  0.308E-03    9.47       6.8  T
   4    -45.6143031 -0.237694E-07  0.961E-04    9.47      21.7  T
   5    -45.6143031 -0.846342E-09  0.438E-04    9.47      47.6  T
speedup  1.05
cpu  time for SCC    0.00 s
wall time for SCC    0.00 s
speedup  1.03
cpu  time for grad    0.01 s
wall time for grad    0.01 s
 E :    -45.36256578  G :  0.003421    pred/act E change: -0.469D-03 -0.469D-04
Maxdispl :   0.2543   ||displ|| :   0.4605   Lambda : -0.234D-03
Largest |displ|/coords:  0.2543 (   2)  0.1990 (   4)  0.1927 (   1)
................................................................................
.............................. CYCLE   40 ......................................
................................................................................
   1    -45.6111758 -0.456112E+02  0.276E-01    9.48       0.0  T
   2    -45.6111830 -0.724310E-05  0.208E-01    9.47       1.0  T
   3    -45.6111897 -0.674509E-05  0.153E-02    9.47       1.4  T
   4    -45.6111905 -0.739275E-06  0.470E-03    9.47       4.4  T
   5    -45.6111905 -0.167235E-07  0.233E-03    9.47       8.9  T
   6    -45.6111905 -0.452593E-08  0.781E-04    9.47      26.7  T
   7    -45.6111905 -0.170785E-08  0.217E-04    9.47      96.1  T
speedup  0.94
cpu  time for SCC    0.00 s
wall time for SCC    0.01 s
speedup  0.98
cpu  time for grad    0.01 s
wall time for grad    0.01 s
 E :    -45.36265216  G :  0.012079    pred/act E change: -0.267D-04 -0.864D-04
Maxdispl :   0.0463   ||displ|| :   0.0872   Lambda : -0.173D-03
Largest |displ|/coords:  0.0463 (   5)  0.0405 (   2)  0.0287 (   9)
................................................................................
.............................. CYCLE   41 ......................................
................................................................................
   1    -45.6132621 -0.456133E+02  0.552E-02    9.48       0.0  T
   2    -45.6132640 -0.186569E-05  0.412E-02    9.47       1.0  T
   3    -45.6132651 -0.115685E-05  0.803E-03    9.47       2.6  T
   4    -45.6132654 -0.247912E-06  0.201E-03    9.47      10.4  T
   5    -45.6132654 -0.654690E-08  0.849E-04    9.47      24.5  T
speedup  0.79
cpu  time for SCC    0.00 s
wall time for SCC    0.00 s
speedup  0.98
cpu  time for grad    0.01 s
wall time for grad    0.01 s
 E :    -45.36274685  G :  0.004322    pred/act E change: -0.142D-03 -0.947D-04
Maxdispl :   0.1117   ||displ|| :   0.1656   Lambda : -0.949D-04
Largest |displ|/coords:  0.1117 (   2)  0.0667 (   1)  0.0453 (   9)
................................................................................
.............................. CYCLE   42 ......................................
................................................................................
   1    -45.6144738 -0.456145E+02  0.705E-02    9.48       0.0  T
   2    -45.6144744 -0.533443E-06  0.532E-02    9.48       1.0  T
   3    -45.6144750 -0.590879E-06  0.394E-03    9.48       5.3  T
   4    -45.6144750 -0.387338E-07  0.167E-03    9.48      12.5  T
   5    -45.6144750 -0.253809E-08  0.552E-04    9.48      37.8  T
speedup  0.79
cpu  time for SCC    0.00 s
wall time for SCC    0.00 s
speedup  0.97
cpu  time for grad    0.01 s
wall time for grad    0.01 s
 E :    -45.36282108  G :  0.002848    pred/act E change: -0.870D-04 -0.742D-04
Maxdispl :   0.3131   ||displ|| :   0.4849   Lambda : -0.174D-03
Largest |displ|/coords:  0.3131 (   2)  0.2033 (   1)  0.1385 (   4)
................................................................................
.............................. CYCLE   43 ......................................
................................................................................
   1    -45.6136214 -0.456136E+02  0.229E-01    9.48       0.0  T
   2    -45.6136266 -0.518404E-05  0.172E-01    9.48       1.0  T
   3    -45.6136319 -0.524017E-05  0.127E-02    9.48       1.6  T
   4    -45.6136323 -0.481353E-06  0.465E-03    9.48       4.5  T
   5    -45.6136324 -0.212407E-07  0.193E-03    9.48      10.8  T
   6    -45.6136324 -0.352900E-08  0.800E-04    9.48      26.1  T
   7    -45.6136324 -0.151084E-08  0.225E-04    9.48      92.5  T
speedup  0.96
cpu  time for SCC    0.00 s
wall time for SCC    0.01 s
speedup  0.98
cpu  time for grad    0.01 s
wall time for grad    0.01 s
 E :    -45.36291709  G :  0.008167    pred/act E change: -0.488D-04 -0.960D-04
Maxdispl :   0.0915   ||displ|| :   0.1453   Lambda : -0.996D-04
Largest |displ|/coords:  0.0915 (   2)  0.0631 (   3)  0.0510 (   1)
................................................................................
.............................. CYCLE   44 ......................................
................................................................................
   1    -45.6152010 -0.456152E+02  0.633E-02    9.50       0.0  T
   2    -45.6152017 -0.678569E-06  0.478E-02    9.50       1.0  T
   3    -45.6152024 -0.706152E-06  0.494E-03    9.50       4.2  T
   4    -45.6152024 -0.692678E-07  0.214E-03    9.50       9.7  T
   5    -45.6152025 -0.471724E-08  0.608E-04    9.50      34.3  T
speedup  1.03
cpu  time for SCC    0.00 s
wall time for SCC    0.00 s
speedup  0.97
cpu  time for grad    0.01 s
wall time for grad    0.01 s
 E :    -45.36298447  G :  0.004751    pred/act E change: -0.107D-03 -0.674D-04
Maxdispl :   0.2393   ||displ|| :   0.3771   Lambda : -0.132D-03
Largest |displ|/coords:  0.2393 (   2)  0.1623 (   1)  0.1127 (   3)
................................................................................
.............................. CYCLE   45 ......................................
................................................................................
   1    -45.6143007 -0.456143E+02  0.181E-01    9.52       0.0  T
   2    -45.6143044 -0.376558E-05  0.136E-01    9.52       1.0  T
   3    -45.6143085 -0.407276E-05  0.109E-02    9.52       1.9  T
   4    -45.6143089 -0.331096E-06  0.487E-03    9.52       4.3  T
   5    -45.6143089 -0.255700E-07  0.160E-03    9.52      13.0  T
   6    -45.6143089 -0.215626E-08  0.844E-04    9.52      24.7  T
speedup  0.87
cpu  time for SCC    0.00 s
wall time for SCC    0.00 s
speedup  0.99
cpu  time for grad    0.01 s
wall time for grad    0.01 s
 E :    -45.36301741  G :  0.009471    pred/act E change: -0.509D-04 -0.329D-04
Maxdispl :   0.0799   ||displ|| :   0.1605   Lambda : -0.176D-03
Largest |displ|/coords:  0.0799 (   2)  0.0606 (   1)  0.0599 (   6)
................................................................................
.............................. CYCLE   46 ......................................
................................................................................
   1    -45.6158972 -0.456159E+02  0.785E-02    9.53       0.0  T
   2    -45.6158986 -0.136198E-05  0.588E-02    9.53       1.0  T
   3    -45.6158998 -0.122004E-05  0.800E-03    9.53       2.6  T
   4    -45.6159000 -0.141446E-06  0.281E-03    9.53       7.4  T
   5    -45.6159000 -0.101121E-07  0.879E-04    9.53      23.7  T
speedup  1.03
cpu  time for SCC    0.00 s
wall time for SCC    0.00 s
speedup  1.05
cpu  time for grad    0.01 s
wall time for grad    0.01 s
 E :    -45.36310758  G :  0.004434    pred/act E change: -0.754D-04 -0.902D-04
Maxdispl :   0.1324   ||displ|| :   0.2423   Lambda : -0.913D-04
Largest |displ|/coords:  0.1324 (   2)  0.1062 (   1)  0.0740 (   3)
................................................................................
.............................. CYCLE   47 ......................................
................................................................................
   1    -45.6151159 -0.456151E+02  0.111E-01    9.53       0.0  T
   2    -45.6151177 -0.178353E-05  0.830E-02    9.53       1.0  T
   3    -45.6151192 -0.151258E-05  0.870E-03    9.53       2.4  T
   4    -45.6151195 -0.208588E-06  0.283E-03    9.53       7.4  T
   5    -45.6151195 -0.803524E-08  0.940E-04    9.53      22.2  T
speedup  1.00
cpu  time for SCC    0.00 s
wall time for SCC    0.00 s
speedup  0.95
cpu  time for grad    0.01 s
wall time for grad    0.01 s
 E :    -45.36314151  G :  0.006340    pred/act E change: -0.901D-04 -0.339D-04
Maxdispl :   0.0795   ||displ|| :   0.1422   Lambda : -0.107D-03
Largest |displ|/coords:  0.0795 (   6)  0.0661 (   3)  0.0485 (   1)
................................................................................
.............................. CYCLE   48 ......................................
................................................................................
   1    -45.6156646 -0.456157E+02  0.698E-02    9.55       0.0  T
   2    -45.6156654 -0.776609E-06  0.525E-02    9.55       1.0  T
   3    -45.6156662 -0.822911E-06  0.621E-03    9.55       3.4  T
   4    -45.6156663 -0.567769E-07  0.196E-03    9.55      10.6  T
   5    -45.6156663 -0.417504E-08  0.628E-04    9.55      33.2  T
speedup  1.03
cpu  time for SCC    0.00 s
wall time for SCC    0.00 s
speedup  1.06
cpu  time for grad    0.01 s
wall time for grad    0.01 s
 E :    -45.36320876  G :  0.003986    pred/act E change: -0.483D-04 -0.673D-04
Maxdispl :   0.2052   ||displ|| :   0.3839   Lambda : -0.123D-03
Largest |displ|/coords:  0.2052 (   2)  0.1698 (   1)  0.1376 (   6)
................................................................................
.............................. CYCLE   49 ......................................
................................................................................
   1    -45.6135980 -0.456136E+02  0.180E-01    9.53       0.0  T
   2    -45.6136035 -0.543586E-05  0.135E-01    9.53       1.0  T
   3    -45.6136085 -0.499317E-05  0.163E-02    9.53       1.3  T
   4    -45.6136090 -0.584471E-06  0.587E-03    9.53       3.5  T
   5    -45.6136091 -0.360060E-07  0.167E-03    9.53      12.5  T
   6    -45.6136091 -0.233213E-08  0.996E-04    9.53      20.9  T
   7    -45.6136091 -0.136650E-08  0.212E-04    9.53      98.5  T
speedup  0.93
cpu  time for SCC    0.00 s
wall time for SCC    0.01 s
speedup  0.98
cpu  time for grad    0.01 s
wall time for grad    0.01 s
 E :    -45.36325305  G :  0.008422    pred/act E change: -0.545D-04 -0.443D-04
Maxdispl :   0.1343   ||displ|| :   0.1906   Lambda : -0.180D-03
Largest |displ|/coords:  0.1343 (   6)  0.0747 (   3)  0.0549 (   4)
................................................................................
.............................. CYCLE   50 ......................................
................................................................................
   1    -45.6171337 -0.456171E+02  0.114E-01    9.54       0.0  T
   2    -45.6171376 -0.381846E-05  0.855E-02    9.54       1.0  T
   3    -45.6171401 -0.250352E-05  0.122E-02    9.55       1.7  T
   4    -45.6171406 -0.559345E-06  0.356E-03    9.55       5.9  T
   5    -45.6171406 -0.202451E-07  0.137E-03    9.55      15.3  T
   6    -45.6171406 -0.173051E-08  0.736E-04    9.55      28.3  T
speedup  0.87
cpu  time for SCC    0.00 s
wall time for SCC    0.00 s
speedup  0.98
cpu  time for grad    0.01 s
wall time for grad    0.01 s
 E :    -45.36328887  G :  0.007657    pred/act E change: -0.704D-04 -0.358D-04
Maxdispl :   0.0630   ||displ|| :   0.1209   Lambda : -0.120D-03
Largest |displ|/coords:  0.0630 (   2)  0.0470 (   1)  0.0407 (   7)
................................................................................
.............................. CYCLE   51 ......................................
................................................................................
   1    -45.6156380 -0.456156E+02  0.659E-02    9.54       0.0  T
   2    -45.6156386 -0.560329E-06  0.495E-02    9.54       1.0  T
   3    -45.6156391 -0.527247E-06  0.468E-03    9.54       4.5  T
   4    -45.6156391 -0.516468E-07  0.169E-03    9.54      12.3  T
   5    -45.6156391 -0.257386E-08  0.520E-04    9.54      40.1  T
speedup  1.00
cpu  time for SCC    0.00 s
wall time for SCC    0.00 s
speedup  0.93
cpu  time for grad    0.01 s
wall time for grad    0.01 s
 E :    -45.36336289  G :  0.004050    pred/act E change: -0.934D-04 -0.740D-04
Maxdispl :   0.0659   ||displ|| :   0.1449   Lambda : -0.490D-04
Largest |displ|/coords:  0.0659 (   6)  0.0638 (   3)  0.0537 (   2)
................................................................................
.............................. CYCLE   52 ......................................
................................................................................
   1    -45.6149472 -0.456149E+02  0.771E-02    9.53       0.0  T
   2    -45.6149480 -0.843430E-06  0.578E-02    9.53       1.0  T
   3    -45.6149488 -0.820825E-06  0.627E-03    9.53       3.3  T
   4    -45.6149489 -0.746048E-07  0.193E-03    9.53      10.8  T
   5    -45.6149489 -0.392370E-08  0.630E-04    9.53      33.1  T
speedup  1.00
cpu  time for SCC    0.00 s
wall time for SCC    0.00 s
speedup  1.05
cpu  time for grad    0.01 s
wall time for grad    0.01 s
 E :    -45.36340063  G :  0.004140    pred/act E change: -0.610D-04 -0.377D-04
Maxdispl :   0.1098   ||displ|| :   0.2056   Lambda : -0.887D-04
Largest |displ|/coords:  0.1098 (   3)  0.1001 (   6)  0.0553 (   7)

generating ANC from model Hessian ...
 Shifting diagonal of input Hessian by   5.049956077185070E-003
 Lowest  eigenvalues of input Hessian
    0.005000   -0.000000   -0.000000   -0.000000   -0.000000   -0.000000
    0.000000    0.005234    0.005554    0.006234    0.006612    0.006960
    0.007539    0.008533    0.009209    0.010962    0.011457    0.014529
 Highest eigenvalues
    1.392741    1.402305    1.425472    2.813996    3.324342    3.557055
 
cpu  time for ANC gen    0.01 s
wall time for ANC gen    0.01 s
................................................................................
.............................. CYCLE   53 ......................................
................................................................................
   1    -45.6148349 -0.456148E+02  0.116E-01    9.53       0.0  T
   2    -45.6148368 -0.196387E-05  0.869E-02    9.53       1.0  T
   3    -45.6148386 -0.177710E-05  0.919E-03    9.53       2.3  T
   4    -45.6148388 -0.202025E-06  0.350E-03    9.53       6.0  T
   5    -45.6148388 -0.884828E-08  0.927E-04    9.53      22.5  T
   6    -45.6148388 -0.827534E-09  0.513E-04    9.53      40.6  T
speedup  0.85
cpu  time for SCC    0.00 s
wall time for SCC    0.00 s
speedup  0.95
cpu  time for grad    0.01 s
wall time for grad    0.01 s
 E :    -45.36346128  G :  0.004499    pred/act E change:  0.000D+00 -0.607D-04
Maxdispl :   0.0312   ||displ|| :   0.0652   Lambda : -0.615D-04
Largest |displ|/coords:  0.0312 (   1)  0.0268 (   9)  0.0248 (   3)
................................................................................
.............................. CYCLE   54 ......................................
................................................................................
   1    -45.6159172 -0.456159E+02  0.460E-02    9.54       0.0  T
   2    -45.6159175 -0.288037E-06  0.347E-02    9.54       1.0  T
   3    -45.6159178 -0.310703E-06  0.303E-03    9.54       6.9  T
   4    -45.6159178 -0.233214E-07  0.130E-03    9.54      16.0  T
   5    -45.6159178 -0.150828E-08  0.346E-04    9.54      60.3  T
speedup  1.00
cpu  time for SCC    0.00 s
wall time for SCC    0.00 s
speedup  1.05
cpu  time for grad    0.01 s
wall time for grad    0.01 s
 E :    -45.36350690  G :  0.002434    pred/act E change:  0.000D+00 -0.456D-04
Maxdispl :   0.1002   ||displ|| :   0.1806   Lambda : -0.100D-03
Largest |displ|/coords:  0.1002 (   1)  0.0732 (   3)  0.0682 (   6)
................................................................................
.............................. CYCLE   55 ......................................
................................................................................
   1    -45.6172543 -0.456173E+02  0.114E-01    9.56       0.0  T
   2    -45.6172557 -0.143670E-05  0.858E-02    9.57       1.0  T
   3    -45.6172572 -0.142885E-05  0.704E-03    9.57       3.0  T
   4    -45.6172573 -0.131606E-06  0.277E-03    9.57       7.5  T
   5    -45.6172573 -0.706336E-08  0.858E-04    9.57      24.3  T
   6    -45.6172573 -0.622258E-09  0.405E-04    9.57      51.5  T
speedup  0.85
cpu  time for SCC    0.00 s
wall time for SCC    0.00 s
speedup  0.86
cpu  time for grad    0.01 s
wall time for grad    0.01 s
 E :    -45.36358263  G :  0.002994    pred/act E change: -0.309D-04 -0.757D-04
Maxdispl :   0.2311   ||displ|| :   0.3961   Lambda : -0.156D-03
Largest |displ|/coords:  0.2311 (   1)  0.1627 (   3)  0.1523 (   6)
................................................................................
.............................. CYCLE   56 ......................................
................................................................................
   1    -45.6158526 -0.456159E+02  0.239E-01    9.57       0.0  T
   2    -45.6158580 -0.533452E-05  0.179E-01    9.57       1.0  T
   3    -45.6158634 -0.547286E-05  0.133E-02    9.57       1.6  T
   4    -45.6158639 -0.460082E-06  0.505E-03    9.57       4.1  T
   5    -45.6158639 -0.186054E-07  0.182E-03    9.57      11.4  T
   6    -45.6158639 -0.349847E-08  0.673E-04    9.57      31.0  T
   7    -45.6158639 -0.904322E-09  0.210E-04    9.57      99.3  T
speedup  1.11
cpu  time for SCC    0.01 s
wall time for SCC    0.01 s
speedup  1.05
cpu  time for grad    0.01 s
wall time for grad    0.01 s
 E :    -45.36369170  G :  0.007919    pred/act E change: -0.519D-04 -0.109D-03
Maxdispl :   0.1916   ||displ|| :   0.2957   Lambda : -0.130D-03
Largest |displ|/coords:  0.1916 (   1)  0.1268 (   3)  0.0943 (   6)
................................................................................
.............................. CYCLE   57 ......................................
................................................................................
   1    -45.6143350 -0.456143E+02  0.165E-01    9.56       0.0  T
   2    -45.6143375 -0.251983E-05  0.124E-01    9.56       1.0  T
   3    -45.6143400 -0.256110E-05  0.965E-03    9.56       2.2  T
   4    -45.6143403 -0.221148E-06  0.336E-03    9.56       6.2  T
   5    -45.6143403 -0.988756E-08  0.122E-03    9.56      17.1  T
   6    -45.6143403 -0.151716E-08  0.541E-04    9.56      38.6  T
speedup  1.09
cpu  time for SCC    0.00 s
wall time for SCC    0.00 s
speedup  1.07
cpu  time for grad    0.01 s
wall time for grad    0.01 s
 E :    -45.36378935  G :  0.010284    pred/act E change: -0.900D-04 -0.976D-04
Maxdispl :   0.2288   ||displ|| :   0.3507   Lambda : -0.362D-03
Largest |displ|/coords:  0.2288 (   1)  0.1499 (   3)  0.1210 (   8)
................................................................................
.............................. CYCLE   58 ......................................
................................................................................
   1    -45.6148922 -0.456149E+02  0.170E-01    9.55       0.0  T
   2    -45.6148955 -0.333062E-05  0.127E-01    9.55       1.0  T
   3    -45.6148988 -0.321967E-05  0.133E-02    9.55       1.6  T
   4    -45.6148991 -0.295467E-06  0.465E-03    9.55       4.5  T
   5    -45.6148991 -0.207429E-07  0.119E-03    9.55      17.5  T
   6    -45.6148991 -0.141591E-08  0.734E-04    9.55      28.4  T
speedup  1.09
cpu  time for SCC    0.00 s
wall time for SCC    0.00 s
speedup  1.07
cpu  time for grad    0.01 s
wall time for grad    0.01 s
 E :    -45.36398998  G :  0.007045    pred/act E change: -0.709D-04 -0.201D-03
Maxdispl :   0.2157   ||displ|| :   0.4041   Lambda : -0.228D-03
Largest |displ|/coords:  0.2157 (   6)  0.2104 (   1)  0.1686 (   3)
................................................................................
.............................. CYCLE   59 ......................................
................................................................................
   1    -45.6111626 -0.456112E+02  0.198E-01    9.48       0.0  T
   2    -45.6111678 -0.522363E-05  0.148E-01    9.48       1.0  T
   3    -45.6111719 -0.413993E-05  0.162E-02    9.48       1.3  T
   4    -45.6111726 -0.644056E-06  0.488E-03    9.48       4.3  T
   5    -45.6111726 -0.249106E-07  0.161E-03    9.48      12.9  T
   6    -45.6111726 -0.345808E-08  0.837E-04    9.48      24.9  T
speedup  1.06
cpu  time for SCC    0.00 s
wall time for SCC    0.00 s
speedup  1.07
cpu  time for grad    0.01 s
wall time for grad    0.01 s
 E :    -45.36404619  G :  0.015024    pred/act E change: -0.203D-03 -0.562D-04
Maxdispl :   0.0405   ||displ|| :   0.0875   Lambda : -0.333D-03
Largest |displ|/coords:  0.0405 (   4)  0.0355 (  11)  0.0292 (   2)
................................................................................
.............................. CYCLE   60 ......................................
................................................................................
   1    -45.6155783 -0.456156E+02  0.680E-02    9.56       0.0  T
   2    -45.6155804 -0.218697E-05  0.499E-02    9.56       1.0  T
   3    -45.6155813 -0.812642E-06  0.108E-02    9.56       1.9  T
   4    -45.6155816 -0.294137E-06  0.310E-03    9.56       6.7  T
   5    -45.6155816 -0.124924E-07  0.754E-04    9.56      27.7  T
   6    -45.6155816 -0.872390E-09  0.402E-04    9.56      51.9  T
speedup  1.06
cpu  time for SCC    0.00 s
wall time for SCC    0.00 s
speedup  1.07
cpu  time for grad    0.01 s
wall time for grad    0.01 s
 E :    -45.36422886  G :  0.007115    pred/act E change: -0.133D-03 -0.183D-03
Maxdispl :   0.1491   ||displ|| :   0.2479   Lambda : -0.186D-03
Largest |displ|/coords:  0.1491 (   1)  0.1266 (   3)  0.0893 (   8)
................................................................................
.............................. CYCLE   61 ......................................
................................................................................
   1    -45.6164163 -0.456164E+02  0.118E-01    9.56       0.0  T
   2    -45.6164187 -0.239635E-05  0.876E-02    9.56       1.0  T
   3    -45.6164201 -0.141141E-05  0.135E-02    9.56       1.5  T
   4    -45.6164205 -0.337805E-06  0.415E-03    9.56       5.0  T
   5    -45.6164205 -0.143987E-07  0.894E-04    9.56      23.3  T
   6    -45.6164205 -0.756522E-09  0.547E-04    9.56      38.1  T
speedup  0.87
cpu  time for SCC    0.00 s
wall time for SCC    0.00 s
speedup  0.98
cpu  time for grad    0.01 s
wall time for grad    0.01 s
 E :    -45.36437245  G :  0.005709    pred/act E change: -0.168D-03 -0.144D-03
Maxdispl :   0.2381   ||displ|| :   0.4681   Lambda : -0.306D-03
Largest |displ|/coords:  0.2381 (   3)  0.2281 (   1)  0.2268 (   6)
................................................................................
.............................. CYCLE   62 ......................................
................................................................................
   1    -45.6161485 -0.456161E+02  0.219E-01    9.55       0.0  T
   2    -45.6161564 -0.782414E-05  0.162E-01    9.55       1.0  T
   3    -45.6161613 -0.498182E-05  0.242E-02    9.55       1.0  T
   4    -45.6161624 -0.102626E-05  0.810E-03    9.55       2.6  T
   5    -45.6161624 -0.526432E-07  0.180E-03    9.55      11.6  T
   6    -45.6161624 -0.306405E-08  0.112E-03    9.55      18.6  T
speedup  0.87
cpu  time for SCC    0.00 s
wall time for SCC    0.00 s
speedup  0.99
cpu  time for grad    0.01 s
wall time for grad    0.01 s
 E :    -45.36454395  G :  0.011068    pred/act E change: -0.988D-04 -0.172D-03
Maxdispl :   0.1300   ||displ|| :   0.2182   Lambda : -0.229D-03
Largest |displ|/coords:  0.1300 (   1)  0.1175 (   3)  0.0720 (   8)
................................................................................
.............................. CYCLE   63 ......................................
................................................................................
   1    -45.6158765 -0.456159E+02  0.127E-01    9.56       0.0  T
   2    -45.6158782 -0.166849E-05  0.952E-02    9.56       1.0  T
   3    -45.6158799 -0.167806E-05  0.101E-02    9.56       2.1  T
   4    -45.6158800 -0.124500E-06  0.350E-03    9.56       5.9  T
   5    -45.6158800 -0.118907E-07  0.945E-04    9.56      22.1  T
   6    -45.6158800 -0.539615E-09  0.580E-04    9.56      35.9  T
speedup  0.87
cpu  time for SCC    0.00 s
wall time for SCC    0.00 s
speedup  0.98
cpu  time for grad    0.01 s
wall time for grad    0.01 s
 E :    -45.36469354  G :  0.011302    pred/act E change: -0.186D-03 -0.150D-03
Maxdispl :   0.1086   ||displ|| :   0.2564   Lambda : -0.598D-03
Largest |displ|/coords:  0.1086 (   3)  0.0984 (   8)  0.0820 (   9)
................................................................................
.............................. CYCLE   64 ......................................
................................................................................
   1    -45.6251296 -0.456251E+02  0.169E-01    9.68       0.0  T
   2    -45.6251458 -0.162198E-04  0.124E-01    9.68       1.0  T
   3    -45.6251523 -0.646629E-05  0.252E-02    9.68       1.0  T
   4    -45.6251545 -0.216815E-05  0.664E-03    9.68       3.1  T
   5    -45.6251545 -0.663534E-07  0.181E-03    9.68      11.5  T
   6    -45.6251545 -0.191199E-08  0.952E-04    9.68      21.9  T
speedup  0.87
cpu  time for SCC    0.00 s
wall time for SCC    0.00 s
speedup  0.98
cpu  time for grad    0.01 s
wall time for grad    0.01 s
 E :    -45.36449967  G :  0.020772    pred/act E change: -0.120D-03  0.194D-03
Maxdispl :   0.1764   ||displ|| :   0.3373   Lambda : -0.100D-02
Largest |displ|/coords:  0.1764 (   1)  0.1572 (   3)  0.1490 (   6)
................................................................................
.............................. CYCLE   65 ......................................
................................................................................
   1    -45.6172341 -0.456172E+02  0.181E-01    9.55       0.0  T
   2    -45.6172401 -0.607414E-05  0.135E-01    9.55       1.0  T
   3    -45.6172445 -0.439994E-05  0.154E-02    9.55       1.4  T
   4    -45.6172453 -0.780846E-06  0.398E-03    9.55       5.2  T
   5    -45.6172453 -0.255719E-07  0.162E-03    9.55      12.9  T
speedup  0.77
cpu  time for SCC    0.00 s
wall time for SCC    0.00 s
speedup  0.96
cpu  time for grad    0.01 s
wall time for grad    0.01 s
 E :    -45.36507579  G :  0.009706    pred/act E change: -0.319D-03 -0.576D-03
Maxdispl :   0.1358   ||displ|| :   0.2567   Lambda : -0.211D-03
Largest |displ|/coords:  0.1358 (   3)  0.1198 (   1)  0.0905 (   4)
................................................................................
.............................. CYCLE   66 ......................................
................................................................................
   1    -45.6154187 -0.456154E+02  0.122E-01    9.52       0.0  T
   2    -45.6154206 -0.195560E-05  0.914E-02    9.52       1.0  T
   3    -45.6154224 -0.179699E-05  0.854E-03    9.52       2.4  T
   4    -45.6154226 -0.202153E-06  0.286E-03    9.52       7.3  T
   5    -45.6154226 -0.105662E-07  0.106E-03    9.52      19.7  T
speedup  0.81
cpu  time for SCC    0.00 s
wall time for SCC    0.00 s
speedup  0.98
cpu  time for grad    0.01 s
[...]
speedup  1.00
cpu  time for SCC    0.00 s
wall time for SCC    0.00 s
speedup  1.01
cpu  time for grad    0.01 s
wall time for grad    0.01 s
 E :    -45.36715207  G :  0.000542    pred/act E change: -0.155D-05 -0.124D-05
Maxdispl :   0.0551   ||displ|| :   0.0634   Lambda : -0.153D-05
Largest |displ|/coords:  0.0551 (   2)  0.0172 (   3)  0.0136 (   1)
................................................................................
.............................. CYCLE  105 ......................................
................................................................................
   1    -45.6224787 -0.456225E+02  0.294E-02    9.51       0.0  T
   2    -45.6224788 -0.752394E-07  0.221E-02    9.51       1.0  T
   3    -45.6224789 -0.778187E-07  0.200E-03    9.51      10.4  T
   4    -45.6224789 -0.820975E-08  0.752E-04    9.51      27.7  T
   5    -45.6224789 -0.620958E-09  0.249E-04    9.51      83.7  T
speedup  1.03
cpu  time for SCC    0.00 s
wall time for SCC    0.00 s
speedup  1.02
cpu  time for grad    0.01 s
wall time for grad    0.01 s
 E :    -45.36715297  G :  0.000353    pred/act E change: -0.832D-06 -0.906D-06
Maxdispl :   0.0049   ||displ|| :   0.0082   Lambda : -0.512D-06
Largest |displ|/coords:  0.0049 (   1)  0.0024 (  12)  0.0023 (  16)
................................................................................
.............................. CYCLE  106 ......................................
................................................................................
   1    -45.6225321 -0.456225E+02  0.576E-03    9.51       0.0  T
   2    -45.6225321 -0.914608E-08  0.424E-03    9.51       4.9  T
   3    -45.6225321 -0.546419E-08  0.755E-04    9.51      27.6  T
   4    -45.6225321 -0.107406E-08  0.199E-04    9.51     104.8  T
speedup  1.21
cpu  time for SCC    0.00 s
wall time for SCC    0.00 s
speedup  0.98
cpu  time for grad    0.01 s
wall time for grad    0.01 s
 E :    -45.36715327  G :  0.000417    pred/act E change: -0.767D-06 -0.298D-06
Maxdispl :   0.0296   ||displ|| :   0.0371   Lambda : -0.590D-06
Largest |displ|/coords:  0.0296 (   2)  0.0128 (   1)  0.0124 (   3)
................................................................................
.............................. CYCLE  107 ......................................
................................................................................
   1    -45.6224392 -0.456224E+02  0.181E-02    9.51       0.0  T
   2    -45.6224393 -0.261282E-07  0.137E-02    9.51       1.5  T
   3    -45.6224393 -0.338719E-07  0.106E-03    9.51      19.6  T
   4    -45.6224393 -0.168273E-08  0.430E-04    9.51      48.5  T
   5    -45.6224393 -0.210306E-09  0.135E-04    9.51     154.1  T
speedup  1.00
cpu  time for SCC    0.00 s
wall time for SCC    0.00 s
speedup  0.92
cpu  time for grad    0.01 s
wall time for grad    0.01 s
 E :    -45.36715365  G :  0.000396    pred/act E change: -0.256D-06 -0.376D-06
Maxdispl :   0.0099   ||displ|| :   0.0143   Lambda : -0.495D-06
Largest |displ|/coords:  0.0099 (   1)  0.0056 (   3)  0.0046 (   2)
................................................................................
.............................. CYCLE  108 ......................................
................................................................................
   1    -45.6224471 -0.456224E+02  0.766E-03    9.51       0.0  T
   2    -45.6224471 -0.624677E-08  0.570E-03    9.51       3.7  T
   3    -45.6224471 -0.406212E-08  0.757E-04    9.51      27.6  T
   4    -45.6224471 -0.888946E-09  0.274E-04    9.51      76.1  T
speedup  0.94
cpu  time for SCC    0.00 s
wall time for SCC    0.00 s
speedup  0.99
cpu  time for grad    0.01 s
wall time for grad    0.01 s
 E :    -45.36715400  G :  0.000324    pred/act E change: -0.296D-06 -0.353D-06
Maxdispl :   0.0107   ||displ|| :   0.0152   Lambda : -0.433D-06
Largest |displ|/coords:  0.0107 (   1)  0.0064 (   3)  0.0042 (   6)
................................................................................
.............................. CYCLE  109 ......................................
................................................................................
   1    -45.6224740 -0.456225E+02  0.857E-03    9.51       0.0  T
   2    -45.6224740 -0.800351E-08  0.637E-03    9.51       3.3  T
   3    -45.6224740 -0.706397E-08  0.847E-04    9.51      24.6  T
   4    -45.6224740 -0.827946E-09  0.288E-04    9.51      72.5  T
speedup  0.94
cpu  time for SCC    0.00 s
wall time for SCC    0.00 s
speedup  0.99
cpu  time for grad    0.01 s
wall time for grad    0.01 s
 E :    -45.36715430  G :  0.000246    pred/act E change: -0.247D-06 -0.303D-06
Maxdispl :   0.0112   ||displ|| :   0.0171   Lambda : -0.296D-06
Largest |displ|/coords:  0.0112 (   1)  0.0079 (   3)  0.0077 (   2)
................................................................................
.............................. CYCLE  110 ......................................
................................................................................
   1    -45.6224931 -0.456225E+02  0.918E-03    9.51       0.0  T
   2    -45.6224931 -0.676489E-08  0.687E-03    9.51       3.0  T
   3    -45.6224931 -0.653863E-08  0.656E-04    9.51      31.8  T
   4    -45.6224931 -0.726651E-09  0.243E-04    9.51      85.7  T
speedup  0.94
cpu  time for SCC    0.00 s
wall time for SCC    0.00 s
speedup  0.99
cpu  time for grad    0.01 s
wall time for grad    0.01 s
 E :    -45.36715451  G :  0.000182    pred/act E change: -0.217D-06 -0.212D-06
Maxdispl :   0.0135   ||displ|| :   0.0209   Lambda : -0.250D-06
Largest |displ|/coords:  0.0135 (   2)  0.0099 (   1)  0.0099 (   3)
................................................................................
.............................. CYCLE  111 ......................................
................................................................................
   1    -45.6225334 -0.456225E+02  0.106E-02    9.51       0.0  T
   2    -45.6225334 -0.110556E-07  0.799E-03    9.51       2.6  T
   3    -45.6225334 -0.114740E-07  0.639E-04    9.51      32.6  T
   4    -45.6225334 -0.122596E-08  0.310E-04    9.51      67.3  T
speedup  0.94
cpu  time for SCC    0.00 s
wall time for SCC    0.00 s
speedup  0.99
cpu  time for grad    0.01 s
wall time for grad    0.01 s
 E :    -45.36715469  G :  0.000155    pred/act E change: -0.148D-06 -0.178D-06
Maxdispl :   0.0114   ||displ|| :   0.0177   Lambda : -0.184D-06
Largest |displ|/coords:  0.0114 (   2)  0.0087 (   3)  0.0077 (   1)
................................................................................
.............................. CYCLE  112 ......................................
................................................................................
   1    -45.6225461 -0.456225E+02  0.835E-03    9.51       0.0  T
   2    -45.6225461 -0.619391E-08  0.628E-03    9.51       3.3  T
   3    -45.6225461 -0.696770E-08  0.481E-04    9.51      43.3  T
   4    -45.6225461 -0.615550E-09  0.213E-04    9.51      97.7  T
speedup  1.21
cpu  time for SCC    0.00 s
wall time for SCC    0.00 s
speedup  1.08
cpu  time for grad    0.01 s
wall time for grad    0.01 s
 E :    -45.36715484  G :  0.000190    pred/act E change: -0.125D-06 -0.145D-06
Maxdispl :   0.0191   ||displ|| :   0.0273   Lambda : -0.221D-06
Largest |displ|/coords:  0.0191 (   2)  0.0136 (   3)  0.0091 (   1)

generating ANC from model Hessian ...
 Shifting diagonal of input Hessian by   5.092528494846526E-003
 Lowest  eigenvalues of input Hessian
    0.005000   -0.000000   -0.000000    0.000000    0.000000    0.000000
    0.000000    0.005313    0.005776    0.006090    0.006307    0.006785
    0.007511    0.008700    0.009742    0.010618    0.012437    0.013585
 Highest eigenvalues
    1.394636    1.402910    1.501250    2.752121    3.417216    3.504105
 
cpu  time for ANC gen    0.01 s
wall time for ANC gen    0.01 s
................................................................................
.............................. CYCLE  113 ......................................
................................................................................
   1    -45.6225507 -0.456226E+02  0.124E-02    9.51       0.0  T
   2    -45.6225507 -0.147044E-07  0.936E-03    9.51       2.2  T
   3    -45.6225508 -0.182352E-07  0.751E-04    9.51      27.8  T
   4    -45.6225508 -0.115791E-08  0.314E-04    9.51      66.5  T
speedup  0.94
cpu  time for SCC    0.00 s
wall time for SCC    0.00 s
speedup  0.97
cpu  time for grad    0.01 s
wall time for grad    0.01 s
 E :    -45.36715500  G :  0.000221    pred/act E change:  0.000D+00 -0.166D-06
Maxdispl :   0.0016   ||displ|| :   0.0025   Lambda : -0.111D-06
Largest |displ|/coords:  0.0016 (   5)  0.0012 (   6)  0.0009 (   4)
................................................................................
.............................. CYCLE  114 ......................................
................................................................................
   1    -45.6225390 -0.456225E+02  0.188E-03    9.51       0.0  T
   2    -45.6225390 -0.953904E-09  0.140E-03    9.51      14.9  T
   3    -45.6225390 -0.719247E-09  0.274E-04    9.51      76.2  T
   4    -45.6225390 -0.127905E-09  0.802E-05    9.51     260.0  T
speedup  0.91
cpu  time for SCC    0.00 s
wall time for SCC    0.00 s
speedup  0.98
cpu  time for grad    0.01 s
wall time for grad    0.01 s
 E :    -45.36715508  G :  0.000117    pred/act E change:  0.000D+00 -0.825D-07
Maxdispl :   0.0026   ||displ|| :   0.0051   Lambda : -0.143D-06
Largest |displ|/coords:  0.0026 (   5)  0.0024 (   4)  0.0017 (   3)

   *** GEOMETRY OPTIMIZATION CONVERGED AFTER 114 ITERATIONS ***

------------------------------------------------------------------------
 total energy gain (kcal):     -0.0001
------------------------------------------------------------------------
================
 final structure:
================
$coord
        0.88754618589720        1.30181662100977        0.56217622017353      S 
       -0.98607321484892        2.40787413726782       -1.10977362020561      O 
        3.14140811628354        0.44294820760448       -0.79597232257755      O 
       -0.18268548521560       -0.74564131526962        2.09118662393375      O 
        1.84070499613988        3.38057259492812        2.41137895184155      O 
        0.42227226775819        3.86868671271002        3.54519976246533      H 
        1.24451978417778       -3.11381731227881        1.54333812912235      H 
       -5.11381105958109        3.79717533062989        1.24858330195339      O 
       -5.84951913489170        5.03884890869532        0.15222956310929      H 
       -3.66389139144182        3.09330289924711        0.31359988782165      H 
        0.42127394849166       -1.04007380392179       -4.76405442783226      O 
        1.74758765855009       -0.40273974864008       -3.65139554870111      H 
       -1.00482777361313       -0.00518542793073       -4.30226027335222      H 
        0.61786199921885       -5.89600407896915       -3.61392139817865      O 
        0.29458021677997       -4.13468440359319       -4.16285472211493      H 
        1.46964996266583       -6.69521108086229       -4.99851522977785      H 
       -2.02852668921212        4.91752896591001        5.06848646106193      O 
       -3.39282533929001        4.40641783717781        3.91054303329054      H 
       -2.01428175511319        6.73118787467058        5.08365024592718      H 
        2.72973289003033       -4.19813806941601        0.62569823715865      N 
        3.73155421235929       -2.65230166018027       -0.08394822677882      H 
        1.95050168586746       -5.20485723898784       -0.90000952926774      H 
        3.73724788093934       -5.29770594979681        1.82663488089372      H 
$end
 
 Bond Distances (Angstroems)
 ---------------------------
S1-O2=1.4520         S1-O3=1.4648         S1-O4=1.4661         S1-O5=1.5563         O2-S1=1.4520         O3-S1=1.4648         
O4-S1=1.4661         O5-S1=1.5563         O5-H6=0.9950         H6-O5=0.9950         H7-N20=1.0875        O8-H9=0.9591         
O8-H10=0.9860        H9-O8=0.9591         H10-O8=0.9860        O11-H12=0.9762       O11-H13=0.9639       H12-O11=0.9762       
H13-O11=0.9639       O14-H15=0.9911       O14-H16=0.9586       H15-O14=0.9911       H16-O14=0.9586       O17-H18=0.9848       
O17-H19=0.9598       H18-O17=0.9848       H19-O17=0.9598       N20-H7=1.0875        N20-H21=1.0446       N20-H22=1.0515       
N20-H23=1.0133       H21-N20=1.0446       H22-N20=1.0515       H23-N20=1.0133       
 N  H  Rav=1.0492 sigma=0.0264  Rmin=1.0133  Rmax=1.0875     4
 O  H  Rav=0.9750 sigma=0.0140  Rmin=0.9586  Rmax=0.9950     9
 S  O  Rav=1.4848 sigma=0.0416  Rmin=1.4520  Rmax=1.5563     4
 
 selected bond angles (degree)
 --------------------
O3-S1-O2=112.46                O4-S1-O2=111.74                O4-S1-O3=110.86                O5-S1-O2=108.63                
O5-S1-O3=105.30                O5-S1-O4=107.49                H6-O5-S1=108.55                H10-O8-H9=105.73               
 
 selected dihedral angles (degree)
 ---------------------------------
H6-O5-S1-O2= 66.80            H6-O5-S1-O3=187.48            H6-O5-S1-O4=305.72            
 
 CMA Distance (Angstroems)
 ---------------------------
R(CMA):  1.3653

========================================================================
 FINAL SINGLEPOINT CALCULATION ON OPTIMIZED GEOMETRY
========================================================================

 Ncao       : 59
 Nao        : 58
 Nshell     : 34
 Nel        : 72
 T(el)      :   300.0
 intcut     :    25.0
 scfconv/Eh :  0.100E-05
   qconv/e  :  0.100E-03
 intneglect :  0.100E-07
 broydamp   :      0.250
 iter      E             dE          RMSdq      gap      omega  full diag
   1    -45.6225390 -0.456225E+02  0.304E-05    9.51       0.0  T
   2    -45.6225390 -0.540012E-12  0.197E-05    9.51    1058.3  T
   3    -45.6225390 -0.440536E-12  0.523E-06    9.51    3986.9  T
speedup  1.25
cpu  time for SCC    0.00 s
wall time for SCC    0.00 s

   *** convergence criteria satisfied after 3 iterations ***

          eigenvalues
 #    :          24         25         26         27         28         29         30         31
 occ. :        2.000      2.000      2.000      2.000      2.000      2.000      2.000      2.000
 eps  :       -13.659    -13.427    -12.831    -12.437    -12.308    -12.044    -12.015    -11.978
 #    :          32         33         34         35         36         37         38         39
 occ. :        2.000      2.000      2.000      2.000      2.000      0.000      0.000      0.000
 eps  :       -11.889    -11.774    -11.718    -11.667    -11.490     -1.978     -0.714      0.055
 #    :          40         41         42         43         44         45         46         47
 occ. :        0.000      0.000      0.000      0.000      0.000      0.000      0.000      0.000
 eps  :         0.742      1.406      1.647      1.955      3.604      3.785      4.626      5.468


   #   Z            q   n(s)   n(p)   n(d)      C6AA      α(0)
   1  16 S      1.663  1.589  1.798  0.951    89.615    15.933
   2   8 O     -0.742  1.768  4.974  0.000    29.879     7.329
   3   8 O     -0.747  1.766  4.981  0.000    30.033     7.348
   4   8 O     -0.738  1.773  4.965  0.000    29.738     7.312
   5   8 O     -0.616  1.757  4.859  0.000    25.550     6.824
   6   1 H      0.379  0.621  0.000  0.000     0.523     1.134
   7   1 H      0.307  0.693  0.000  0.000     0.691     1.302
   8   8 O     -0.616  1.748  4.868  0.000    25.586     6.827
   9   1 H      0.284  0.716  0.000  0.000     0.771     1.379
  10   1 H      0.326  0.674  0.000  0.000     0.649     1.266
  11   8 O     -0.613  1.739  4.874  0.000    25.496     6.815
  12   1 H      0.314  0.686  0.000  0.000     0.682     1.297
  13   1 H      0.305  0.695  0.000  0.000     0.706     1.319
  14   8 O     -0.609  1.745  4.864  0.000    25.405     6.803
  15   1 H      0.338  0.662  0.000  0.000     0.617     1.234
  16   1 H      0.287  0.713  0.000  0.000     0.762     1.371
  17   8 O     -0.602  1.754  4.849  0.000    25.245     6.781
  18   1 H      0.339  0.661  0.000  0.000     0.615     1.232
  19   1 H      0.292  0.708  0.000  0.000     0.747     1.357
  20   7 N     -0.352  1.271  4.081  0.000    29.046     8.005
  21   1 H      0.279  0.721  0.000  0.000     0.779     1.383
  22   1 H      0.294  0.706  0.000  0.000     0.733     1.341
  23   1 H      0.231  0.769  0.000  0.000     0.960     1.535

 Mol. C6AA /au·bohr⁶  :       4501.873601
 Mol. C8AA /au·bohr⁸  :      99178.268874
 Mol. α(0) /au        :         97.126129

 
 Wiberg/Mayer (AO) data. WBOs > 0.1 written file <wbo>
 largest (>0.05) Wiberg bond orders for each atom
           total WBO             WBO to atom ...
     1  S   4.859    O    2 1.311    O    3 1.285    O    4 1.258    O    5 0.964
     2  O   1.724    S    1 1.311    O    4 0.105    O    3 0.101    O    5 0.085    H   10 0.069
     3  O   1.732    S    1 1.285    O    4 0.105    O    2 0.101    H   21 0.065    O    5 0.062
     4  O   1.753    S    1 1.258    H    7 0.148    O    3 0.105    O    2 0.105    O    5 0.078    N   20 0.057
     5  O   1.968    S    1 0.964    H    6 0.735    O    2 0.085    O    4 0.078    O    3 0.062
     6  H   0.857    O    5 0.735    O   17 0.104
     7  H   0.906    N   20 0.748    O    4 0.148
     8  O   1.863    H    9 0.914    H   10 0.822    H   18 0.063
     9  H   0.919    O    8 0.914
    10  H   0.894    O    8 0.822    O    2 0.069
    11  O   1.882    H   13 0.889    H   12 0.848    H   15 0.077
    12  H   0.902    O   11 0.848
    13  H   0.907    O   11 0.889
    14  O   1.898    H   16 0.913    H   15 0.808    H   22 0.094
    15  H   0.886    O   14 0.808    O   11 0.077
    16  H   0.918    O   14 0.913
    17  O   1.911    H   19 0.913    H   18 0.820    H    6 0.104
    18  H   0.885    O   17 0.820    O    8 0.063
    19  H   0.915    O   17 0.913
    20  N   3.511    H   23 0.942    H   21 0.849    H   22 0.816    H    7 0.748    O    4 0.057
    21  H   0.922    N   20 0.849    O    3 0.065
    22  H   0.914    N   20 0.816    O   14 0.094
    23  H   0.947    N   20 0.942
 MOs/occ written to file <molden.input>
 
molecular dipole:
                 x           y           z       tot (Debye)
 q only:        0.831      -1.619       0.007
   full:        0.841      -0.899      -0.157       3.155
molecular quadrupole (traceless):
                xx          xy          yy          xz          yz          zz
 q only:       -5.241     -18.323      15.573       3.557       2.573     -10.332
  q+dip:       -5.334     -20.908      17.883       4.882       2.518     -12.549
   full:       -5.477     -21.332      18.134       4.824       2.885     -12.658

SCC energy    :     -45.6225390
rep           :       0.2553163
ES            :       0.2396316
AES           :      -0.0658337
AXC           :      -0.0085161
disp          :      -0.0161152
XB            :       0.0000000
fix           :       0.0000000
total E       :     -45.3671551
atomizationE  :       4.4502176     2792.55
(atE without considering molecular charge,
 total energy contains solvation terms)
H-L gap (eV)  :          9.5121
optimized geometry written to: xtbopt.xyz


------------------------------------------------------------------------
 * finished run on 2019/09/16 at 12:19:18.139     
------------------------------------------------------------------------
 total:
 * wall-time:     0 d,  0 h,  0 min,  2.235 sec
 *  cpu-time:     0 d,  0 h,  0 min,  2.150 sec
 * ratio c/w:     0.962 speedup
 SCF:
 * wall-time:     0 d,  0 h,  0 min,  0.125 sec
 *  cpu-time:     0 d,  0 h,  0 min,  0.122 sec
 * ratio c/w:     0.978 speedup
 ANC optimizer:
 * wall-time:     0 d,  0 h,  0 min,  2.086 sec
 *  cpu-time:     0 d,  0 h,  0 min,  2.006 sec
 * ratio c/w:     0.961 speedup

