      -----------------------------------------------------------      
     |                   =====================                   |     
     |                           x T B                           |     
     |                   =====================                   |     
     |                         S. Grimme                         |     
     |          Mulliken Center for Theoretical Chemistry        |     
     |                    University of Bonn                     |     
     |                 Version 6.0.1 (SAW181210)                 |     
      -----------------------------------------------------------      

   This program is distributed in the hope that it will be useful,
   but WITHOUT ANY WARRANTY; without even the implied warranty of
   MERCHANTABILITY or FITNESS FOR A PARTICULAR PURPOSE.
   
   FOR NON-COMMERCIAL, ACADEMIA USE ONLY.
   
   Cite this work as:
   S. Grimme, C. Bannwarth, P. Shushkov, J. Comput. Theory Chem., 2017,
   13, 1989-2009.
   C. Bannwarth, S. Ehlert and S. Grimme., ChemRxiv, 2018, preprint.
   http://doi.org/10.26434/chemrxiv.7246238.v1
   
   for sTDA-xTB:
   S. Grimme and C. Bannwarth, J. Chem. Phys., 2016, 145, 054103.
   
   in the mass-spec context:
   V. Asgeirsson, C. Bauer and S. Grimme, Chem. Sci., 2017, 8, 4879.
   
   if GBSA is used:
   P. Shushkov, F. März and S. Grimme, unpublished.
   
   for ANC optimizer:
   S. Grimme, unpublished.
   Rational Function algorithm used in ANCopt:
   F. Eckert, P. Pulay, H.-J. Werner, J. Comput. Chem., 1997, 18, 1473.
   
   with help from (in alphabetical order)
   C. Bannwarth, F. Bohle, G. Brandenburg, E. Caldeweyher, M. Checinski,
   S. Dohm, S. Ehlert, S. Ehrlich, F. März, H. Neugebauer, J. Pisarek,
   P. Pracht, P. Shushkov, and S. Spicher.
   
 * started run on 2019/09/16 at 12:45:39.736     
========================================================================
 # omp threads = 1
========================================================================
number of atoms            : 26
number of electrons        : 80
charge                     : 0
spin                       : .0
first test random number   : .0224

########################################################################
# WARNING! Please study the warnings concerning your input carefully
#  - XTBPATH is not set, using XTBHOME instead
#  - the use of '-opt' is discouraged, please use '--opt' next time
#  - the use of '-chrg' is discouraged, please use '--chrg' next time
#  - the use of '-uhf' is discouraged, please use '--uhf' next time
########################################################################

           ------------------------------------------------- 
          |                 G F N 2 - x T B                 |
          | Geometry, Frequencies, Noncovalent interactions |
          |            JCTC 2018 parametrisation            |
           ------------------------------------------------- 
      method parameters     
 k(s)        :  1.8500
 k(p)        :  2.2300
 k(d)        :  2.2300
 k(f)        :  2.0000
 kEN (H0ij)  : -2.0000
 D4 a1       :  0.5200
 D4 a2       :  5.0000
 D4 s6       :  1.0000
 D4 s8       :  2.7000
 D4 s9       :  5.0000
 alphaj      :  2.0000


            Z     q(EN)     CN     RAES       Cart. coordinates
     1  S   6.0    0.61    4.53    4.60    -0.68085     5.74758    -0.83714
     2  O   6.0   -0.30    1.16    1.80    -1.43821     4.33551    -3.15243
     3  O   6.0   -0.30    1.16    1.80     2.00554     5.17016    -0.22232
     4  O   6.0   -0.27    2.13    1.84    -2.30109     4.98314     1.28488
     5  O   6.0   -0.25    2.08    1.84    -0.96323     8.47428    -1.28198
     6  H   1.0    0.14    1.22    1.47    -2.14449     9.16321    -0.08988
     7  H   1.0    0.19    1.39    1.54    -2.11722     3.20201     1.57615
     8  O   6.0   -0.37    1.41    1.80    -1.45969    -6.00003     3.42469
     9  H   1.0    0.18    0.94    1.42    -1.99535    -7.45213     4.46787
    10  O   6.0   -0.40    1.58    1.80     2.20728    -3.40925    -1.62250
    11  H   1.0    0.18    0.94    1.42     3.11933    -4.90437    -2.26788
    12  O   6.0   -0.39    1.56    1.80    -1.76897     0.42666     1.95718
    13  H   1.0    0.17    0.95    1.42    -2.94723     0.24372     3.39314
    14  O   6.0   -0.23    2.97    2.71     1.56183    -2.65052     2.88784
    15  H   1.0    0.16    1.15    1.45     0.61755    -4.12732     3.53378
    16  H   1.0    0.16    1.12    1.45     2.33844    -2.98938     1.22289
    17  H   1.0    0.16    1.11    1.45     0.51313    -1.10412     2.86800
    18  O   6.0   -0.23    2.97    2.71    -2.22582    -3.56901    -0.33565
    19  H   1.0    0.16    1.15    1.45    -2.32545    -4.84149     1.02842
    20  H   1.0    0.16    1.11    1.45    -2.50035    -1.83492     0.30279
    21  H   1.0    0.16    1.12    1.45    -0.63799    -3.71159    -1.31031
    22  N   5.0   -0.14    3.97    2.78     2.62857     0.96957    -3.36551
    23  H   1.0    0.09    0.99    1.43     3.88365     1.00749    -4.85136
    24  H   1.0    0.11    1.02    1.43     0.88200     1.57011    -3.97649
    25  H   1.0    0.13    1.18    1.46     2.48739    -0.84632    -2.68211
    26  H   1.0    0.11    1.02    1.43     3.26123     2.14701    -1.95206

  Z AO/shell   Hii/eV     exponent
  1     Wed Apr 25 08:07:45 CEST 2018   EN: 2.200 GM2: 0.406  GM3: 0.0800  RAES: 1.40
     1s    -10.707211    1.230000
  7     Wed Apr 25 08:07:45 CEST 2018   EN: 3.040 GM2: 0.461  GM3:-0.0640  RAES: 1.90
     2s    -16.686243    2.339881
     2p    -12.523956    2.014332
  8     Wed Apr 25 08:07:45 CEST 2018   EN: 3.440 GM2: 0.452  GM3:-0.0517  RAES: 1.80
     2s    -20.229985    2.439742
     2p    -15.503117    2.137023
 16     Tue Apr 24 11:44:34 CEST 2018   EN: 2.580 GM2: 0.340  GM3:-0.0502  RAES: 3.10
     3s    -20.029654    1.981333
     3p    -11.377694    2.025643
     3d     -0.420282    1.702555
 no old-style atom pair restraining (fixing) potential

molecular fragmentation (1/2 indicates fragments):
11111112222222222222222222
# atoms in fragment 1/2:     7    19
 fragment masses (1/2) :       98.07      107.11
CMA distance (Bohr)    :   8.298
constraining FC (au)   :  0.0500
           ------------------------------------------------- 
          |        Self-Consistent Charge Iterations        |
           ------------------------------------------------- 

 Ncao       : 65
 Nao        : 64
 Nshell     : 38
 Nel        : 80
 T(el)      :   300.0
 intcut     :    25.0
 scfconv/Eh :  0.100E-05
   qconv/e  :  0.100E-03
 intneglect :  0.100E-07
 broydamp   :      0.250
 iter      E             dE          RMSdq      gap      omega  full diag
   1    -50.4626043 -0.504626E+02  0.715E+00   10.58       0.0  T
   2    -50.5231947 -0.605904E-01  0.518E+00    9.15       1.0  T
   3    -50.5680345 -0.448398E-01  0.146E+00    4.59       1.0  T
   4    -50.5746015 -0.656697E-02  0.634E-01    4.80       1.0  T
   5    -50.5752391 -0.637582E-03  0.379E-01    4.63       1.0  T
   6    -50.5759469 -0.707840E-03  0.162E-01    4.78       1.0  T
   7    -50.5761159 -0.168938E-03  0.571E-02    4.84       1.0  T
   8    -50.5761308 -0.149840E-04  0.358E-02    4.84       1.0  T
   9    -50.5761390 -0.817938E-05  0.115E-02    4.85       1.7  T
  10    -50.5761399 -0.864364E-06  0.253E-03    4.86       7.7  T
  11    -50.5761399 -0.283073E-07  0.125E-03    4.86      15.7  T
  12    -50.5761399 -0.425049E-08  0.405E-04    4.86      48.4  T
  13    -50.5761399 -0.906006E-09  0.143E-04    4.86     136.9  T
speedup  0.94
cpu  time for SCC    0.01 s
wall time for SCC    0.01 s

   *** convergence criteria satisfied after 13 iterations ***

          eigenvalues
 #    :          28         29         30         31         32         33         34         35
 occ. :        2.000      2.000      2.000      2.000      2.000      2.000      2.000      2.000
 eps  :       -12.823    -12.599    -12.562    -12.486    -12.281    -11.988    -10.715    -10.221
 #    :          36         37         38         39         40         41         42         43
 occ. :        2.000      2.000      2.000      2.000      2.000      0.000      0.000      0.000
 eps  :       -10.183    -10.097     -9.997     -8.148     -7.708     -2.849     -1.727     -0.857
 #    :          44         45         46         47         48         49         50         51
 occ. :        0.000      0.000      0.000      0.000      0.000      0.000      0.000      0.000
 eps  :        -0.419      0.330      0.779      3.256      3.655      3.833      4.142      4.148


   #   Z            q   n(s)   n(p)   n(d)      C6AA      α(0)
   1  16 S      1.675  1.576  1.798  0.951    89.339    15.908
   2   8 O     -0.716  1.770  4.946  0.000    29.154     7.239
   3   8 O     -0.716  1.770  4.946  0.000    29.154     7.239
   4   8 O     -0.596  1.723  4.873  0.000    25.049     6.756
   5   8 O     -0.532  1.716  4.816  0.000    23.589     6.557
   6   1 H      0.380  0.620  0.000  0.000     0.515     1.123
   7   1 H      0.411  0.589  0.000  0.000     0.457     1.058
   8   8 O     -0.909  1.817  5.092  0.000    35.072     7.940
   9   1 H      0.153  0.847  0.000  0.000     1.400     1.859
  10   8 O     -0.854  1.823  5.032  0.000    33.280     7.735
  11   1 H      0.199  0.801  0.000  0.000     1.125     1.667
  12   8 O     -0.867  1.850  5.017  0.000    33.702     7.783
  13   1 H      0.213  0.787  0.000  0.000     1.055     1.614
  14   8 O     -0.493  1.671  4.822  0.000    22.675     6.431
  15   1 H      0.399  0.601  0.000  0.000     0.484     1.091
  16   1 H      0.382  0.618  0.000  0.000     0.517     1.129
  17   1 H      0.383  0.617  0.000  0.000     0.516     1.127
  18   8 O     -0.493  1.671  4.822  0.000    22.675     6.431
  19   1 H      0.399  0.601  0.000  0.000     0.484     1.091
  20   1 H      0.383  0.617  0.000  0.000     0.516     1.127
  21   1 H      0.382  0.618  0.000  0.000     0.517     1.129
  22   7 N     -0.303  1.256  4.047  0.000    27.787     7.829
  23   1 H      0.237  0.763  0.000  0.000     0.935     1.515
  24   1 H      0.279  0.721  0.000  0.000     0.781     1.384
  25   1 H      0.326  0.674  0.000  0.000     0.638     1.250
  26   1 H      0.279  0.721  0.000  0.000     0.781     1.384

 Mol. C6AA /au·bohr⁶  :       5553.816583
 Mol. C8AA /au·bohr⁸  :     120184.304717
 Mol. α(0) /au        :        107.397874

 
 Wiberg/Mayer (AO) data. WBOs > 0.1 written file <wbo>
 largest (>0.05) Wiberg bond orders for each atom
           total WBO             WBO to atom ...
     1  S   4.845    O    2 1.348    O    3 1.348    O    4 1.088    O    5 1.023
     2  O   1.701    S    1 1.348    O    3 0.137    O    4 0.094    O    5 0.073
     3  O   1.701    S    1 1.348    O    2 0.137    O    4 0.094    O    5 0.073
     4  O   2.009    S    1 1.088    H    7 0.624    O    2 0.094    O    3 0.094    O    5 0.051    O   12 0.051
     5  O   2.060    S    1 1.023    H    6 0.831    O    2 0.073    O    3 0.073    O    4 0.051
     6  H   0.856    O    5 0.831
     7  H   0.831    O    4 0.624    O   12 0.185
     8  O   1.400    H    9 0.952    H   19 0.166    H   15 0.166    O   18 0.052    O   14 0.052
     9  H   0.977    O    8 0.952
    10  O   1.596    H   11 0.949    H   25 0.179    H   21 0.141    H   16 0.141    N   22 0.073    O   18 0.051    O   14 0.050
    11  H   0.960    O   10 0.949
    12  O   1.593    H   13 0.954    H    7 0.185    H   17 0.139    H   20 0.139    O    4 0.051    O   14 0.050    O   18 0.050
    13  H   0.955    O   12 0.954
    14  O   2.255    H   17 0.707    H   16 0.707    H   15 0.667    O    8 0.052    O   10 0.050    O   12 0.050
    15  H   0.841    O   14 0.667    O    8 0.166
    16  H   0.854    O   14 0.707    O   10 0.141
    17  H   0.853    O   14 0.707    O   12 0.139
    18  O   2.255    H   20 0.708    H   21 0.707    H   19 0.667    O    8 0.052    O   10 0.051    O   12 0.050
    19  H   0.841    O   18 0.667    O    8 0.166
    20  H   0.853    O   18 0.708    O   12 0.139
    21  H   0.854    O   18 0.707    O   10 0.141
    22  N   3.542    H   23 0.940    H   24 0.890    H   26 0.890    H   25 0.710    O   10 0.073
    23  H   0.944    N   22 0.940
    24  H   0.922    N   22 0.890
    25  H   0.894    N   22 0.710    O   10 0.179
    26  H   0.922    N   22 0.890
 MOs/occ written to file <molden.input>
 
molecular dipole:
                 x           y           z       tot (Debye)
 q only:        0.938       2.576      -1.836
   full:        0.523       2.667      -1.374       7.742
molecular quadrupole (traceless):
                xx          xy          yy          xz          yz          zz
 q only:        4.823     -10.823      -5.246      -6.233      13.331       0.423
  q+dip:        1.111     -14.623       1.815     -10.324      13.473      -2.926
   full:        0.594     -14.774       2.515     -11.137      13.095      -3.109

SCC energy    :     -50.5761399
rep           :       0.2810714
ES            :       0.3562640
AES           :      -0.0653898
AXC           :      -0.0076514
disp          :      -0.0177463
XB            :       0.0000000
fix           :       0.0000000
total E       :     -50.2948769
atomizationE  :       4.8251811     3027.85
(atE without considering molecular charge,
 total energy contains solvation terms)
H-L gap (eV)  :          4.8592
           ------------------------------------------------- 
          |                 ===============                 |
          |                   A N C O P T                   |
          |                 ===============                 |
          |          Approximate Normal Coordinate          |
          |           Rational Function Optimizer           |
           ------------------------------------------------- 
dumping coords to <xtbopt.coord> and <xtbopt.log>
 optlevel               2
 Maxcycle             520
 Maxmicro              25
 Econv         1.000000000000000E-007
 Gconv         2.000000000000000E-004
 Maxdispl       1.00000000000000     
 Hlow          5.000000000000000E-003
 S6             20.0000000000000     
 Nvar               72

generating ANC from model Hessian ...
 Shifting diagonal of input Hessian by   5.283319642142460E-003
 Lowest  eigenvalues of input Hessian
    0.005000   -0.000000   -0.000000   -0.000000   -0.000000    0.000000
    0.000000    0.005322    0.005638    0.006295    0.006929    0.007442
    0.007507    0.008354    0.009489    0.010216    0.011527    0.011844
 Highest eigenvalues
    1.574459    1.580265    1.583302    3.207981    3.408684    3.460717
 
cpu  time for ANC gen    0.02 s
wall time for ANC gen    0.02 s
................................................................................
.............................. CYCLE    1 ......................................
................................................................................
   1    -50.5761399 -0.505761E+02  0.597E-05    4.86       0.0  T
   2    -50.5761399 -0.794387E-11  0.412E-05    4.86     475.4  T
   3    -50.5761399 -0.556355E-11  0.160E-05    4.86    1224.4  T
speedup  1.07
cpu  time for SCC    0.00 s
wall time for SCC    0.00 s
speedup  1.02
cpu  time for grad    0.01 s
wall time for grad    0.01 s
 E :    -50.29487693  G :  0.281767    pred/act E change:  0.000D+00  0.140D-07
Maxdispl :   0.1631   ||displ|| :   0.2958   Lambda : -0.612D-01
Largest |displ|/coords:  0.1631 (  55)  0.1191 (  44)  0.0692 (  46)
................................................................................
.............................. CYCLE    2 ......................................
................................................................................
   1    -50.5992378 -0.505992E+02  0.402E-01    5.20       0.0  T
   2    -50.5996993 -0.461514E-03  0.302E-01    5.34       1.0  T
   3    -50.5998854 -0.186033E-03  0.120E-01    5.62       1.0  T
   4    -50.5999089 -0.235313E-04  0.298E-02    5.67       1.0  T
   5    -50.5999105 -0.159896E-05  0.726E-03    5.65       2.7  T
   6    -50.5999106 -0.102865E-06  0.384E-03    5.65       5.1  T
   7    -50.5999106 -0.292779E-07  0.112E-03    5.65      17.5  T
speedup  0.97
cpu  time for SCC    0.01 s
wall time for SCC    0.01 s
speedup  0.94
cpu  time for grad    0.01 s
wall time for grad    0.01 s
 E :    -50.34319498  G :  0.174283    pred/act E change:  0.000D+00 -0.483D-01
Maxdispl :   0.1323   ||displ|| :   0.2988   Lambda : -0.296D-01
Largest |displ|/coords:  0.1323 (  13)  0.1171 (  55)  0.1080 (  28)
................................................................................
.............................. CYCLE    3 ......................................
................................................................................
   1    -50.6102273 -0.506102E+02  0.335E-01    5.90       0.0  T
   2    -50.6108444 -0.617108E-03  0.244E-01    6.10       1.0  T
   3    -50.6110943 -0.249906E-03  0.119E-01    6.39       1.0  T
   4    -50.6111063 -0.119949E-04  0.280E-02    6.47       1.0  T
   5    -50.6111078 -0.149497E-05  0.704E-03    6.45       2.8  T
   6    -50.6111080 -0.118128E-06  0.378E-03    6.45       5.2  T
   7    -50.6111080 -0.292834E-07  0.127E-03    6.45      15.4  T
speedup  0.95
cpu  time for SCC    0.01 s
wall time for SCC    0.01 s
speedup  1.02
cpu  time for grad    0.01 s
wall time for grad    0.01 s
 E :    -50.36661784  G :  0.109853    pred/act E change: -0.333D-01 -0.234D-01
Maxdispl :   0.2188   ||displ|| :   0.3385   Lambda : -0.146D-01
Largest |displ|/coords:  0.2188 (  13)  0.1181 (  28)  0.0919 (   5)
................................................................................
.............................. CYCLE    4 ......................................
................................................................................
   1    -50.6161510 -0.506162E+02  0.321E-01    6.58       0.0  T
   2    -50.6167443 -0.593324E-03  0.228E-01    6.80       1.0  T
   3    -50.6169866 -0.242239E-03  0.108E-01    7.13       1.0  T
   4    -50.6169993 -0.127282E-04  0.277E-02    7.21       1.0  T
   5    -50.6170010 -0.170684E-05  0.710E-03    7.19       2.8  T
   6    -50.6170011 -0.107913E-06  0.396E-03    7.19       5.0  T
   7    -50.6170011 -0.307722E-07  0.140E-03    7.19      14.0  T
speedup  0.97
cpu  time for SCC    0.01 s
wall time for SCC    0.01 s
speedup  1.02
cpu  time for grad    0.01 s
wall time for grad    0.01 s
 E :    -50.37871015  G :  0.076269    pred/act E change: -0.161D-01 -0.121D-01
Maxdispl :   0.2073   ||displ|| :   0.4139   Lambda : -0.941D-02
Largest |displ|/coords:  0.2073 (  13)  0.1841 (   1)  0.1772 (   5)
................................................................................
.............................. CYCLE    5 ......................................
................................................................................
   1    -50.6148670 -0.506149E+02  0.551E-01    7.19       0.0  T
   2    -50.6155949 -0.727889E-03  0.394E-01    7.48       1.0  T
   3    -50.6159015 -0.306673E-03  0.129E-01    7.97       1.0  T
   4    -50.6159477 -0.461905E-04  0.322E-02    7.97       1.0  T
   5    -50.6159508 -0.309553E-05  0.891E-03    7.93       2.2  T
   6    -50.6159511 -0.276793E-06  0.540E-03    7.94       3.6  T
   7    -50.6159511 -0.461013E-07  0.159E-03    7.93      12.3  T
speedup  0.95
cpu  time for SCC    0.01 s
wall time for SCC    0.01 s
speedup  1.01
cpu  time for grad    0.01 s
wall time for grad    0.01 s
 E :    -50.38603837  G :  0.080598    pred/act E change: -0.813D-02 -0.733D-02
Maxdispl :   0.1806   ||displ|| :   0.3781   Lambda : -0.110D-01
Largest |displ|/coords:  0.1806 (   1)  0.1530 (   4)  0.1478 (  13)
................................................................................
.............................. CYCLE    6 ......................................
................................................................................
   1    -50.6302775 -0.506303E+02  0.509E-01    8.12       0.0  T
   2    -50.6305356 -0.258085E-03  0.383E-01    8.22       1.0  T
   3    -50.6306519 -0.116359E-03  0.848E-02    8.47       1.0  T
   4    -50.6306902 -0.382295E-04  0.282E-02    8.48       1.0  T
   5    -50.6306917 -0.158734E-05  0.769E-03    8.47       2.6  T
   6    -50.6306918 -0.889585E-07  0.398E-03    8.47       4.9  T
   7    -50.6306919 -0.389589E-07  0.118E-03    8.47      16.6  T
speedup  0.95
cpu  time for SCC    0.01 s
wall time for SCC    0.01 s
speedup  1.01
cpu  time for grad    0.01 s
wall time for grad    0.01 s
 E :    -50.38990495  G :  0.069068    pred/act E change: -0.551D-02 -0.387D-02
Maxdispl :   0.1836   ||displ|| :   0.3387   Lambda : -0.818D-02
Largest |displ|/coords:  0.1836 (   5)  0.1483 (  10)  0.1384 (   4)
................................................................................
.............................. CYCLE    7 ......................................
................................................................................
   1    -50.6294453 -0.506294E+02  0.480E-01    8.39       0.0  T
   2    -50.6297864 -0.341129E-03  0.348E-01    8.60       1.0  T
   3    -50.6299594 -0.172987E-03  0.911E-02    8.81       1.0  T
   4    -50.6299885 -0.290981E-04  0.219E-02    8.82       1.0  T
   5    -50.6299898 -0.130218E-05  0.672E-03    8.81       2.9  T
   6    -50.6299899 -0.157626E-06  0.421E-03    8.81       4.7  T
   7    -50.6299900 -0.232208E-07  0.924E-04    8.81      21.2  T
speedup  0.98
cpu  time for SCC    0.01 s
wall time for SCC    0.01 s
speedup  1.02
cpu  time for grad    0.01 s
wall time for grad    0.01 s
 E :    -50.39647171  G :  0.059793    pred/act E change: -0.631D-02 -0.657D-02
Maxdispl :   0.1120   ||displ|| :   0.2178   Lambda : -0.506D-02
Largest |displ|/coords:  0.1120 (  13)  0.0756 (  19)  0.0602 (   5)
................................................................................
.............................. CYCLE    8 ......................................
................................................................................
   1    -50.6367516 -0.506368E+02  0.189E-01    8.78       0.0  T
   2    -50.6369774 -0.225837E-03  0.131E-01    8.82       1.0  T
   3    -50.6370820 -0.104566E-03  0.613E-02    8.89       1.0  T
   4    -50.6370897 -0.770354E-05  0.189E-02    8.91       1.0  T
   5    -50.6370906 -0.901449E-06  0.572E-03    8.92       3.4  T
   6    -50.6370907 -0.572725E-07  0.323E-03    8.91       6.1  T
speedup  1.11
cpu  time for SCC    0.01 s
wall time for SCC    0.01 s
speedup  1.01
cpu  time for grad    0.01 s
wall time for grad    0.01 s
 E :    -50.40100522  G :  0.056502    pred/act E change: -0.456D-02 -0.453D-02
Maxdispl :   0.0944   ||displ|| :   0.1979   Lambda : -0.460D-02
Largest |displ|/coords:  0.0944 (   5)  0.0697 (  26)  0.0616 (  13)
................................................................................
.............................. CYCLE    9 ......................................
................................................................................
   1    -50.6436779 -0.506437E+02  0.215E-01    8.93       0.0  T
   2    -50.6438968 -0.218951E-03  0.147E-01    8.96       1.0  T
   3    -50.6440015 -0.104660E-03  0.596E-02    9.02       1.0  T
   4    -50.6440094 -0.789441E-05  0.176E-02    9.04       1.1  T
   5    -50.6440101 -0.715723E-06  0.546E-03    9.04       3.6  T
   6    -50.6440102 -0.566517E-07  0.319E-03    9.04       6.1  T
speedup  0.91
cpu  time for SCC    0.01 s
wall time for SCC    0.01 s
speedup  1.00
cpu  time for grad    0.01 s
wall time for grad    0.01 s
 E :    -50.40502894  G :  0.053846    pred/act E change: -0.265D-02 -0.402D-02
Maxdispl :   0.0830   ||displ|| :   0.1841   Lambda : -0.408D-02
Largest |displ|/coords:  0.0830 (  26)  0.0653 (  13)  0.0573 (  23)
................................................................................
.............................. CYCLE   10 ......................................
................................................................................
   1    -50.6543381 -0.506543E+02  0.150E-01    9.04       0.0  T
   2    -50.6544093 -0.712214E-04  0.109E-01    9.06       1.0  T
   3    -50.6544470 -0.376757E-04  0.391E-02    9.10       1.0  T
   4    -50.6544518 -0.480330E-05  0.112E-02    9.11       1.8  T
   5    -50.6544521 -0.250713E-06  0.377E-03    9.11       5.2  T
   6    -50.6544521 -0.206338E-07  0.203E-03    9.11       9.6  T
speedup  0.93
cpu  time for SCC    0.00 s
wall time for SCC    0.01 s
speedup  1.01
cpu  time for grad    0.01 s
wall time for grad    0.01 s
 E :    -50.40807496  G :  0.036633    pred/act E change: -0.239D-02 -0.305D-02
Maxdispl :   0.2391   ||displ|| :   0.5033   Lambda : -0.900D-02
Largest |displ|/coords:  0.2391 (  26)  0.2023 (   5)  0.1546 (  23)
................................................................................
.............................. CYCLE   11 ......................................
................................................................................
   1    -50.6662985 -0.506663E+02  0.531E-01    9.10       0.0  T
   2    -50.6673746 -0.107613E-02  0.359E-01    9.06       1.0  T
   3    -50.6678453 -0.470713E-03  0.137E-01    8.87       1.0  T
   4    -50.6678890 -0.436927E-04  0.306E-02    8.78       1.0  T
   5    -50.6678904 -0.141701E-05  0.138E-02    8.80       1.4  T
   6    -50.6678913 -0.927252E-06  0.569E-03    8.80       3.4  T
   7    -50.6678914 -0.106058E-06  0.221E-03    8.80       8.9  T
speedup  1.11
cpu  time for SCC    0.01 s
wall time for SCC    0.01 s
speedup  1.01
cpu  time for grad    0.01 s
wall time for grad    0.01 s
 E :    -50.41173882  G :  0.048314    pred/act E change: -0.211D-02 -0.366D-02
Maxdispl :   0.1155   ||displ|| :   0.2441   Lambda : -0.438D-02
Largest |displ|/coords:  0.1155 (  26)  0.1040 (  12)  0.1007 (  23)
................................................................................
.............................. CYCLE   12 ......................................
................................................................................
   1    -50.6640982 -0.506641E+02  0.146E-01    8.88       0.0  T
   2    -50.6641466 -0.484476E-04  0.108E-01    8.87       1.0  T
   3    -50.6641728 -0.262239E-04  0.425E-02    8.87       1.0  T
   4    -50.6641767 -0.392639E-05  0.139E-02    8.87       1.4  T
   5    -50.6641771 -0.355435E-06  0.405E-03    8.87       4.8  T
   6    -50.6641771 -0.303169E-07  0.182E-03    8.87      10.8  T
speedup  0.94
cpu  time for SCC    0.00 s
wall time for SCC    0.01 s
speedup  0.94
cpu  time for grad    0.01 s
wall time for grad    0.01 s
 E :    -50.41294003  G :  0.032716    pred/act E change: -0.564D-02 -0.120D-02
Maxdispl :   0.1353   ||displ|| :   0.1935   Lambda : -0.239D-02
Largest |displ|/coords:  0.1353 (  16)  0.0699 (   7)  0.0607 (  19)
................................................................................
.............................. CYCLE   13 ......................................
................................................................................
   1    -50.6695791 -0.506696E+02  0.129E-01    8.93       0.0  T
   2    -50.6696056 -0.264657E-04  0.953E-02    8.92       1.0  T
   3    -50.6696198 -0.142387E-04  0.295E-02    8.91       1.0  T
   4    -50.6696222 -0.238269E-05  0.103E-02    8.90       1.9  T
   5    -50.6696224 -0.189186E-06  0.289E-03    8.90       6.8  T
   6    -50.6696224 -0.116281E-07  0.150E-03    8.90      13.1  T
speedup  0.94
cpu  time for SCC    0.00 s
wall time for SCC    0.01 s
speedup  1.02
cpu  time for grad    0.01 s
wall time for grad    0.01 s
 E :    -50.41370355  G :  0.021308    pred/act E change: -0.232D-02 -0.764D-03
Maxdispl :   0.0857   ||displ|| :   0.1660   Lambda : -0.179D-02
Largest |displ|/coords:  0.0857 (  12)  0.0782 (   5)  0.0671 (  16)
................................................................................
.............................. CYCLE   14 ......................................
................................................................................
   1    -50.6690098 -0.506690E+02  0.143E-01    8.86       0.0  T
   2    -50.6690300 -0.202416E-04  0.104E-01    8.85       1.0  T
   3    -50.6690404 -0.103765E-04  0.242E-02    8.82       1.0  T
   4    -50.6690427 -0.231494E-05  0.588E-03    8.82       3.3  T
   5    -50.6690428 -0.814843E-07  0.229E-03    8.82       8.6  T
speedup  0.91
cpu  time for SCC    0.00 s
wall time for SCC    0.00 s
speedup  1.00
cpu  time for grad    0.01 s
wall time for grad    0.01 s
 E :    -50.41461943  G :  0.019422    pred/act E change: -0.124D-02 -0.916D-03
Maxdispl :   0.0672   ||displ|| :   0.1309   Lambda : -0.697D-03
Largest |displ|/coords:  0.0672 (  12)  0.0646 (   5)  0.0346 (  23)
................................................................................
.............................. CYCLE   15 ......................................
................................................................................
   1    -50.6677480 -0.506677E+02  0.851E-02    8.84       0.0  T
   2    -50.6677527 -0.469419E-05  0.634E-02    8.84       1.0  T
   3    -50.6677555 -0.280175E-05  0.125E-02    8.83       1.6  T
   4    -50.6677561 -0.601392E-06  0.392E-03    8.83       5.0  T
   5    -50.6677561 -0.369882E-07  0.129E-03    8.83      15.2  T
   6    -50.6677561 -0.308334E-08  0.705E-04    8.83      27.8  T
speedup  1.13
cpu  time for SCC    0.01 s
wall time for SCC    0.01 s
speedup  1.01
cpu  time for grad    0.01 s
wall time for grad    0.01 s
 E :    -50.41506857  G :  0.018796    pred/act E change: -0.921D-03 -0.449D-03
Maxdispl :   0.1053   ||displ|| :   0.1846   Lambda : -0.643D-03
Largest |displ|/coords:  0.1053 (  12)  0.0884 (   5)  0.0673 (   7)
................................................................................
.............................. CYCLE   16 ......................................
................................................................................
   1    -50.6688877 -0.506689E+02  0.981E-02    8.89       0.0  T
   2    -50.6689040 -0.163508E-04  0.717E-02    8.89       1.0  T
   3    -50.6689102 -0.617187E-05  0.215E-02    8.89       1.0  T
   4    -50.6689119 -0.168300E-05  0.417E-03    8.89       4.7  T
   5    -50.6689119 -0.525039E-07  0.191E-03    8.89      10.3  T
   6    -50.6689119 -0.436791E-08  0.980E-04    8.89      20.0  T
speedup  0.94
cpu  time for SCC    0.00 s
wall time for SCC    0.01 s
speedup  1.01
cpu  time for grad    0.01 s
wall time for grad    0.01 s
 E :    -50.41550980  G :  0.012256    pred/act E change: -0.354D-03 -0.441D-03
Maxdispl :   0.1038   ||displ|| :   0.2009   Lambda : -0.482D-03
Largest |displ|/coords:  0.1038 (   5)  0.0879 (  12)  0.0721 (   7)
................................................................................
.............................. CYCLE   17 ......................................
................................................................................
   1    -50.6695549 -0.506696E+02  0.105E-01    8.93       0.0  T
   2    -50.6695641 -0.919438E-05  0.783E-02    8.93       1.0  T
   3    -50.6695683 -0.421881E-05  0.167E-02    8.93       1.2  T
   4    -50.6695698 -0.149107E-05  0.349E-03    8.93       5.6  T
   5    -50.6695698 -0.247932E-07  0.193E-03    8.93      10.2  T
   6    -50.6695698 -0.496811E-08  0.698E-04    8.93      28.1  T
speedup  0.94
cpu  time for SCC    0.00 s
wall time for SCC    0.01 s
speedup  1.01
cpu  time for grad    0.01 s
wall time for grad    0.01 s
 E :    -50.41585834  G :  0.013696    pred/act E change: -0.333D-03 -0.349D-03
Maxdispl :   0.1455   ||displ|| :   0.2371   Lambda : -0.583D-03
Largest |displ|/coords:  0.1455 (   5)  0.0819 (   7)  0.0755 (  16)
................................................................................
.............................. CYCLE   18 ......................................
................................................................................
   1    -50.6716179 -0.506716E+02  0.118E-01    9.00       0.0  T
   2    -50.6716349 -0.170081E-04  0.867E-02    9.00       1.0  T
   3    -50.6716422 -0.726017E-05  0.226E-02    9.01       1.0  T
   4    -50.6716443 -0.209720E-05  0.491E-03    9.01       4.0  T
   5    -50.6716443 -0.395478E-07  0.210E-03    9.01       9.3  T
   6    -50.6716443 -0.630177E-08  0.942E-04    9.01      20.8  T
speedup  1.13
cpu  time for SCC    0.01 s
wall time for SCC    0.01 s
speedup  1.01
cpu  time for grad    0.01 s
wall time for grad    0.01 s
 E :    -50.41631104  G :  0.011635    pred/act E change: -0.251D-03 -0.453D-03
Maxdispl :   0.2331   ||displ|| :   0.3829   Lambda : -0.883D-03
Largest |displ|/coords:  0.2331 (   5)  0.1286 (   7)  0.1279 (  13)
................................................................................
.............................. CYCLE   19 ......................................
................................................................................
   1    -50.6718374 -0.506718E+02  0.194E-01    9.07       0.0  T
   2    -50.6718615 -0.241225E-04  0.143E-01    9.08       1.0  T
   3    -50.6718749 -0.134412E-04  0.290E-02    9.10       1.0  T
   4    -50.6718783 -0.333775E-05  0.935E-03    9.10       2.1  T
   5    -50.6718784 -0.129846E-06  0.253E-03    9.10       7.8  T
   6    -50.6718784 -0.986328E-08  0.145E-03    9.10      13.5  T
speedup  0.91
cpu  time for SCC    0.00 s
wall time for SCC    0.01 s
speedup  0.99
cpu  time for grad    0.01 s
wall time for grad    0.01 s
 E :    -50.41696071  G :  0.012946    pred/act E change: -0.308D-03 -0.650D-03
Maxdispl :   0.2774   ||displ|| :   0.4647   Lambda : -0.108D-02
Largest |displ|/coords:  0.2774 (   5)  0.1596 (  13)  0.1583 (  16)
................................................................................
.............................. CYCLE   20 ......................................
................................................................................
   1    -50.6713010 -0.506713E+02  0.241E-01    9.13       0.0  T
   2    -50.6713502 -0.491439E-04  0.177E-01    9.14       1.0  T
   3    -50.6713739 -0.237024E-04  0.397E-02    9.16       1.0  T
   4    -50.6713805 -0.658889E-05  0.133E-02    9.16       1.5  T
   5    -50.6713807 -0.266296E-06  0.305E-03    9.16       6.4  T
   6    -50.6713808 -0.129076E-07  0.179E-03    9.16      10.9  T
   7    -50.6713808 -0.480312E-08  0.571E-04    9.16      34.4  T
speedup  1.11
cpu  time for SCC    0.01 s
wall time for SCC    0.01 s
speedup  1.00
cpu  time for grad    0.01 s
wall time for grad    0.01 s
 E :    -50.41760356  G :  0.013976    pred/act E change: -0.506D-03 -0.643D-03
Maxdispl :   0.1989   ||displ|| :   0.3422   Lambda : -0.878D-03
Largest |displ|/coords:  0.1989 (   5)  0.1361 (   7)  0.1113 (  13)
................................................................................
.............................. CYCLE   21 ......................................
................................................................................
   1    -50.6727480 -0.506727E+02  0.185E-01    9.13       0.0  T
   2    -50.6727844 -0.363508E-04  0.134E-01    9.14       1.0  T
   3    -50.6728002 -0.158408E-04  0.336E-02    9.16       1.0  T
   4    -50.6728043 -0.411432E-05  0.103E-02    9.16       1.9  T
   5    -50.6728045 -0.171959E-06  0.238E-03    9.16       8.3  T
   6    -50.6728045 -0.829611E-08  0.136E-03    9.16      14.4  T
speedup  0.94
cpu  time for SCC    0.00 s
wall time for SCC    0.01 s
speedup  1.00
cpu  time for grad    0.01 s
wall time for grad    0.01 s
 E :    -50.41804879  G :  0.016409    pred/act E change: -0.659D-03 -0.445D-03
Maxdispl :   0.1746   ||displ|| :   0.3053   Lambda : -0.647D-03
Largest |displ|/coords:  0.1746 (   5)  0.1554 (   7)  0.0805 (   1)
................................................................................
.............................. CYCLE   22 ......................................
................................................................................
   1    -50.6693752 -0.506694E+02  0.186E-01    9.04       0.0  T
   2    -50.6694109 -0.356927E-04  0.133E-01    9.04       1.0  T
   3    -50.6694283 -0.174179E-04  0.344E-02    9.05       1.0  T
   4    -50.6694321 -0.377441E-05  0.957E-03    9.05       2.0  T
   5    -50.6694323 -0.156385E-06  0.290E-03    9.05       6.8  T
   6    -50.6694323 -0.140127E-07  0.166E-03    9.05      11.8  T
speedup  1.11
cpu  time for SCC    0.01 s
wall time for SCC    0.01 s
speedup  1.05
cpu  time for grad    0.01 s
wall time for grad    0.01 s
 E :    -50.41839193  G :  0.016135    pred/act E change: -0.490D-03 -0.343D-03
Maxdispl :   0.0817   ||displ|| :   0.1626   Lambda : -0.825D-03
Largest |displ|/coords:  0.0817 (   7)  0.0508 (  10)  0.0430 (   8)
................................................................................
.............................. CYCLE   23 ......................................
................................................................................
   1    -50.6744498 -0.506744E+02  0.117E-01    9.14       0.0  T
   2    -50.6744785 -0.286598E-04  0.844E-02    9.14       1.0  T
   3    -50.6744894 -0.109361E-04  0.271E-02    9.13       1.0  T
   4    -50.6744913 -0.189135E-05  0.888E-03    9.13       2.2  T
   5    -50.6744915 -0.124773E-06  0.215E-03    9.13       9.1  T
   6    -50.6744915 -0.999132E-08  0.103E-03    9.13      19.1  T
speedup  0.94
cpu  time for SCC    0.01 s
wall time for SCC    0.01 s
speedup  1.00
cpu  time for grad    0.01 s
wall time for grad    0.01 s
 E :    -50.41875828  G :  0.011463    pred/act E change: -0.354D-03 -0.366D-03
Maxdispl :   0.1046   ||displ|| :   0.2126   Lambda : -0.443D-03
Largest |displ|/coords:  0.1046 (   7)  0.0943 (   5)  0.0930 (  12)
................................................................................
.............................. CYCLE   24 ......................................
................................................................................
   1    -50.6733469 -0.506733E+02  0.114E-01    9.05       0.0  T
   2    -50.6733560 -0.911432E-05  0.842E-02    9.05       1.0  T
   3    -50.6733613 -0.530690E-05  0.191E-02    9.06       1.0  T
   4    -50.6733625 -0.114734E-05  0.524E-03    9.06       3.7  T
   5    -50.6733626 -0.590496E-07  0.182E-03    9.06      10.7  T
   6    -50.6733626 -0.546069E-08  0.100E-03    9.06      19.5  T
speedup  0.91
cpu  time for SCC    0.00 s
wall time for SCC    0.01 s
speedup  0.97
cpu  time for grad    0.01 s
wall time for grad    0.01 s
 E :    -50.41901876  G :  0.009941    pred/act E change: -0.424D-03 -0.260D-03
Maxdispl :   0.0582   ||displ|| :   0.1424   Lambda : -0.278D-03
Largest |displ|/coords:  0.0582 (   7)  0.0549 (  12)  0.0516 (   5)
................................................................................
.............................. CYCLE   25 ......................................
................................................................................
   1    -50.6739559 -0.506740E+02  0.704E-02    9.08       0.0  T
   2    -50.6739606 -0.465949E-05  0.533E-02    9.08       1.0  T
   3    -50.6739634 -0.282994E-05  0.115E-02    9.08       1.7  T
   4    -50.6739642 -0.773521E-06  0.310E-03    9.08       6.3  T
   5    -50.6739642 -0.194048E-07  0.116E-03    9.08      16.9  T
   6    -50.6739642 -0.133421E-08  0.588E-04    9.08      33.4  T
speedup  0.94
cpu  time for SCC    0.01 s
wall time for SCC    0.01 s
speedup  1.00
cpu  time for grad    0.01 s
wall time for grad    0.01 s
 E :    -50.41923689  G :  0.009771    pred/act E change: -0.232D-03 -0.218D-03
Maxdispl :   0.1390   ||displ|| :   0.3305   Lambda : -0.604D-03
Largest |displ|/coords:  0.1390 (  12)  0.1127 (   7)  0.1066 (   3)

generating ANC from model Hessian ...
 Shifting diagonal of input Hessian by   4.754715780120836E-003
 Lowest  eigenvalues of input Hessian
   -0.000000   -0.000000    0.000000    0.000000    0.000000    0.000000
    0.005000    0.005680    0.005876    0.006654    0.007306    0.007773
    0.007892    0.008296    0.010178    0.010945    0.011213    0.013140
 Highest eigenvalues
    1.386839    1.391243    1.480843    2.432752    3.494831    3.602142
 
cpu  time for ANC gen    0.02 s
wall time for ANC gen    0.02 s
................................................................................
.............................. CYCLE   26 ......................................
................................................................................
   1    -50.6747828 -0.506748E+02  0.167E-01    9.15       0.0  T
   2    -50.6748071 -0.242378E-04  0.127E-01    9.16       1.0  T
   3    -50.6748277 -0.206632E-04  0.265E-02    9.16       1.0  T
   4    -50.6748311 -0.334874E-05  0.732E-03    9.16       2.7  T
   5    -50.6748312 -0.819711E-07  0.314E-03    9.16       6.2  T
   6    -50.6748312 -0.875202E-08  0.141E-03    9.16      13.9  T
   7    -50.6748312 -0.469627E-08  0.425E-04    9.16      46.1  T
   8    -50.6748312 -0.431747E-09  0.144E-04    9.16     135.8  T
speedup  0.97
cpu  time for SCC    0.01 s
wall time for SCC    0.01 s
speedup  0.97
cpu  time for grad    0.01 s
wall time for grad    0.02 s
 E :    -50.41970705  G :  0.016249    pred/act E change:  0.000D+00 -0.470D-03
Maxdispl :   0.0599   ||displ|| :   0.1354   Lambda : -0.688D-03
Largest |displ|/coords:  0.0599 (  12)  0.0462 (  18)  0.0444 (   5)
................................................................................
.............................. CYCLE   27 ......................................
................................................................................
   1    -50.6754112 -0.506754E+02  0.902E-02    9.16       0.0  T
   2    -50.6754152 -0.404546E-05  0.657E-02    9.16       1.0  T
   3    -50.6754183 -0.308988E-05  0.145E-02    9.16       1.4  T
   4    -50.6754187 -0.393753E-06  0.354E-03    9.16       5.5  T
   5    -50.6754188 -0.290454E-07  0.137E-03    9.16      14.3  T
   6    -50.6754188 -0.376035E-08  0.746E-04    9.16      26.3  T
speedup  0.94
cpu  time for SCC    0.00 s
wall time for SCC    0.01 s
speedup  0.99
cpu  time for grad    0.01 s
wall time for grad    0.01 s
 E :    -50.42022272  G :  0.013990    pred/act E change:  0.000D+00 -0.516D-03
Maxdispl :   0.1308   ||displ|| :   0.2376   Lambda : -0.103D-02
Largest |displ|/coords:  0.1308 (  12)  0.0868 (  18)  0.0820 (   5)
................................................................................
.............................. CYCLE   28 ......................................
................................................................................
   1    -50.6766546 -0.506767E+02  0.155E-01    9.15       0.0  T
   2    -50.6766727 -0.181193E-04  0.112E-01    9.15       1.0  T
   3    -50.6766846 -0.119053E-04  0.282E-02    9.15       1.0  T
   4    -50.6766864 -0.181187E-05  0.642E-03    9.16       3.1  T
   5    -50.6766865 -0.931391E-07  0.276E-03    9.15       7.1  T
   6    -50.6766865 -0.169567E-07  0.135E-03    9.15      14.6  T
speedup  1.09
cpu  time for SCC    0.01 s
wall time for SCC    0.01 s
speedup  1.05
cpu  time for grad    0.01 s
wall time for grad    0.01 s
 E :    -50.42094249  G :  0.018797    pred/act E change: -0.350D-03 -0.720D-03
Maxdispl :   0.1731   ||displ|| :   0.3573   Lambda : -0.133D-02
Largest |displ|/coords:  0.1731 (  12)  0.1423 (   5)  0.1247 (   6)
................................................................................
.............................. CYCLE   29 ......................................
................................................................................
   1    -50.6784979 -0.506785E+02  0.228E-01    9.11       0.0  T
   2    -50.6785460 -0.480949E-04  0.166E-01    9.11       1.0  T
   3    -50.6785781 -0.320522E-04  0.427E-02    9.11       1.0  T
   4    -50.6785833 -0.518937E-05  0.982E-03    9.11       2.0  T
   5    -50.6785835 -0.182094E-06  0.454E-03    9.11       4.3  T
   6    -50.6785835 -0.360655E-07  0.198E-03    9.11       9.9  T
   7    -50.6785835 -0.916550E-08  0.777E-04    9.11      25.2  T
speedup  1.09
cpu  time for SCC    0.01 s
wall time for SCC    0.01 s
speedup  0.99
cpu  time for grad    0.01 s
wall time for grad    0.01 s
 E :    -50.42222220  G :  0.027045    pred/act E change: -0.544D-03 -0.128D-02
Maxdispl :   0.3969   ||displ|| :   0.8407   Lambda : -0.432D-02
Largest |displ|/coords:  0.3969 (  12)  0.2976 (  18)  0.2814 (   5)
................................................................................
.............................. CYCLE   30 ......................................
................................................................................
   1    -50.6863719 -0.506864E+02  0.582E-01    8.82       0.0  T
   2    -50.6867121 -0.340211E-03  0.425E-01    8.83       1.0  T
   3    -50.6869709 -0.258807E-03  0.112E-01    8.85       1.0  T
   4    -50.6870035 -0.325839E-04  0.259E-02    8.85       1.0  T
   5    -50.6870048 -0.123849E-05  0.127E-02    8.85       1.5  T
   6    -50.6870049 -0.175450E-06  0.544E-03    8.85       3.6  T
   7    -50.6870050 -0.625198E-07  0.168E-03    8.85      11.7  T
speedup  0.95
cpu  time for SCC    0.01 s
wall time for SCC    0.01 s
speedup  0.99
cpu  time for grad    0.01 s
wall time for grad    0.01 s
 E :    -50.42460679  G :  0.050794    pred/act E change: -0.748D-03 -0.238D-02
Maxdispl :   0.4943   ||displ|| :   0.9904   Lambda : -0.594D-02
Largest |displ|/coords:  0.4943 (  12)  0.3853 (  18)  0.2884 (   5)
................................................................................
.............................. CYCLE   31 ......................................
................................................................................
   1    -50.6756805 -0.506757E+02  0.730E-01    9.17       0.0  T
   2    -50.6764734 -0.792819E-03  0.533E-01    9.17       1.0  T
   3    -50.6769554 -0.482002E-03  0.154E-01    9.15       1.0  T
   4    -50.6770345 -0.790946E-04  0.343E-02    9.16       1.0  T
   5    -50.6770363 -0.184382E-05  0.162E-02    9.16       1.2  T
   6    -50.6770368 -0.466734E-06  0.686E-03    9.16       2.9  T
   7    -50.6770369 -0.105791E-06  0.249E-03    9.16       7.9  T
   8    -50.6770369 -0.153228E-07  0.615E-04    9.16      31.9  T
speedup  1.00
cpu  time for SCC    0.01 s
wall time for SCC    0.01 s
speedup  1.01
cpu  time for grad    0.01 s
wall time for grad    0.01 s
 E :    -50.42067462  G :  0.025445    pred/act E change: -0.369D-02  0.393D-02
Maxdispl :   1.0000   ||displ|| :   8.4853   Lambda : -0.205D+02
Largest |displ|/coords:  1.0000 (   1)  1.0000 (   2)  1.0000 (   3)
 exit because of too large step

generating ANC from model Hessian ...
 Shifting diagonal of input Hessian by   4.751759615781686E-003
 Lowest  eigenvalues of input Hessian
   -0.000000    0.000000    0.000000    0.000000    0.000000    0.000000
    0.005000    0.005602    0.005686    0.006661    0.007227    0.007442
    0.007771    0.008301    0.009455    0.010202    0.011504    0.012783
 Highest eigenvalues
    1.395884    1.410501    1.483584    2.434037    3.500273    3.616791
 
cpu  time for ANC gen    0.02 s
wall time for ANC gen    0.02 s
................................................................................
.............................. CYCLE   32 ......................................
................................................................................
   1    -50.6770369 -0.506770E+02  0.309E-04    9.16       0.0  T
   2    -50.6770369 -0.208814E-09  0.263E-04    9.16      74.6  T
   3    -50.6770369 -0.536474E-09  0.576E-05    9.16     340.3  T
speedup  1.03
cpu  time for SCC    0.00 s
wall time for SCC    0.00 s
speedup  1.07
cpu  time for grad    0.01 s
wall time for grad    0.01 s
 E :    -50.42067465  G :  0.025448    pred/act E change:  0.000D+00 -0.319D-07
Maxdispl :   0.0905   ||displ|| :   0.2258   Lambda : -0.152D-02
Largest |displ|/coords:  0.0905 (  10)  0.0841 (   3)  0.0833 (   5)
................................................................................
.............................. CYCLE   33 ......................................
................................................................................
   1    -50.6774758 -0.506775E+02  0.119E-01    9.16       0.0  T
   2    -50.6774950 -0.191416E-04  0.878E-02    9.17       1.0  T
   3    -50.6775033 -0.835051E-05  0.229E-02    9.17       1.0  T
   4    -50.6775058 -0.252581E-05  0.395E-03    9.17       5.0  T
   5    -50.6775059 -0.288200E-07  0.202E-03    9.17       9.7  T
speedup  1.11
cpu  time for SCC    0.01 s
wall time for SCC    0.00 s
speedup  1.05
cpu  time for grad    0.01 s
wall time for grad    0.01 s
 E :    -50.42141482  G :  0.021533    pred/act E change:  0.000D+00 -0.740D-03
Maxdispl :   0.0730   ||displ|| :   0.1549   Lambda : -0.136D-02
Largest |displ|/coords:  0.0730 (   4)  0.0583 (  10)  0.0453 (   6)
................................................................................
.............................. CYCLE   34 ......................................
................................................................................
   1    -50.6798640 -0.506799E+02  0.953E-02    9.18       0.0  T
   2    -50.6798843 -0.202640E-04  0.702E-02    9.18       1.0  T
   3    -50.6798957 -0.114121E-04  0.234E-02    9.18       1.0  T
   4    -50.6798976 -0.186096E-05  0.468E-03    9.18       4.2  T
   5    -50.6798976 -0.391666E-07  0.211E-03    9.18       9.3  T
speedup  1.11
cpu  time for SCC    0.00 s
wall time for SCC    0.00 s
speedup  0.98
cpu  time for grad    0.01 s
wall time for grad    0.01 s
 E :    -50.42234567  G :  0.019964    pred/act E change: -0.800D-03 -0.931D-03
Maxdispl :   0.1116   ||displ|| :   0.2267   Lambda : -0.202D-02
Largest |displ|/coords:  0.1116 (   4)  0.0813 (  22)  0.0723 (  56)
................................................................................
.............................. CYCLE   35 ......................................
................................................................................
   1    -50.6851141 -0.506851E+02  0.158E-01    9.18       0.0  T
   2    -50.6851887 -0.745408E-04  0.117E-01    9.18       1.0  T
   3    -50.6852349 -0.462370E-04  0.443E-02    9.18       1.0  T
   4    -50.6852414 -0.645516E-05  0.867E-03    9.18       2.3  T
   5    -50.6852415 -0.938264E-07  0.398E-03    9.18       4.9  T
   6    -50.6852415 -0.683031E-08  0.132E-03    9.18      14.9  T
   7    -50.6852415 -0.433163E-08  0.388E-04    9.18      50.5  T
speedup  0.97
cpu  time for SCC    0.01 s
wall time for SCC    0.01 s
speedup  1.00
cpu  time for grad    0.01 s
wall time for grad    0.01 s
 E :    -50.42408525  G :  0.026699    pred/act E change: -0.697D-03 -0.174D-02
Maxdispl :   0.2006   ||displ|| :   0.5220   Lambda : -0.576D-02
Largest |displ|/coords:  0.2006 (  22)  0.1921 (  56)  0.1685 (   4)
................................................................................
.............................. CYCLE   36 ......................................
................................................................................
   1    -50.7073047 -0.507073E+02  0.394E-01    9.16       0.0  T
   2    -50.7076756 -0.370896E-03  0.294E-01    9.16       1.0  T
   3    -50.7079436 -0.268036E-03  0.101E-01    9.16       1.0  T
   4    -50.7079776 -0.339630E-04  0.210E-02    9.16       1.0  T
   5    -50.7079780 -0.370711E-06  0.109E-02    9.16       1.8  T
   6    -50.7079780 -0.455714E-07  0.305E-03    9.16       6.4  T
   7    -50.7079780 -0.205894E-07  0.853E-04    9.16      23.0  T
speedup  0.97
cpu  time for SCC    0.01 s
wall time for SCC    0.01 s
speedup  1.00
cpu  time for grad    0.01 s
wall time for grad    0.01 s
 E :    -50.42301263  G :  0.101133    pred/act E change: -0.106D-02  0.107D-02
Maxdispl :   0.1539   ||displ|| :   0.3256   Lambda : -0.195D-01
Largest |displ|/coords:  0.1539 (  56)  0.1110 (  55)  0.1037 (  22)
................................................................................
.............................. CYCLE   37 ......................................
................................................................................
   1    -50.6882768 -0.506883E+02  0.322E-01    9.17       0.0  T
   2    -50.6886336 -0.356741E-03  0.233E-01    9.17       1.0  T
   3    -50.6888607 -0.227094E-03  0.922E-02    9.17       1.0  T
   4    -50.6888858 -0.251426E-04  0.196E-02    9.17       1.0  T
   5    -50.6888862 -0.424922E-06  0.904E-03    9.17       2.2  T
   6    -50.6888863 -0.108155E-06  0.304E-03    9.17       6.4  T
   7    -50.6888864 -0.135972E-07  0.985E-04    9.17      19.9  T
speedup  0.97
cpu  time for SCC    0.01 s
wall time for SCC    0.01 s
speedup  1.00
cpu  time for grad    0.01 s
wall time for grad    0.01 s
 E :    -50.42683768  G :  0.031067    pred/act E change: -0.367D-02 -0.383D-02
Maxdispl :   0.0521   ||displ|| :   0.1621   Lambda : -0.288D-02
Largest |displ|/coords:  0.0521 (  57)  0.0509 (  22)  0.0470 (  12)
................................................................................
.............................. CYCLE   38 ......................................
................................................................................
   1    -50.6953963 -0.506954E+02  0.119E-01    9.17       0.0  T
   2    -50.6954370 -0.406687E-04  0.879E-02    9.17       1.0  T
   3    -50.6954642 -0.272284E-04  0.320E-02    9.17       1.0  T
   4    -50.6954677 -0.353680E-05  0.698E-03    9.17       2.8  T
   5    -50.6954678 -0.527477E-07  0.340E-03    9.17       5.8  T
   6    -50.6954678 -0.752939E-08  0.110E-03    9.17      17.9  T
speedup  0.91
cpu  time for SCC    0.00 s
wall time for SCC    0.01 s
speedup  0.98
cpu  time for grad    0.01 s
wall time for grad    0.01 s
 E :    -50.42947603  G :  0.026718    pred/act E change: -0.108D-01 -0.264D-02
Maxdispl :   0.2260   ||displ|| :   0.5841   Lambda : -0.994D-02
Largest |displ|/coords:  0.2260 (  57)  0.2045 (  22)  0.1551 (  56)
................................................................................
.............................. CYCLE   39 ......................................
................................................................................
   1    -50.7291379 -0.507291E+02  0.480E-01    9.15       0.0  T
   2    -50.7299391 -0.801131E-03  0.350E-01    9.16       1.0  T
   3    -50.7304385 -0.499421E-03  0.138E-01    9.16       1.0  T
   4    -50.7305019 -0.633846E-04  0.311E-02    9.17       1.0  T
   5    -50.7305030 -0.113724E-05  0.158E-02    9.17       1.2  T
   6    -50.7305032 -0.148727E-06  0.571E-03    9.17       3.4  T
   7    -50.7305032 -0.383308E-07  0.140E-03    9.17      14.0  T
speedup  1.11
cpu  time for SCC    0.01 s
wall time for SCC    0.01 s
speedup  1.06
cpu  time for grad    0.01 s
wall time for grad    0.01 s
 E :    -50.42678935  G :  0.147606    pred/act E change: -0.148D-02  0.269D-02
Maxdispl :   0.1900   ||displ|| :   0.3969   Lambda : -0.358D-01
Largest |displ|/coords:  0.1900 (  57)  0.1501 (  56)  0.1499 (  55)
................................................................................
.............................. CYCLE   40 ......................................
................................................................................
   1    -50.6920269 -0.506920E+02  0.411E-01    9.16       0.0  T
   2    -50.6926657 -0.638799E-03  0.297E-01    9.16       1.0  T
   3    -50.6930510 -0.385274E-03  0.122E-01    9.15       1.0  T
   4    -50.6930995 -0.484402E-04  0.282E-02    9.15       1.0  T
   5    -50.6931007 -0.123562E-05  0.133E-02    9.15       1.5  T
   6    -50.6931008 -0.137197E-06  0.514E-03    9.15       3.8  T
   7    -50.6931009 -0.392060E-07  0.144E-03    9.15      13.6  T
speedup  0.94
cpu  time for SCC    0.01 s
wall time for SCC    0.01 s
speedup  0.99
cpu  time for grad    0.01 s
wall time for grad    0.01 s
 E :    -50.43093284  G :  0.044776    pred/act E change: -0.666D-02 -0.414D-02
Maxdispl :   0.0837   ||displ|| :   0.1777   Lambda : -0.490D-02
Largest |displ|/coords:  0.0837 (  57)  0.0527 (  44)  0.0409 (  56)
................................................................................
.............................. CYCLE   41 ......................................
................................................................................
   1    -50.7064830 -0.507065E+02  0.157E-01    9.16       0.0  T
   2    -50.7065607 -0.776678E-04  0.115E-01    9.16       1.0  T
   3    -50.7066053 -0.445697E-04  0.424E-02    9.16       1.0  T
   4    -50.7066114 -0.612078E-05  0.958E-03    9.16       2.0  T
   5    -50.7066115 -0.150541E-06  0.419E-03    9.16       4.7  T
   6    -50.7066116 -0.156754E-07  0.158E-03    9.16      12.5  T
speedup  0.91
cpu  time for SCC    0.00 s
wall time for SCC    0.01 s
speedup  0.98
cpu  time for grad    0.01 s
wall time for grad    0.01 s
 E :    -50.43514357  G :  0.031473    pred/act E change: -0.207D-01 -0.421D-02
Maxdispl :   0.2637   ||displ|| :   0.5673   Lambda : -0.112D-01
Largest |displ|/coords:  0.2637 (  57)  0.1716 (  22)  0.1407 (  23)
................................................................................
.............................. CYCLE   42 ......................................
................................................................................
   1    -50.7443420 -0.507443E+02  0.492E-01    9.18       0.0  T
   2    -50.7451698 -0.827803E-03  0.358E-01    9.18       1.0  T
   3    -50.7457118 -0.542016E-03  0.142E-01    9.19       1.0  T
   4    -50.7457722 -0.604000E-04  0.322E-02    9.19       1.0  T
   5    -50.7457737 -0.148417E-05  0.167E-02    9.19       1.2  T
   6    -50.7457738 -0.139262E-06  0.629E-03    9.19       3.1  T
   7    -50.7457738 -0.557399E-07  0.142E-03    9.19      13.8  T
   8    -50.7457739 -0.454608E-08  0.394E-04    9.19      49.8  T
speedup  1.13
cpu  time for SCC    0.01 s
wall time for SCC    0.01 s
speedup  1.01
cpu  time for grad    0.01 s
wall time for grad    0.01 s
 E :    -50.43252786  G :  0.142811    pred/act E change: -0.253D-02  0.262D-02
Maxdispl :   0.2121   ||displ|| :   0.3968   Lambda : -0.334D-01
Largest |displ|/coords:  0.2121 (  57)  0.1330 (  44)  0.1176 (  56)
................................................................................
.............................. CYCLE   43 ......................................
................................................................................
   1    -50.7039945 -0.507040E+02  0.431E-01    9.15       0.0  T
   2    -50.7048648 -0.870283E-03  0.305E-01    9.15       1.0  T
   3    -50.7053255 -0.460717E-03  0.136E-01    9.15       1.0  T
   4    -50.7053822 -0.566324E-04  0.317E-02    9.15       1.0  T
   5    -50.7053838 -0.162726E-05  0.154E-02    9.15       1.3  T
   6    -50.7053841 -0.341038E-06  0.610E-03    9.15       3.2  T
   7    -50.7053842 -0.552244E-07  0.163E-03    9.15      12.0  T
   8    -50.7053842 -0.703950E-08  0.393E-04    9.15      49.9  T
speedup  1.00
cpu  time for SCC    0.01 s
wall time for SCC    0.01 s
speedup  1.01
cpu  time for grad    0.01 s
wall time for grad    0.01 s
 E :    -50.43674573  G :  0.042646    pred/act E change: -0.738D-02 -0.422D-02
Maxdispl :   0.0828   ||displ|| :   0.1814   Lambda : -0.453D-02
Largest |displ|/coords:  0.0828 (  57)  0.0486 (  44)  0.0479 (  22)
................................................................................
.............................. CYCLE   44 ......................................
................................................................................
   1    -50.7187905 -0.507188E+02  0.161E-01    9.16       0.0  T
   2    -50.7188968 -0.106285E-03  0.115E-01    9.16       1.0  T
   3    -50.7189545 -0.577257E-04  0.480E-02    9.17       1.0  T
   4    -50.7189610 -0.642942E-05  0.103E-02    9.17       1.9  T
   5    -50.7189611 -0.167313E-06  0.499E-03    9.17       3.9  T
   6    -50.7189611 -0.217487E-07  0.186E-03    9.17      10.5  T
speedup  0.96
cpu  time for SCC    0.01 s
wall time for SCC    0.01 s
speedup  1.00
cpu  time for grad    0.01 s
wall time for grad    0.01 s
 E :    -50.44058818  G :  0.028473    pred/act E change: -0.194D-01 -0.384D-02
Maxdispl :   0.1777   ||displ|| :   0.4051   Lambda : -0.650D-02
Largest |displ|/coords:  0.1777 (  57)  0.1117 (  23)  0.1035 (  22)
................................................................................
.............................. CYCLE   45 ......................................
................................................................................
   1    -50.7439699 -0.507440E+02  0.332E-01    9.18       0.0  T
   2    -50.7442635 -0.293624E-03  0.244E-01    9.18       1.0  T
   3    -50.7444635 -0.199952E-03  0.892E-02    9.19       1.0  T
   4    -50.7444877 -0.241958E-04  0.209E-02    9.19       1.0  T
   5    -50.7444883 -0.693281E-06  0.103E-02    9.19       1.9  T
   6    -50.7444884 -0.505646E-07  0.394E-03    9.19       5.0  T
   7    -50.7444884 -0.272007E-07  0.933E-04    9.19      21.0  T
speedup  0.95
cpu  time for SCC    0.01 s
wall time for SCC    0.01 s
speedup  1.00
cpu  time for grad    0.01 s
wall time for grad    0.01 s
 E :    -50.44128717  G :  0.069889    pred/act E change: -0.234D-02 -0.699D-03
Maxdispl :   0.1048   ||displ|| :   0.2243   Lambda : -0.830D-02
Largest |displ|/coords:  0.1048 (  57)  0.0758 (  44)  0.0621 (  22)
................................................................................
.............................. CYCLE   46 ......................................
................................................................................
   1    -50.7238237 -0.507238E+02  0.226E-01    9.16       0.0  T
   2    -50.7240100 -0.186320E-03  0.163E-01    9.16       1.0  T
   3    -50.7241254 -0.115374E-03  0.677E-02    9.16       1.0  T
   4    -50.7241400 -0.146022E-04  0.157E-02    9.16       1.2  T
   5    -50.7241403 -0.293621E-06  0.675E-03    9.16       2.9  T
   6    -50.7241404 -0.662702E-07  0.265E-03    9.16       7.4  T
   7    -50.7241404 -0.111192E-07  0.787E-04    9.16      24.9  T
speedup  0.97
cpu  time for SCC    0.01 s
wall time for SCC    0.01 s
speedup  0.99
cpu  time for grad    0.01 s
wall time for grad    0.01 s
 E :    -50.44282209  G :  0.026267    pred/act E change: -0.378D-02 -0.153D-02
Maxdispl :   0.0495   ||displ|| :   0.1621   Lambda : -0.182D-02
Largest |displ|/coords:  0.0495 (  23)  0.0475 (  22)  0.0459 (  57)
................................................................................
.............................. CYCLE   47 ......................................
................................................................................
   1    -50.7308929 -0.507309E+02  0.110E-01    9.15       0.0  T
   2    -50.7309254 -0.324956E-04  0.804E-02    9.16       1.0  T
   3    -50.7309452 -0.197787E-04  0.292E-02    9.16       1.0  T
   4    -50.7309478 -0.264078E-05  0.668E-03    9.16       2.9  T
   5    -50.7309479 -0.631280E-07  0.316E-03    9.16       6.2  T
   6    -50.7309479 -0.731423E-08  0.122E-03    9.16      16.1  T
speedup  0.94
cpu  time for SCC    0.00 s
wall time for SCC    0.01 s
speedup  0.99
cpu  time for grad    0.01 s
wall time for grad    0.01 s
 E :    -50.44421090  G :  0.016481    pred/act E change: -0.436D-02 -0.139D-02
Maxdispl :   0.0901   ||displ|| :   0.2812   Lambda : -0.165D-02
Largest |displ|/coords:  0.0901 (   1)  0.0882 (   4)  0.0708 (  57)
................................................................................
.............................. CYCLE   48 ......................................
................................................................................
   1    -50.7394521 -0.507395E+02  0.171E-01    9.15       0.0  T
   2    -50.7394876 -0.355714E-04  0.127E-01    9.15       1.0  T
   3    -50.7395124 -0.247825E-04  0.335E-02    9.16       1.0  T
   4    -50.7395162 -0.380894E-05  0.935E-03    9.15       2.1  T
   5    -50.7395164 -0.161217E-06  0.397E-03    9.16       4.9  T
   6    -50.7395164 -0.134426E-07  0.181E-03    9.16      10.8  T
   7    -50.7395164 -0.433122E-08  0.448E-04    9.16      43.8  T
speedup  0.95
cpu  time for SCC    0.01 s
wall time for SCC    0.01 s
speedup  0.99
cpu  time for grad    0.01 s
wall time for grad    0.01 s
 E :    -50.44506816  G :  0.023148    pred/act E change: -0.936D-03 -0.857D-03
Maxdispl :   0.0825   ||displ|| :   0.2040   Lambda : -0.777D-03
Largest |displ|/coords:  0.0825 (   3)  0.0655 (   1)  0.0647 (   6)
................................................................................
.............................. CYCLE   49 ......................................
................................................................................
   1    -50.7388458 -0.507388E+02  0.983E-02    9.13       0.0  T
   2    -50.7388490 -0.324820E-05  0.733E-02    9.12       1.0  T
   3    -50.7388514 -0.240866E-05  0.111E-02    9.11       1.8  T
   4    -50.7388518 -0.397800E-06  0.391E-03    9.11       5.0  T
   5    -50.7388518 -0.281279E-07  0.124E-03    9.11      15.8  T
speedup  1.09
cpu  time for SCC    0.00 s
wall time for SCC    0.00 s
speedup  1.06
cpu  time for grad    0.01 s
wall time for grad    0.01 s
 E :    -50.44570728  G :  0.016711    pred/act E change: -0.889D-03 -0.639D-03
Maxdispl :   0.1864   ||displ|| :   0.4345   Lambda : -0.159D-02
Largest |displ|/coords:  0.1864 (   1)  0.1673 (   4)  0.1325 (   3)
................................................................................
.............................. CYCLE   50 ......................................
................................................................................
   1    -50.7354882 -0.507355E+02  0.200E-01    9.05       0.0  T
   2    -50.7355013 -0.131881E-04  0.149E-01    9.04       1.0  T
   3    -50.7355119 -0.105459E-04  0.239E-02    9.00       1.0  T
   4    -50.7355133 -0.141184E-05  0.870E-03    9.00       2.3  T
   5    -50.7355134 -0.110712E-06  0.227E-03    9.00       8.6  T
   6    -50.7355134 -0.655157E-08  0.139E-03    9.00      14.1  T
speedup  1.11
cpu  time for SCC    0.01 s
wall time for SCC    0.01 s
speedup  1.06
cpu  time for grad    0.01 s
wall time for grad    0.01 s
 E :    -50.44648392  G :  0.010389    pred/act E change: -0.405D-03 -0.777D-03
Maxdispl :   0.1314   ||displ|| :   0.2360   Lambda : -0.407D-03
Largest |displ|/coords:  0.1314 (   3)  0.0911 (   1)  0.0623 (   4)
................................................................................
.............................. CYCLE   51 ......................................
................................................................................
   1    -50.7377469 -0.507377E+02  0.111E-01    8.98       0.0  T
   2    -50.7377523 -0.539773E-05  0.833E-02    8.98       1.0  T
   3    -50.7377559 -0.365635E-05  0.139E-02    8.95       1.4  T
   4    -50.7377567 -0.757138E-06  0.473E-03    8.96       4.1  T
   5    -50.7377567 -0.478227E-07  0.162E-03    8.96      12.1  T
   6    -50.7377567 -0.268023E-08  0.844E-04    8.96      23.2  T
speedup  0.94
cpu  time for SCC    0.00 s
wall time for SCC    0.01 s
speedup  0.99
cpu  time for grad    0.01 s
wall time for grad    0.01 s
 E :    -50.44668459  G :  0.011683    pred/act E change: -0.945D-03 -0.201D-03
Maxdispl :   0.1133   ||displ|| :   0.1496   Lambda : -0.232D-03
Largest |displ|/coords:  0.1133 (   1)  0.0548 (   3)  0.0421 (   4)
................................................................................
.............................. CYCLE   52 ......................................
................................................................................
   1    -50.7392239 -0.507392E+02  0.593E-02    8.97       0.0  T
   2    -50.7392263 -0.237072E-05  0.442E-02    8.96       1.0  T
   3    -50.7392276 -0.133440E-05  0.896E-03    8.96       2.2  T
   4    -50.7392280 -0.342713E-06  0.283E-03    8.96       6.9  T
   5    -50.7392280 -0.194982E-07  0.100E-03    8.96      19.6  T
speedup  0.89
cpu  time for SCC    0.00 s
wall time for SCC    0.00 s
speedup  0.98
cpu  time for grad    0.01 s
wall time for grad    0.01 s
 E :    -50.44684088  G :  0.008143    pred/act E change: -0.215D-03 -0.156D-03
Maxdispl :   0.1520   ||displ|| :   0.2491   Lambda : -0.351D-03
Largest |displ|/coords:  0.1520 (   1)  0.1334 (   3)  0.0610 (  20)
................................................................................
.............................. CYCLE   53 ......................................
................................................................................
   1    -50.7414776 -0.507415E+02  0.126E-01    9.00       0.0  T
   2    -50.7414825 -0.489726E-05  0.949E-02    9.00       1.0  T
   3    -50.7414851 -0.259971E-05  0.128E-02    9.00       1.5  T
   4    -50.7414860 -0.906221E-06  0.458E-03    9.00       4.3  T
   5    -50.7414861 -0.345545E-07  0.145E-03    9.00      13.5  T
   6    -50.7414861 -0.274201E-08  0.754E-04    9.00      26.0  T
speedup  1.13
cpu  time for SCC    0.01 s
wall time for SCC    0.01 s
speedup  1.05
cpu  time for grad    0.01 s
wall time for grad    0.01 s
 E :    -50.44709940  G :  0.006116    pred/act E change: -0.119D-03 -0.259D-03
Maxdispl :   0.2356   ||displ|| :   0.4096   Lambda : -0.391D-03
Largest |displ|/coords:  0.2356 (   3)  0.2351 (   1)  0.1152 (   4)
................................................................................
.............................. CYCLE   54 ......................................
................................................................................
   1    -50.7387363 -0.507387E+02  0.199E-01    8.99       0.0  T
   2    -50.7387456 -0.931989E-05  0.150E-01    8.99       1.0  T
   3    -50.7387521 -0.653943E-05  0.191E-02    8.99       1.0  T
   4    -50.7387536 -0.150481E-05  0.704E-03    8.99       2.8  T
   5    -50.7387537 -0.658458E-07  0.215E-03    8.99       9.1  T
   6    -50.7387537 -0.577604E-08  0.118E-03    8.99      16.6  T
speedup  1.09
cpu  time for SCC    0.01 s
wall time for SCC    0.01 s
speedup  1.05
cpu  time for grad    0.01 s
wall time for grad    0.01 s
 E :    -50.44734516  G :  0.008116    pred/act E change: -0.186D-03 -0.246D-03
Maxdispl :   0.1294   ||displ|| :   0.2479   Lambda : -0.288D-03
Largest |displ|/coords:  0.1294 (   3)  0.1284 (   1)  0.0621 (   2)
................................................................................
.............................. CYCLE   55 ......................................
................................................................................
   1    -50.7407896 -0.507408E+02  0.120E-01    9.01       0.0  T
   2    -50.7407942 -0.459456E-05  0.896E-02    9.01       1.0  T
   3    -50.7407976 -0.340029E-05  0.127E-02    9.01       1.5  T
   4    -50.7407982 -0.596845E-06  0.460E-03    9.01       4.3  T
   5    -50.7407982 -0.344479E-07  0.151E-03    9.01      13.0  T
   6    -50.7407982 -0.252633E-08  0.861E-04    9.01      22.8  T
speedup  0.94
cpu  time for SCC    0.01 s
wall time for SCC    0.01 s
speedup  0.99
cpu  time for grad    0.01 s
wall time for grad    0.01 s
 E :    -50.44750968  G :  0.006398    pred/act E change: -0.228D-03 -0.165D-03
Maxdispl :   0.1793   ||displ|| :   0.3045   Lambda : -0.242D-03
Largest |displ|/coords:  0.1793 (   3)  0.1666 (   1)  0.1112 (   2)
................................................................................
.............................. CYCLE   56 ......................................
................................................................................
   1    -50.7384862 -0.507385E+02  0.175E-01    8.98       0.0  T
   2    -50.7384926 -0.634628E-05  0.132E-01    8.98       1.0  T
   3    -50.7384968 -0.428812E-05  0.157E-02    8.97       1.3  T
   4    -50.7384978 -0.950764E-06  0.565E-03    8.97       3.5  T
   5    -50.7384979 -0.568349E-07  0.151E-03    8.97      13.0  T
   6    -50.7384979 -0.161426E-08  0.913E-04    8.97      21.5  T
speedup  0.93
cpu  time for SCC    0.00 s
wall time for SCC    0.01 s
speedup  0.98
cpu  time for grad    0.01 s
wall time for grad    0.01 s
 E :    -50.44759903  G :  0.012907    pred/act E change: -0.153D-03 -0.894D-04
Maxdispl :   0.1144   ||displ|| :   0.1990   Lambda : -0.320D-03
Largest |displ|/coords:  0.1144 (   3)  0.0966 (   1)  0.0894 (   2)
................................................................................
.............................. CYCLE   57 ......................................
................................................................................
   1    -50.7391045 -0.507391E+02  0.928E-02    8.96       0.0  T
   2    -50.7391090 -0.445431E-05  0.694E-02    8.96       1.0  T
   3    -50.7391114 -0.243030E-05  0.120E-02    8.94       1.6  T
   4    -50.7391120 -0.628298E-06  0.386E-03    8.94       5.1  T
   5    -50.7391121 -0.395845E-07  0.115E-03    8.94      17.0  T
   6    -50.7391121 -0.110313E-08  0.629E-04    8.94      31.2  T
speedup  0.94
cpu  time for SCC    0.00 s
wall time for SCC    0.01 s
speedup  0.99
cpu  time for grad    0.01 s
wall time for grad    0.01 s
 E :    -50.44775527  G :  0.007089    pred/act E change: -0.132D-03 -0.156D-03
Maxdispl :   0.0885   ||displ|| :   0.1523   Lambda : -0.221D-03
Largest |displ|/coords:  0.0885 (   4)  0.0652 (   6)  0.0377 (   2)
................................................................................
.............................. CYCLE   58 ......................................
................................................................................
   1    -50.7413985 -0.507414E+02  0.723E-02    8.98       0.0  T
   2    -50.7414018 -0.330483E-05  0.537E-02    8.97       1.0  T
   3    -50.7414036 -0.182483E-05  0.104E-02    8.96       1.9  T
   4    -50.7414041 -0.446615E-06  0.225E-03    8.97       8.7  T
   5    -50.7414041 -0.102373E-07  0.963E-04    8.97      20.4  T
speedup  1.11
cpu  time for SCC    0.00 s
wall time for SCC    0.00 s
speedup  1.06
cpu  time for grad    0.01 s
wall time for grad    0.01 s
 E :    -50.44782931  G :  0.005485    pred/act E change: -0.166D-03 -0.740D-04
Maxdispl :   0.1475   ||displ|| :   0.2274   Lambda : -0.162D-03
Largest |displ|/coords:  0.1475 (   1)  0.1229 (   3)  0.0654 (   2)
................................................................................
.............................. CYCLE   59 ......................................
................................................................................
   1    -50.7400083 -0.507400E+02  0.103E-01    8.95       0.0  T
   2    -50.7400106 -0.224115E-05  0.773E-02    8.95       1.0  T
   3    -50.7400124 -0.179805E-05  0.989E-03    8.94       2.0  T
   4    -50.7400127 -0.295692E-06  0.351E-03    8.94       5.6  T
   5    -50.7400127 -0.159438E-07  0.923E-04    8.94      21.3  T
   6    -50.7400127 -0.812214E-09  0.560E-04    8.94      35.0  T
speedup  1.11
cpu  time for SCC    0.01 s
wall time for SCC    0.01 s
speedup  0.98
cpu  time for grad    0.01 s
wall time for grad    0.01 s
 E :    -50.44794420  G :  0.005259    pred/act E change: -0.113D-03 -0.115D-03
Maxdispl :   0.2047   ||displ|| :   0.2998   Lambda : -0.132D-03
Largest |displ|/coords:  0.2047 (   1)  0.1436 (   3)  0.0989 (   2)
................................................................................
.............................. CYCLE   60 ......................................
................................................................................
   1    -50.7383853 -0.507384E+02  0.131E-01    8.90       0.0  T
   2    -50.7383889 -0.355468E-05  0.978E-02    8.89       1.0  T
   3    -50.7383914 -0.255820E-05  0.138E-02    8.87       1.4  T
   4    -50.7383919 -0.494020E-06  0.422E-03    8.88       4.6  T
   5    -50.7383920 -0.232155E-07  0.114E-03    8.88      17.2  T
   6    -50.7383920 -0.133453E-08  0.681E-04    8.88      28.8  T
speedup  1.09
cpu  time for SCC    0.01 s
wall time for SCC    0.01 s
speedup  0.98
cpu  time for grad    0.01 s
wall time for grad    0.01 s
 E :    -50.44801985  G :  0.009057    pred/act E change: -0.852D-04 -0.757D-04
Maxdispl :   0.0868   ||displ|| :   0.1615   Lambda : -0.997D-04
Largest |displ|/coords:  0.0868 (   1)  0.0640 (   3)  0.0510 (   5)

generating ANC from model Hessian ...
 Shifting diagonal of input Hessian by   4.769746406724034E-003
 Lowest  eigenvalues of input Hessian
   -0.000000   -0.000000   -0.000000    0.000000    0.000000    0.000000
    0.005000    0.005109    0.005747    0.005943    0.006170    0.006376
    0.006502    0.006757    0.007838    0.008648    0.008782    0.009610
 Highest eigenvalues
    1.399810    1.428074    1.491422    2.343429    3.456012    3.716460
 
cpu  time for ANC gen    0.02 s
wall time for ANC gen    0.02 s
................................................................................
.............................. CYCLE   61 ......................................
................................................................................
   1    -50.7391319 -0.507391E+02  0.648E-02    8.91       0.0  T
   2    -50.7391332 -0.130789E-05  0.486E-02    8.91       1.0  T
   3    -50.7391341 -0.887339E-06  0.759E-03    8.90       2.6  T
   4    -50.7391343 -0.196491E-06  0.237E-03    8.90       8.3  T
   5    -50.7391343 -0.910217E-08  0.765E-04    8.90      25.6  T
   6    -50.7391343 -0.904656E-09  0.416E-04    8.90      47.2  T
speedup  0.94
cpu  time for SCC    0.01 s
wall time for SCC    0.01 s
speedup  1.02
cpu  time for grad    0.01 s
wall time for grad    0.01 s
 E :    -50.44809589  G :  0.008669    pred/act E change:  0.000D+00 -0.760D-04
Maxdispl :   0.0499   ||displ|| :   0.1266   Lambda : -0.242D-03
Largest |displ|/coords:  0.0499 (   5)  0.0474 (   6)  0.0418 (   1)
................................................................................
.............................. CYCLE   62 ......................................
................................................................................
   1    -50.7401254 -0.507401E+02  0.123E-01    8.92       0.0  T
   2    -50.7401273 -0.195966E-05  0.929E-02    8.92       1.0  T
   3    -50.7401295 -0.216020E-05  0.706E-03    8.92       2.8  T
   4    -50.7401297 -0.165071E-06  0.282E-03    8.92       7.0  T
   5    -50.7401297 -0.954487E-08  0.100E-03    8.92      19.6  T
speedup  1.11
cpu  time for SCC    0.00 s
wall time for SCC    0.00 s
speedup  1.06
cpu  time for grad    0.01 s
wall time for grad    0.01 s
 E :    -50.44826471  G :  0.004654    pred/act E change:  0.000D+00 -0.169D-03
Maxdispl :   0.0924   ||displ|| :   0.2175   Lambda : -0.249D-03
Largest |displ|/coords:  0.0924 (   6)  0.0923 (   7)  0.0845 (   1)
................................................................................
.............................. CYCLE   63 ......................................
................................................................................
   1    -50.7403307 -0.507403E+02  0.184E-01    8.94       0.0  T
   2    -50.7403359 -0.514885E-05  0.139E-01    8.94       1.0  T
   3    -50.7403402 -0.435647E-05  0.128E-02    8.95       1.5  T
   4    -50.7403409 -0.647214E-06  0.435E-03    8.95       4.5  T
   5    -50.7403409 -0.331274E-07  0.151E-03    8.95      13.0  T
   6    -50.7403409 -0.939451E-09  0.790E-04    8.95      24.8  T
speedup  1.13
cpu  time for SCC    0.01 s
wall time for SCC    0.01 s
speedup  0.99
cpu  time for grad    0.01 s
wall time for grad    0.01 s
 E :    -50.44836808  G :  0.007576    pred/act E change: -0.123D-03 -0.103D-03
Maxdispl :   0.0922   ||displ|| :   0.1545   Lambda : -0.159D-03
Largest |displ|/coords:  0.0922 (   1)  0.0788 (   2)  0.0657 (   6)
................................................................................
.............................. CYCLE   64 ......................................
[...]
   2    -50.7414072 -0.889682E-07  0.160E-02    8.98       1.2  T
   3    -50.7414073 -0.363473E-07  0.228E-03    8.98       8.6  T
   4    -50.7414073 -0.172448E-07  0.585E-04    8.98      33.5  T
   5    -50.7414073 -0.271122E-09  0.103E-04    8.98     190.2  T
speedup  1.11
cpu  time for SCC    0.01 s
wall time for SCC    0.00 s
speedup  1.01
cpu  time for grad    0.01 s
wall time for grad    0.01 s
 E :    -50.44902422  G :  0.000389    pred/act E change: -0.463D-05 -0.835D-06
Maxdispl :   0.0348   ||displ|| :   0.0573   Lambda : -0.218D-05
Largest |displ|/coords:  0.0348 (  37)  0.0222 (  15)  0.0165 (  33)
................................................................................
.............................. CYCLE  112 ......................................
................................................................................
   1    -50.7412525 -0.507413E+02  0.585E-02    8.98       0.0  T
   2    -50.7412532 -0.719805E-06  0.439E-02    8.98       1.0  T
   3    -50.7412535 -0.276648E-06  0.655E-03    8.98       3.0  T
   4    -50.7412536 -0.139367E-06  0.170E-03    8.98      11.6  T
   5    -50.7412536 -0.238884E-08  0.312E-04    8.98      62.8  T
   6    -50.7412536 -0.561045E-10  0.179E-04    8.98     109.7  T
speedup  0.93
cpu  time for SCC    0.00 s
wall time for SCC    0.01 s
speedup  1.02
cpu  time for grad    0.01 s
wall time for grad    0.01 s
 E :    -50.44902481  G :  0.001545    pred/act E change: -0.484D-06 -0.583D-06
Maxdispl :   0.0123   ||displ|| :   0.0214   Lambda : -0.150D-05
Largest |displ|/coords:  0.0123 (  37)  0.0086 (  15)  0.0060 (  33)
................................................................................
.............................. CYCLE  113 ......................................
................................................................................
   1    -50.7413932 -0.507414E+02  0.208E-02    8.98       0.0  T
   2    -50.7413933 -0.895272E-07  0.156E-02    8.98       1.3  T
   3    -50.7413933 -0.332312E-07  0.239E-03    8.98       8.2  T
   4    -50.7413934 -0.169739E-07  0.569E-04    8.98      34.5  T
   5    -50.7413934 -0.315794E-09  0.110E-04    8.98     178.0  T
speedup  1.09
cpu  time for SCC    0.00 s
wall time for SCC    0.00 s
speedup  1.01
cpu  time for grad    0.01 s
wall time for grad    0.01 s
 E :    -50.44902554  G :  0.000564    pred/act E change: -0.110D-05 -0.732D-06
Maxdispl :   0.0058   ||displ|| :   0.0097   Lambda : -0.598D-06
Largest |displ|/coords:  0.0058 (  37)  0.0027 (  33)  0.0026 (   2)
................................................................................
.............................. CYCLE  114 ......................................
................................................................................
   1    -50.7414324 -0.507414E+02  0.955E-03    8.98       0.0  T
   2    -50.7414324 -0.234048E-07  0.721E-03    8.98       2.7  T
   3    -50.7414324 -0.102689E-07  0.107E-03    8.98      18.3  T
   4    -50.7414324 -0.437974E-08  0.370E-04    8.98      53.0  T
   5    -50.7414324 -0.115108E-09  0.489E-05    8.98     401.5  T
speedup  1.09
cpu  time for SCC    0.00 s
wall time for SCC    0.00 s
speedup  1.01
cpu  time for grad    0.01 s
wall time for grad    0.01 s
 E :    -50.44902607  G :  0.000368    pred/act E change: -0.749D-06 -0.530D-06
Maxdispl :   0.0284   ||displ|| :   0.0456   Lambda : -0.225D-05
Largest |displ|/coords:  0.0284 (  37)  0.0142 (   2)  0.0134 (  33)
................................................................................
.............................. CYCLE  115 ......................................
................................................................................
   1    -50.7414608 -0.507415E+02  0.460E-02    8.98       0.0  T
   2    -50.7414613 -0.566222E-06  0.347E-02    8.98       1.0  T
   3    -50.7414616 -0.232322E-06  0.543E-03    8.98       3.6  T
   4    -50.7414617 -0.105713E-06  0.182E-03    8.98      10.8  T
   5    -50.7414617 -0.286077E-08  0.259E-04    8.98      75.6  T
   6    -50.7414617 -0.576392E-10  0.155E-04    8.98     126.2  T
speedup  1.11
cpu  time for SCC    0.01 s
wall time for SCC    0.01 s
speedup  1.01
cpu  time for grad    0.01 s
wall time for grad    0.01 s
 E :    -50.44902758  G :  0.000539    pred/act E change: -0.299D-06 -0.151D-05
Maxdispl :   0.0129   ||displ|| :   0.0232   Lambda : -0.746D-06
Largest |displ|/coords:  0.0129 (  37)  0.0109 (   2)  0.0060 (  33)
................................................................................
.............................. CYCLE  116 ......................................
................................................................................
   1    -50.7414628 -0.507415E+02  0.214E-02    8.98       0.0  T
   2    -50.7414629 -0.128608E-06  0.161E-02    8.98       1.2  T
   3    -50.7414630 -0.573122E-07  0.260E-03    8.98       7.5  T
   4    -50.7414630 -0.228080E-07  0.943E-04    8.98      20.8  T
   5    -50.7414630 -0.697874E-09  0.119E-04    8.98     164.2  T
speedup  1.11
cpu  time for SCC    0.00 s
wall time for SCC    0.00 s
speedup  1.01
cpu  time for grad    0.01 s
wall time for grad    0.01 s
 E :    -50.44902814  G :  0.000517    pred/act E change: -0.113D-05 -0.562D-06
Maxdispl :   0.0120   ||displ|| :   0.0209   Lambda : -0.688D-06
Largest |displ|/coords:  0.0120 (   2)  0.0095 (  37)  0.0058 (   4)
................................................................................
.............................. CYCLE  117 ......................................
................................................................................
   1    -50.7414880 -0.507415E+02  0.170E-02    8.98       0.0  T
   2    -50.7414881 -0.790552E-07  0.128E-02    8.98       1.5  T
   3    -50.7414881 -0.406176E-07  0.210E-03    8.98       9.3  T
   4    -50.7414882 -0.127655E-07  0.820E-04    8.98      23.9  T
   5    -50.7414882 -0.436920E-09  0.944E-05    8.98     207.7  T
speedup  0.89
cpu  time for SCC    0.00 s
wall time for SCC    0.00 s
speedup  1.01
cpu  time for grad    0.01 s
wall time for grad    0.01 s
 E :    -50.44902859  G :  0.000338    pred/act E change: -0.373D-06 -0.453D-06
Maxdispl :   0.0150   ||displ|| :   0.0239   Lambda : -0.425D-06
Largest |displ|/coords:  0.0150 (  37)  0.0080 (   2)  0.0066 (  33)
................................................................................
.............................. CYCLE  118 ......................................
................................................................................
   1    -50.7414176 -0.507414E+02  0.239E-02    8.98       0.0  T
   2    -50.7414178 -0.165870E-06  0.179E-02    8.98       1.1  T
   3    -50.7414178 -0.694859E-07  0.331E-03    8.98       5.9  T
   4    -50.7414178 -0.276522E-07  0.106E-03    8.98      18.4  T
   5    -50.7414178 -0.752109E-09  0.132E-04    8.98     148.7  T
   6    -50.7414178 -0.143743E-10  0.857E-05    8.98     228.7  T
speedup  0.96
cpu  time for SCC    0.00 s
wall time for SCC    0.01 s
speedup  0.96
cpu  time for grad    0.01 s
wall time for grad    0.01 s
 E :    -50.44902876  G :  0.000472    pred/act E change: -0.344D-06 -0.164D-06
Maxdispl :   0.0030   ||displ|| :   0.0070   Lambda : -0.361D-06
Largest |displ|/coords:  0.0030 (  37)  0.0030 (   4)  0.0027 (   1)
................................................................................
.............................. CYCLE  119 ......................................
................................................................................
   1    -50.7414792 -0.507415E+02  0.619E-03    8.98       0.0  T
   2    -50.7414792 -0.118531E-07  0.466E-03    8.98       4.2  T
   3    -50.7414792 -0.427536E-08  0.726E-04    8.98      27.0  T
   4    -50.7414792 -0.228255E-08  0.250E-04    8.98      78.3  T
speedup  1.05
cpu  time for SCC    0.00 s
wall time for SCC    0.00 s
speedup  0.99
cpu  time for grad    0.01 s
wall time for grad    0.01 s
 E :    -50.44902896  G :  0.000162    pred/act E change: -0.213D-06 -0.209D-06
Maxdispl :   0.0019   ||displ|| :   0.0041   Lambda : -0.111D-06
Largest |displ|/coords:  0.0019 (   4)  0.0017 (  37)  0.0013 (   1)
................................................................................
.............................. CYCLE  120 ......................................
................................................................................
   1    -50.7414888 -0.507415E+02  0.370E-03    8.98       0.0  T
   2    -50.7414889 -0.318460E-08  0.272E-03    8.98       7.2  T
   3    -50.7414889 -0.158072E-08  0.561E-04    8.98      35.0  T
   4    -50.7414889 -0.422666E-09  0.158E-04    8.98     124.2  T
speedup  1.05
cpu  time for SCC    0.00 s
wall time for SCC    0.00 s
speedup  0.98
cpu  time for grad    0.01 s
wall time for grad    0.01 s
 E :    -50.44902905  G :  0.000121    pred/act E change: -0.180D-06 -0.830D-07
Maxdispl :   0.0055   ||displ|| :   0.0079   Lambda : -0.152D-06
Largest |displ|/coords:  0.0055 (   2)  0.0029 (   1)  0.0018 (   7)

   *** GEOMETRY OPTIMIZATION CONVERGED AFTER 120 ITERATIONS ***

------------------------------------------------------------------------
 total energy gain (kcal):     -0.0123
------------------------------------------------------------------------
================
 final structure:
================
$coord
       -1.15391081052957        4.62756196956651       -0.51289968017140      S 
       -1.94920918410411        2.40562759621679       -1.94496564614231      O 
        1.57501333044402        4.62395440992458       -0.10434393702481      O 
       -2.63640307967335        5.19585898585491        1.68896163102364      O 
       -1.64784688416269        6.92428548752388       -2.44560887796950      O 
       -2.18685929100552        8.30960672022264       -1.42624985778723      H 
       -1.34800469797855        2.50718849804904        3.07366130434037      H 
       -2.62804660156063       -4.43541133314840        3.32151045774225      O 
       -3.05519789232367       -6.11010766139119        3.85606205234910      H 
        2.70240842762649       -3.46601399561555       -1.73494242024184      O 
        3.03070402731168       -4.98833109662247       -2.65716903673152      H 
       -0.73969027492246        0.80914345694948        3.37463887204681      O 
       -2.20917077750131       -0.22328832399732        3.67111850057829      H 
        2.30375910776640       -3.33548323885665        3.60484166463356      O 
       -0.79723135718434       -4.22258669634172        3.62823113725689      H 
        2.84585345938289       -3.44555216996122        1.86152233419667      H 
        1.79028395101729       -1.58938620144399        3.83158027348760      H 
       -2.11048719081769       -2.76579932171425       -1.50780299210594      O 
       -2.59164168296894       -3.32539075602888        0.18669585600994      H 
       -2.35407283364724       -0.94371553367311       -1.53376194261101      H 
        0.79882950403063       -3.30149188556119       -1.63189409047102      H 
        2.55511597603778        1.31375158531554       -3.39001907505352      N 
        3.45841806142190        1.82473754027835       -4.99955716764880      H 
        0.57472387409445        1.42698726429153       -3.52401615009662      H 
        3.03136309502160       -0.50687644878605       -2.78558039205112      H 
        2.74129972533540        2.69073113004393       -1.90001279864897      H 
$end
 
 Bond Distances (Angstroems)
 ---------------------------
S1-O2=1.4608         S1-O3=1.4602         S1-O4=1.4365         S1-O5=1.6098         O2-S1=1.4608         O3-S1=1.4602         
O4-S1=1.4365         O5-S1=1.6098         O5-H6=0.9538         H6-O5=0.9538         H7-O12=0.9677        O8-H9=0.9573         
O8-H15=0.9888        H9-O8=0.9573         O10-H11=0.9578       O10-H21=1.0126       H11-O10=0.9578       O12-H7=0.9677        
O12-H13=0.9632       H13-O12=0.9632       O14-H16=0.9679       O14-H17=0.9706       H15-O8=0.9888        H16-O14=0.9679       
H17-O14=0.9706       O18-H19=0.9780       O18-H20=0.9729       H19-O18=0.9780       H20-O18=0.9729       H21-O10=1.0126       
N22-H23=1.0134       N22-H24=1.0521       N22-H25=1.0460       N22-H26=1.0781       H23-N22=1.0134       H24-N22=1.0521       
H25-N22=1.0460       H26-N22=1.0781       
 N  H  Rav=1.0474 sigma=0.0230  Rmin=1.0134  Rmax=1.0781     4
 O  H  Rav=0.9719 sigma=0.0160  Rmin=0.9538  Rmax=1.0126    11
 S  O  Rav=1.4918 sigma=0.0688  Rmin=1.4365  Rmax=1.6098     4
 
 selected bond angles (degree)
 --------------------
O3-S1-O2=111.14                O4-S1-O2=115.59                O4-S1-O3=114.85                O5-S1-O2=103.38                
O5-S1-O3=104.81                O5-S1-O4=105.58                H6-O5-S1=105.64                H15-O8-H9=106.76               
H21-O10-H11=106.27             
 
 selected dihedral angles (degree)
 ---------------------------------
H6-O5-S1-O2=144.58            H6-O5-S1-O3=261.09            H6-O5-S1-O4= 22.77            
 
 CMA Distance (Angstroems)
 ---------------------------
R(CMA):  3.7199

========================================================================
 FINAL SINGLEPOINT CALCULATION ON OPTIMIZED GEOMETRY
========================================================================

 Ncao       : 65
 Nao        : 64
 Nshell     : 38
 Nel        : 80
 T(el)      :   300.0
 intcut     :    25.0
 scfconv/Eh :  0.100E-05
   qconv/e  :  0.100E-03
 intneglect :  0.100E-07
 broydamp   :      0.250
 iter      E             dE          RMSdq      gap      omega  full diag
   1    -50.7414889 -0.507415E+02  0.605E-05    8.98       0.0  T
   2    -50.7414889 -0.122213E-11  0.390E-05    8.98     502.8  T
   3    -50.7414889 -0.824230E-12  0.365E-06    8.98    5366.8  T
speedup  1.07
cpu  time for SCC    0.00 s
wall time for SCC    0.00 s

   *** convergence criteria satisfied after 3 iterations ***

          eigenvalues
 #    :          28         29         30         31         32         33         34         35
 occ. :        2.000      2.000      2.000      2.000      2.000      2.000      2.000      2.000
 eps  :       -13.197    -13.085    -12.547    -12.355    -12.170    -12.066    -11.916    -11.899
 #    :          36         37         38         39         40         41         42         43
 occ. :        2.000      2.000      2.000      2.000      2.000      0.000      0.000      0.000
 eps  :       -11.843    -11.815    -11.649    -11.566    -11.494     -2.513     -1.020     -0.436
 #    :          44         45         46         47         48         49         50         51
 occ. :        0.000      0.000      0.000      0.000      0.000      0.000      0.000      0.000
 eps  :         0.454      1.072      1.367      2.176      3.306      4.228      4.494      4.911


   #   Z            q   n(s)   n(p)   n(d)      C6AA      α(0)
   1  16 S      1.663  1.596  1.787  0.954    89.614    15.933
   2   8 O     -0.737  1.762  4.975  0.000    29.734     7.311
   3   8 O     -0.724  1.769  4.955  0.000    29.349     7.264
   4   8 O     -0.713  1.767  4.946  0.000    29.074     7.229
   5   8 O     -0.606  1.752  4.854  0.000    25.301     6.790
   6   1 H      0.342  0.658  0.000  0.000     0.603     1.217
   7   1 H      0.303  0.697  0.000  0.000     0.712     1.325
   8   8 O     -0.626  1.750  4.875  0.000    25.808     6.856
   9   1 H      0.277  0.723  0.000  0.000     0.793     1.399
  10   8 O     -0.637  1.756  4.881  0.000    26.090     6.894
  11   1 H      0.283  0.717  0.000  0.000     0.774     1.382
  12   8 O     -0.630  1.737  4.893  0.000    25.903     6.869
  13   1 H      0.310  0.690  0.000  0.000     0.693     1.307
  14   8 O     -0.618  1.755  4.862  0.000    25.610     6.830
  15   1 H      0.335  0.665  0.000  0.000     0.625     1.242
  16   1 H      0.308  0.692  0.000  0.000     0.697     1.311
  17   1 H      0.325  0.675  0.000  0.000     0.651     1.267
  18   8 O     -0.627  1.754  4.873  0.000    25.835     6.860
  19   1 H      0.330  0.670  0.000  0.000     0.637     1.253
  20   1 H      0.322  0.678  0.000  0.000     0.658     1.275
  21   1 H      0.349  0.651  0.000  0.000     0.591     1.208
  22   7 N     -0.351  1.269  4.083  0.000    29.028     8.002
  23   1 H      0.232  0.768  0.000  0.000     0.957     1.533
  24   1 H      0.289  0.711  0.000  0.000     0.748     1.355
  25   1 H      0.295  0.705  0.000  0.000     0.729     1.338
  26   1 H      0.305  0.695  0.000  0.000     0.698     1.308

 Mol. C6AA /au·bohr⁶  :       5445.330693
 Mol. C8AA /au·bohr⁸  :     117890.847642
 Mol. α(0) /au        :        106.558857

 
 Wiberg/Mayer (AO) data. WBOs > 0.1 written file <wbo>
 largest (>0.05) Wiberg bond orders for each atom
           total WBO             WBO to atom ...
     1  S   4.849    O    4 1.378    O    2 1.285    O    3 1.283    O    5 0.864
     2  O   1.736    S    1 1.285    O    3 0.112    O    4 0.108    H   24 0.079    O    5 0.062
     3  O   1.761    S    1 1.283    H   26 0.130    O    2 0.112    O    4 0.108    O    5 0.072    N   22 0.051
     4  O   1.749    S    1 1.378    O    3 0.108    O    2 0.108    O    5 0.080
     5  O   1.948    H    6 0.867    S    1 0.864    O    4 0.080    O    3 0.072    O    2 0.062
     6  H   0.883    O    5 0.867
     7  H   0.908    O   12 0.853
     8  O   1.849    H    9 0.917    H   15 0.812    H   19 0.051
     9  H   0.923    O    8 0.917
    10  O   1.888    H   11 0.912    H   21 0.756    H   25 0.083
    11  H   0.920    O   10 0.912
    12  O   1.825    H   13 0.894    H    7 0.853
    13  H   0.904    O   12 0.894
    14  O   1.881    H   16 0.874    H   17 0.865    H   15 0.072
    15  H   0.888    O    8 0.812    O   14 0.072
    16  H   0.905    O   14 0.874
    17  H   0.895    O   14 0.865
    18  O   1.913    H   20 0.856    H   19 0.837    H   21 0.119
    19  H   0.891    O   18 0.837    O    8 0.051
    20  H   0.896    O   18 0.856
    21  H   0.878    O   10 0.756    O   18 0.119
    22  N   3.513    H   23 0.943    H   24 0.827    H   25 0.826    H   26 0.767    O    3 0.051
    23  H   0.946    N   22 0.943
    24  H   0.917    N   22 0.827    O    2 0.079
    25  H   0.913    N   22 0.826    O   10 0.083
    26  H   0.907    N   22 0.767    O    3 0.130
 MOs/occ written to file <molden.input>
 
molecular dipole:
                 x           y           z       tot (Debye)
 q only:        1.374      -1.142      -1.903
   full:        0.943      -0.743      -1.932       5.780
molecular quadrupole (traceless):
                xx          xy          yy          xz          yz          zz
 q only:       -2.306       3.130       0.107     -12.746      -3.771       2.199
  q+dip:       -4.987       1.546       6.001     -15.149      -3.542      -1.014
   full:       -5.301       1.279       6.708     -15.415      -3.774      -1.408

SCC energy    :     -50.7414889
rep           :       0.2921702
ES            :       0.2703696
AES           :      -0.0725054
AXC           :      -0.0078188
disp          :      -0.0183811
XB            :       0.0000000
fix           :       0.0000000
total E       :     -50.4490290
atomizationE  :       4.9793332     3124.58
(atE without considering molecular charge,
 total energy contains solvation terms)
H-L gap (eV)  :          8.9810
optimized geometry written to: xtbopt.xyz


------------------------------------------------------------------------
 * finished run on 2019/09/16 at 12:45:42.424     
------------------------------------------------------------------------
 total:
 * wall-time:     0 d,  0 h,  0 min,  2.686 sec
 *  cpu-time:     0 d,  0 h,  0 min,  2.646 sec
 * ratio c/w:     0.985 speedup
 SCF:
 * wall-time:     0 d,  0 h,  0 min,  0.165 sec
 *  cpu-time:     0 d,  0 h,  0 min,  0.141 sec
 * ratio c/w:     0.855 speedup
 ANC optimizer:
 * wall-time:     0 d,  0 h,  0 min,  2.495 sec
 *  cpu-time:     0 d,  0 h,  0 min,  2.480 sec
 * ratio c/w:     0.994 speedup

